Title
82307
    1SAPS     N    1   4.492   4.671  10.921 -0.7471  0.2424  0.5800
    1SAPS   HN1    2   4.473   4.759  10.870 -1.2146  0.6679  1.4671
    1SAPS   HN2    3   4.401   4.639  10.959 -0.0064 -0.9104  1.4822
    1SAPS   HN3    4   4.546   4.670  11.010  0.1667 -1.4535  0.0551
    1SAPS   C12    5   4.541   4.562  10.832 -0.5313  0.0261 -0.1804
    1SAPS  H12A    6   4.507   4.581  10.732 -2.5885  1.8219  0.7873
    1SAPS   C13    7   4.700   4.543  10.832 -0.5626 -0.4288  0.7474
    1SAPS  O13A    8   4.772   4.585  10.923 -0.4085 -0.7727  0.3986
    1SAPS  O13B    9   4.744   4.455  10.750 -0.4925 -0.3128  0.2093
    1SAPS   C11   10   4.484   4.426  10.886 -0.1435 -0.2573 -0.3135
    1SAPS  H11A   11   4.528   4.388  10.980  1.8679  1.4800 -0.4894
    1SAPS  H11B   12   4.512   4.346  10.815  0.4082 -0.1718 -0.1968
    1SAPS     P   13   4.236   4.327  10.919  0.1276  0.3216 -0.0269
    1SAPS   O13   14   4.298   4.206  10.972  0.0406  0.1419  0.2104
    1SAPS   O14   15   4.118   4.379  10.986 -0.4221 -0.5727 -0.1165
    1SAPS   O12   16   4.343   4.440  10.889 -0.4775 -0.1249  0.1187
    1SAPS   O11   17   4.184   4.289  10.772  0.0378 -0.1360 -0.7666
    1SAPS    C1   18   4.194   4.368  10.656 -0.0054  0.2583  0.8375
    1SAPS    HA   19   4.095   4.412  10.633  0.9399  1.1643 -1.9514
    1SAPS    HB   20   4.274   4.445  10.659  0.3310 -0.0355 -0.1369
    1SAPS    C2   21   4.232   4.281  10.525  0.6263 -0.2249  0.0881
    1SAPS    HS   22   4.310   4.339  10.472 -1.0453  0.6690 -1.4963
    1SAPS   O21   23   4.113   4.263  10.445 -0.5116 -0.1268  0.1088
    1SAPS   C21   24   4.126   4.266  10.315  0.8168 -0.3635  0.7503
    1SAPS   O22   25   4.228   4.297  10.254  0.1669  0.2711  0.3454
    1SAPS   C22   26   3.997   4.213  10.247 -0.2878  0.0158  0.4345
    1SAPS   H2R   27   3.946   4.134  10.307  0.8664 -1.1382 -0.0712
    1SAPS   H2S   28   3.928   4.298  10.228 -0.2165  0.3413  1.5629
    1SAPS    C3   29   4.295   4.138  10.554 -0.2403  0.1846 -0.3894
    1SAPS    HX   30   4.219   4.079  10.610  2.4539 -1.9325  1.2857
    1SAPS    HY   31   4.390   4.144  10.612  1.0309 -0.4542 -2.3111
    1SAPS   O31   32   4.319   4.066  10.435  0.4028  0.0386  0.1470
    1SAPS   C31   33   4.430   4.087  10.363  0.1140  0.0412 -0.1880
    1SAPS   O32   34   4.519   4.158  10.401  0.3932  0.4502  0.0510
    1SAPS   C32   35   4.428   4.010  10.239 -0.2946  0.3391 -0.3865
    1SAPS   H2X   36   4.321   3.987  10.220 -0.0152 -0.6948 -0.7897
    1SAPS   H2Y   37   4.476   3.910  10.238 -1.5164 -0.3073 -3.2198
    1SAPS   C23   38   4.030   4.139  10.113  0.4837 -0.2361 -0.0236
    1SAPS   H3R   39   4.106   4.057  10.121  2.1819  0.7905 -3.5338
    1SAPS   H3S   40   4.070   4.210  10.036  1.4377  1.0638  1.6073
    1SAPS   C24   41   3.906   4.072  10.050  0.0656 -0.0540 -0.5886
    1SAPS   H4R   42   3.883   3.987  10.117  0.0487  0.7006  0.3752
    1SAPS   H4S   43   3.941   4.024   9.956  0.5417 -3.2155  1.0693
    1SAPS   C25   44   3.787   4.153  10.021 -0.0577 -0.6037  0.6344
    1SAPS   H5R   45   3.726   4.168  10.112  3.8077  3.2892  3.0281
    1SAPS   C26   46   3.752   4.213   9.903  0.3328 -0.1320 -0.1875
    1SAPS   H6R   47   3.666   4.280   9.893 -0.6714 -1.4654 -0.8389
    1SAPS   C27   48   3.817   4.199   9.772  0.6415  0.2630  0.3023
    1SAPS   H7R   49   3.735   4.168   9.704  0.0705  2.1832  0.0762
    1SAPS   H7S   50   3.896   4.121   9.759  0.6370 -0.1454  2.3325
    1SAPS   C28   51   3.884   4.330   9.745  0.3712 -0.7569  0.7471
    1SAPS   H8R   52   3.953   4.360   9.825 -0.2034 -0.1280  1.0111
    1SAPS   C29   53   3.860   4.413   9.645  0.6040 -0.4849 -0.2685
    1SAPS   H9R   54   3.917   4.506   9.634 -0.1097 -0.0587 -0.4351
    1SAPS  C210   55   3.759   4.389   9.542 -0.0097  0.3581 -0.0296
    1SAPS  H10R   56   3.721   4.484   9.498  1.8431 -0.1866 -3.0359
    1SAPS  H10S   57   3.670   4.330   9.574 -1.1123  1.3277 -1.1649
    1SAPS  C211   58   3.827   4.319   9.429  0.3888  0.5432 -0.2223
    1SAPS  H11R   59   3.868   4.218   9.446 -0.9528  0.0491  0.1999
    1SAPS  C212   60   3.859   4.373   9.311 -0.4669 -0.2022 -0.8702
    1SAPS  H12R   61   3.918   4.319   9.235  0.7796  0.6820 -0.5695
    1SAPS  C213   62   3.809   4.499   9.256  0.4149  0.4152 -1.0235
    1SAPS  H13R   63   3.701   4.518   9.275  0.0527 -1.0132 -1.5846
    1SAPS  H13S   64   3.798   4.494   9.146  0.2460 -2.4324 -0.9409
    1SAPS  C214   65   3.903   4.611   9.297 -0.5209 -0.4133  0.1763
    1SAPS  H14R   66   3.879   4.652   9.396  0.0502 -0.1191  0.2000
    1SAPS  C215   67   4.019   4.648   9.245 -0.1989 -0.0466  0.3180
    1SAPS  H15R   68   4.079   4.725   9.296  1.3040 -0.7840 -0.2910
    1SAPS  C216   69   4.087   4.596   9.119  0.3454 -0.3100 -0.1130
    1SAPS  H16R   70   4.079   4.485   9.117 -1.6953 -0.2015  0.0491
    1SAPS  H16S   71   4.193   4.627   9.128 -0.1433  1.1659  0.9160
    1SAPS  C217   72   4.032   4.642   8.987  0.3310  0.1255  0.5723
    1SAPS  H17R   73   3.922   4.635   9.001 -0.0643  1.9627 -1.1471
    1SAPS  H17S   74   4.060   4.576   8.902  1.3242  0.3502  0.7093
    1SAPS  C218   75   4.065   4.780   8.955  0.3121  0.1761 -0.0366
    1SAPS  H18R   76   4.174   4.800   8.943 -0.0709  0.9422 -2.9409
    1SAPS  H18S   77   4.025   4.845   9.036 -3.6752  1.9379 -3.0778
    1SAPS  C219   78   3.979   4.831   8.838 -0.2635 -0.1931  0.4553
    1SAPS  H19R   79   3.871   4.820   8.863 -0.9456  1.8731 -1.2909
    1SAPS  H19S   80   3.997   4.762   8.753  1.9187 -2.1345  2.3472
    1SAPS  C220   81   4.008   4.979   8.812 -0.0406 -0.0480  0.6168
    1SAPS  H20R   82   3.997   5.040   8.904 -1.3338  0.1171  0.3707
    1SAPS  H20S   83   3.934   5.017   8.738 -1.4069 -0.2339  1.8415
    1SAPS  H20T   84   4.114   4.987   8.779  0.1032 -1.2116  0.7658
    1SAPS   C33   85   4.494   4.080  10.120  0.1392  0.0173 -0.6793
    1SAPS   H3X   86   4.601   4.100  10.141  0.0367  0.3490 -0.4659
    1SAPS   H3Y   87   4.449   4.181  10.111  0.3500  0.1304 -0.4675
    1SAPS   C34   88   4.477   4.015   9.986 -0.8087  0.7262 -0.0025
    1SAPS   H4X   89   4.374   4.034   9.948 -0.5729  0.4371 -0.8106
    1SAPS   H4Y   90   4.488   3.905   9.988 -0.6932  0.7431  0.3771
    1SAPS   C35   91   4.590   4.066   9.898 -0.8500 -0.3361  0.1417
    1SAPS   H5X   92   4.688   4.019   9.922 -0.4786  0.6994  0.7239
    1SAPS   H5Y   93   4.607   4.173   9.926  0.9935 -0.1386 -1.4802
    1SAPS   C36   94   4.552   4.053   9.747  0.1661 -0.1398  0.0663
    1SAPS   H6X   95   4.470   4.123   9.722 -1.5392 -1.4807  1.5692
    1SAPS   H6Y   96   4.509   3.953   9.725 -0.2611 -0.1030  0.6890
    1SAPS   C37   97   4.669   4.075   9.651  0.4358 -0.0446 -0.0733
    1SAPS   H7X   98   4.751   4.005   9.679 -0.4847 -0.7075  1.0794
    1SAPS   H7Y   99   4.699   4.180   9.671 -0.7278  0.1845  0.5966
    1SAPS   C38  100   4.639   4.053   9.503  0.6326 -0.6675 -0.4660
    1SAPS   H8X  101   4.566   4.134   9.483  1.1595  0.4488  1.8444
    1SAPS   H8Y  102   4.596   3.950   9.494 -0.0106 -0.3866 -0.6759
    1SAPS   C39  103   4.759   4.063   9.412  0.2632 -0.0173  0.2652
    1SAPS   H9X  104   4.844   3.998   9.439  0.5533  0.0810 -0.3957
    1SAPS   H9Y  105   4.787   4.170   9.397 -1.7396  0.3057 -1.8009
    1SAPS  C310  106   4.716   4.002   9.275 -0.1351 -0.2259  0.1780
    1SAPS  H10X  107   4.615   4.041   9.251  1.5824  4.7509 -0.1076
    1SAPS  H10Y  108   4.718   3.891   9.286 -0.7899 -0.6094 -2.8883
    1SAPS  C311  109   4.812   4.051   9.161  1.0263  0.5483  0.8392
    1SAPS  H11X  110   4.910   4.006   9.185  0.9186 -1.3042 -1.7967
    1SAPS  H11Y  111   4.841   4.158   9.154 -1.0879  1.1159 -0.3313
    1SAPS  C312  112   4.758   4.011   9.023 -0.2512  0.0231 -0.4741
    1SAPS  H12X  113   4.673   4.082   9.008  1.4735  1.8188 -2.2990
    1SAPS  H12Y  114   4.722   3.906   9.019 -0.8189  0.1818  0.1370
    1SAPS  C313  115   4.845   4.025   8.899 -0.8820  0.0386  1.0156
    1SAPS  H13X  116   4.915   3.939   8.896  1.3340  1.7087  1.9154
    1SAPS  H13Y  117   4.899   4.122   8.886 -1.4505 -0.0408 -3.2118
    1SAPS  C314  118   4.764   4.008   8.760 -0.5281  0.3372  0.2864
    1SAPS  H14X  119   4.723   3.905   8.754 -1.0822  0.5580  0.2858
    1SAPS  H14Y  120   4.841   4.011   8.679 -0.2316  0.6850  0.5762
    1SAPS  C315  121   4.652   4.102   8.721 -0.6291  0.2333  1.4058
    1SAPS  H15X  122   4.691   4.204   8.696  0.4707 -0.6456 -0.7605
    1SAPS  H15Y  123   4.585   4.118   8.808 -1.5178  0.1776  0.7416
    1SAPS  C316  124   4.558   4.049   8.608 -0.7853  0.0941 -0.3200
    1SAPS  H16X  125   4.497   3.964   8.645  1.1110 -0.2717  2.1386
    1SAPS  H16Y  126   4.616   4.014   8.520  0.5058  1.2992  0.0265
    1SAPS  C317  127   4.457   4.154   8.552 -0.3610  0.1420  0.9069
    1SAPS  H17X  128   4.495   4.256   8.535 -0.1772 -0.1411 -0.4597
    1SAPS  H17Y  129   4.371   4.150   8.623 -1.0660 -2.0577  0.0108
    1SAPS  C318  130   4.406   4.109   8.415  0.0559 -0.5202 -0.2077
    1SAPS  H18X  131   4.487   4.118   8.340 -0.7785  1.2251 -0.9669
    1SAPS  H18Y  132   4.317   4.170   8.387 -0.0047 -1.3002 -1.7742
    1SAPS  H18Z  133   4.369   4.006   8.435 -2.2878  0.1596 -0.6788
    2SAPS     N  134   3.207   5.577  10.701 -0.4973  0.2478  0.2377
    2SAPS   HN1  135   3.222   5.664  10.647  0.2018  0.8863  1.4116
    2SAPS   HN2  136   3.124   5.528  10.661 -1.0722  0.4871  1.0984
    2SAPS   HN3  137   3.163   5.618  10.786  0.9323  2.4225  0.0007
    2SAPS   C12  138   3.319   5.490  10.737 -0.0793 -0.1218  0.1221
    2SAPS  H12A  139   3.366   5.462  10.644 -1.7102 -0.2298 -0.7186
    2SAPS   C13  140   3.423   5.575  10.821 -0.6858  0.7799  0.3955
    2SAPS  O13A  141   3.406   5.694  10.863 -0.6643  0.0395 -0.2813
    2SAPS  O13B  142   3.530   5.509  10.854 -0.0104 -0.1302  0.1378
    2SAPS   C11  143   3.272   5.367  10.823  0.4181 -0.7002  0.3711
    2SAPS  H11A  144   3.229   5.398  10.920  0.4248 -0.5387  0.3231
    2SAPS  H11B  145   3.366   5.309  10.827 -0.1489 -1.6034  1.0542
    2SAPS     P  146   3.191   5.165  10.677  0.1399  0.1300  0.2480
    2SAPS   O13  147   3.296   5.086  10.755  0.4806  0.3389  0.4947
    2SAPS   O14  148   3.063   5.097  10.650 -0.0710 -0.4914 -0.3762
    2SAPS   O12  149   3.168   5.299  10.744 -0.2517  0.0547  0.6678
    2SAPS   O11  150   3.256   5.198  10.539 -0.1521  0.1053  0.6275
    2SAPS    C1  151   3.211   5.287  10.440 -0.2828 -0.2003 -0.4329
    2SAPS    HA  152   3.167   5.377  10.489 -0.9492 -1.5711  1.6326
    2SAPS    HB  153   3.296   5.334  10.388 -1.1866  1.6985 -0.2774
    2SAPS    C2  154   3.113   5.230  10.328  0.2647  0.1952 -0.2725
    2SAPS    HS  155   3.015   5.208  10.376  0.0967 -0.0952 -0.7483
    2SAPS   O21  156   3.174   5.113  10.258 -0.2499 -0.1575 -0.2825
    2SAPS   C21  157   3.089   5.022  10.209 -0.2493  0.3692  0.5787
    2SAPS   O22  158   2.969   5.019  10.237  0.6147  0.2994  0.0996
    2SAPS   C22  159   3.163   4.918  10.136  0.7706 -0.0987  0.3880
    2SAPS   H2R  160   3.269   4.945  10.115  0.1616  1.1524 -1.2540
    2SAPS   H2S  161   3.156   4.823  10.194 -1.8434 -0.0403  0.2650
    2SAPS    C3  162   3.093   5.342  10.213 -0.4588 -0.3645 -0.2723
    2SAPS    HX  163   3.196   5.351  10.174 -0.7014 -1.0947 -1.1336
    2SAPS    HY  164   3.053   5.433  10.262 -2.5069 -1.1703 -0.3247
    2SAPS   O31  165   3.005   5.295  10.107 -0.8868 -0.4118  0.1299
    2SAPS   C31  166   2.876   5.290  10.136  0.1825 -0.1054 -0.5383
    2SAPS   O32  167   2.825   5.320  10.245 -0.2221 -0.4577  0.1925
    2SAPS   C32  168   2.807   5.230  10.012  0.2019  0.2528 -0.0700
    2SAPS   H2X  169   2.837   5.123  10.008  0.7836  0.3485  1.3570
    2SAPS   H2Y  170   2.839   5.283   9.920  2.8778 -0.5497  0.3297
    2SAPS   C23  171   3.105   4.888   9.996 -0.5180  0.1487 -0.4521
    2SAPS   H3R  172   2.998   4.870  10.018 -0.9818 -0.6555 -2.9594
    2SAPS   H3S  173   3.154   4.801   9.947  0.6727  1.1468 -1.1036
    2SAPS   C24  174   3.113   5.008   9.904 -0.7532 -0.1503  0.6236
    2SAPS   H4R  175   3.220   5.015   9.873 -1.3134 -0.8529 -1.6713
    2SAPS   H4S  176   3.091   5.100   9.961  1.8845  1.4201 -0.6746
    2SAPS   C25  177   3.038   4.994   9.777  0.9458 -0.0255 -0.2897
    2SAPS   H5R  178   2.949   4.929   9.783  0.9899 -0.0186  0.7046
    2SAPS   C26  179   3.059   5.054   9.657 -0.5574 -0.2599  0.2635
    2SAPS   H6R  180   2.988   5.039   9.574  0.5975  2.3907 -1.3360
    2SAPS   C27  181   3.171   5.145   9.627  0.7936  0.2965 -0.0369
    2SAPS   H7R  182   3.238   5.095   9.554  1.5742  1.3133 -0.0419
    2SAPS   H7S  183   3.231   5.149   9.721  2.1072  1.0129 -0.8771
    2SAPS   C28  184   3.124   5.282   9.596 -0.2350 -0.4020  0.6815
    2SAPS   H8R  185   3.056   5.327   9.670  1.3502  0.6821  1.5496
    2SAPS   C29  186   3.140   5.345   9.473  0.1046  0.2816 -0.5050
    2SAPS   H9R  187   3.101   5.447   9.457  2.9460  1.9179  1.9925
    2SAPS  C210  188   3.209   5.282   9.349  0.7034  0.4171 -0.0328
    2SAPS  H10R  189   3.304   5.235   9.383  0.0481 -0.6719  0.3286
    2SAPS  H10S  190   3.236   5.367   9.282  0.8009 -0.6378 -1.3808
    2SAPS  C211  191   3.113   5.187   9.283 -0.1520 -0.8517  0.7873
    2SAPS  H11R  192   3.019   5.163   9.333 -1.7383  1.5810 -0.8518
    2SAPS  C212  193   3.136   5.141   9.159  0.2343 -0.5196  0.1544
    2SAPS  H12R  194   3.064   5.065   9.125 -0.2925 -0.9007  2.0293
    2SAPS  C213  195   3.247   5.184   9.065 -0.2507 -0.4080 -0.1715
    2SAPS  H13R  196   3.275   5.103   8.994  1.4486 -0.3224  0.3643
    2SAPS  H13S  197   3.341   5.223   9.109  0.2277  0.3954 -1.8017
    2SAPS  C214  198   3.199   5.306   8.989 -0.6694  0.3866 -0.4706
    2SAPS  H14R  199   3.213   5.403   9.039  1.2859 -0.6412  1.1244
    2SAPS  C215  200   3.127   5.306   8.874 -0.0421  0.9661  0.5214
    2SAPS  H15R  201   3.077   5.402   8.855 -1.4589 -0.0098 -0.9132
    2SAPS  C216  202   3.070   5.204   8.781  0.1681  0.6644  0.1955
    2SAPS  H16R  203   2.963   5.181   8.801  0.0057  0.1125 -1.1501
    2SAPS  H16S  204   3.107   5.101   8.803  1.1691  0.5156 -1.9031
    2SAPS  C217  205   3.087   5.229   8.629  0.3531 -0.2647  0.4479
    2SAPS  H17R  206   3.051   5.135   8.583 -1.8589  0.5098  0.4540
    2SAPS  H17S  207   3.196   5.232   8.606  0.8358 -0.1283  2.5364
    2SAPS  C218  208   3.002   5.347   8.571 -0.2152 -0.0361 -0.5369
    2SAPS  H18R  209   3.034   5.431   8.636 -0.5193 -1.5871  1.7340
    2SAPS  H18S  210   2.896   5.326   8.599  0.0532 -0.0975  0.4906
    2SAPS  C219  211   3.026   5.362   8.423 -0.9697  0.7465  0.4057
    2SAPS  H19R  212   2.975   5.281   8.366  0.2384  0.5290 -0.4027
    2SAPS  H19S  213   3.136   5.352   8.408 -1.1655  1.5122 -1.9360
    2SAPS  C220  214   2.977   5.496   8.368 -0.4713  1.0895 -0.8069
    2SAPS  H20R  215   2.873   5.487   8.331 -0.7792 -1.5293  0.4253
    2SAPS  H20S  216   3.034   5.527   8.278 -0.2166  1.4555 -0.5191
    2SAPS  H20T  217   2.969   5.579   8.440 -2.0718 -1.2432  1.9296
    2SAPS   C33  218   2.655   5.250  10.023  0.9150 -0.2831 -0.0675
    2SAPS   H3X  219   2.621   5.355  10.008 -1.7713 -1.1245 -0.3149
    2SAPS   H3Y  220   2.626   5.224  10.127  3.6087  1.7694  1.3301
    2SAPS   C34  221   2.567   5.161   9.931 -0.3434  0.6258  0.3299
    2SAPS   H4X  222   2.458   5.176   9.947 -0.1980  0.2738  1.7980
    2SAPS   H4Y  223   2.579   5.055   9.963  0.6023  0.2471 -1.1693
    2SAPS   C35  224   2.592   5.174   9.779  0.1908  0.6596 -0.2190
    2SAPS   H5X  225   2.684   5.117   9.755 -1.7341 -2.0050 -1.7933
    2SAPS   H5Y  226   2.606   5.282   9.758  0.2929  0.9965  1.4268
    2SAPS   C36  227   2.481   5.114   9.688  0.0941  0.0370  0.2210
    2SAPS   H6X  228   2.382   5.157   9.715 -1.2379 -0.4929 -3.2970
    2SAPS   H6Y  229   2.473   5.004   9.699 -0.4967 -0.3792 -3.3203
    2SAPS   C37  230   2.500   5.168   9.550  0.5491 -0.2561  0.4252
    2SAPS   H7X  231   2.601   5.139   9.514 -0.0574 -1.7258 -0.1960
    2SAPS   H7Y  232   2.496   5.279   9.548 -0.7257 -0.2827 -1.6095
    2SAPS   C38  233   2.408   5.128   9.442  0.7616  0.0921  0.1753
    2SAPS   H8X  234   2.303   5.137   9.479  0.4326  0.8156 -0.9042
    2SAPS   H8Y  235   2.432   5.020   9.428  1.4391  0.4770 -1.9210
    2SAPS   C39  236   2.431   5.204   9.315 -0.1102 -0.0633  0.2187
    2SAPS   H9X  237   2.450   5.312   9.337  2.7934 -0.3850 -0.3371
    2SAPS   H9Y  238   2.334   5.202   9.261  0.2084 -1.8214 -0.3495
    2SAPS  C310  239   2.543   5.151   9.226 -0.6540  0.0378  0.0482
    2SAPS  H10X  240   2.531   5.045   9.192 -0.0418  0.2841 -0.9765
    2SAPS  H10Y  241   2.644   5.163   9.270  0.1929  2.3880 -2.3096
    2SAPS  C311  242   2.549   5.230   9.092  0.8640  0.5981  0.4249
    2SAPS  H11X  243   2.573   5.338   9.103 -0.9311  0.9804  0.8491
    2SAPS  H11Y  244   2.457   5.214   9.033  1.8731  1.0209 -1.3160
    2SAPS  C312  245   2.655   5.179   8.996 -0.0624  0.8760  0.3100
    2SAPS  H12X  246   2.632   5.072   9.013 -0.5083  1.2009  1.9061
    2SAPS  H12Y  247   2.758   5.215   9.019  0.6276  0.4327 -1.7963
    2SAPS  C313  248   2.638   5.225   8.852 -0.7120 -0.3260  0.0420
    2SAPS  H13X  249   2.717   5.168   8.798 -1.9150 -1.2212 -0.8350
    2SAPS  H13Y  250   2.652   5.334   8.838  3.4046 -0.7699 -0.4636
    2SAPS  C314  251   2.515   5.193   8.763 -0.3463  0.3730  0.3985
    2SAPS  H14X  252   2.527   5.249   8.668 -1.8163  1.1382  0.6238
    2SAPS  H14Y  253   2.425   5.248   8.800  0.8577  1.3012  2.0546
    2SAPS  C315  254   2.489   5.041   8.737  0.1797 -0.0607 -0.1658
    2SAPS  H15X  255   2.490   5.014   8.845 -2.3486 -0.5410 -0.1832
    2SAPS  H15Y  256   2.576   4.989   8.692 -0.7019 -0.7043 -1.1930
    2SAPS  C316  257   2.363   5.002   8.653  0.3030  0.3983 -0.3872
    2SAPS  H16X  258   2.405   5.004   8.550  1.1344  2.9703 -0.0765
    2SAPS  H16Y  259   2.278   5.074   8.649 -0.5564 -0.6028 -0.8162
    2SAPS  C317  260   2.336   4.853   8.692  0.2323 -0.5483  0.4285
    2SAPS  H17X  261   2.308   4.849   8.799  0.4042 -0.8518  0.4619
    2SAPS  H17Y  262   2.427   4.790   8.690  0.3109 -0.4213 -0.6858
    2SAPS  C318  263   2.231   4.776   8.607 -0.3537  0.3391  0.6912
    2SAPS  H18X  264   2.247   4.780   8.497 -0.8062 -2.2274  0.4699
    2SAPS  H18Y  265   2.129   4.821   8.607 -0.6118 -0.2435  0.7305
    2SAPS  H18Z  266   2.224   4.669   8.635  0.7371  0.0665 -0.0274
    3SAPS     N  267   5.913   5.239  10.892 -0.5267  0.3407 -0.1580
    3SAPS   HN1  268   5.991   5.209  10.954  0.4963 -0.0804 -1.5965
    3SAPS   HN2  269   5.858   5.155  10.865  1.2194 -1.0410  0.3662
    3SAPS   HN3  270   5.956   5.289  10.812  3.8425 -0.8181  1.1612
    3SAPS   C12  271   5.838   5.342  10.972 -0.2572  0.2512 -0.2217
    3SAPS  H12A  272   5.786   5.295  11.055 -1.5157 -1.2051 -1.7633
    3SAPS   C13  273   5.930   5.466  11.014  0.1021  0.7600 -0.4007
    3SAPS  O13A  274   6.047   5.472  10.975 -0.3805 -0.2473 -0.4933
    3SAPS  O13B  275   5.898   5.545  11.111 -0.0129  0.1693 -0.1292
    3SAPS   C11  276   5.742   5.401  10.870 -0.0262 -0.5411 -0.8511
    3SAPS  H11A  277   5.793   5.461  10.792  0.1954  2.4399  1.4125
    3SAPS  H11B  278   5.689   5.481  10.926  2.5336 -0.7469  2.1452
    3SAPS     P  279   5.514   5.347  10.762 -0.4431 -0.0182 -0.0065
    3SAPS   O13  280   5.433   5.231  10.725 -0.2250 -0.1881 -0.2444
    3SAPS   O14  281   5.453   5.434  10.862  0.6394  0.2373 -0.4444
    3SAPS   O12  282   5.655   5.297  10.818 -0.4042 -0.0872  0.4182
    3SAPS   O11  283   5.541   5.421  10.627  0.2484  0.0117 -0.8418
    3SAPS    C1  284   5.656   5.377  10.547 -0.0039  0.2635  1.1143
    3SAPS    HA  285   5.753   5.426  10.573 -0.5535  1.5293  0.8643
    3SAPS    HB  286   5.673   5.267  10.547  1.4300  0.4579  1.6412
    3SAPS    C2  287   5.639   5.406  10.393 -0.0007  0.4956  0.1351
    3SAPS    HS  288   5.733   5.363  10.352 -0.4162 -0.2161 -0.1004
    3SAPS   O21  289   5.611   5.544  10.375  0.0909 -0.1463  0.0022
    3SAPS   C21  290   5.686   5.595  10.270  0.7706 -0.1015 -0.1280
    3SAPS   O22  291   5.767   5.535  10.205  0.3687 -0.1000 -0.3344
    3SAPS   C22  292   5.657   5.742  10.256 -0.5983 -0.3439  0.2769
    3SAPS   H2R  293   5.580   5.771  10.330 -1.2713 -1.0593 -0.1323
    3SAPS   H2S  294   5.748   5.795  10.292  0.5013 -1.2808 -1.0315
    3SAPS    C3  295   5.524   5.328  10.323 -0.0797 -0.5521 -0.4431
    3SAPS    HX  296   5.427   5.372  10.352 -0.0654 -1.7079  1.5166
    3SAPS    HY  297   5.523   5.222  10.357 -1.0808 -0.5093 -0.3158
    3SAPS   O31  298   5.537   5.331  10.181  0.5388  0.0679  0.5464
    3SAPS   C31  299   5.633   5.247  10.141  0.6666  0.0308  0.2235
    3SAPS   O32  300   5.693   5.168  10.212  0.0531  0.7220  0.0168
    3SAPS   C32  301   5.668   5.287   9.994 -0.4787  0.0631  0.4678
    3SAPS   H2X  302   5.765   5.240   9.969 -0.4142 -0.1280  1.0626
    3SAPS   H2Y  303   5.663   5.398   9.985 -3.1330 -0.0654 -0.6493
    3SAPS   C23  304   5.616   5.790  10.118 -0.1794  0.5866  0.8067
    3SAPS   H3R  305   5.555   5.882  10.124  1.3124  1.6281  0.6425
    3SAPS   H3S  306   5.566   5.703  10.070 -0.4134  1.0769  0.1534
    3SAPS   C24  307   5.736   5.804  10.013 -0.4615 -0.4525 -0.1981
    3SAPS   H4R  308   5.700   5.789   9.909 -0.4113 -0.3146 -0.2341
    3SAPS   H4S  309   5.812   5.728  10.041 -1.2233 -2.8336 -3.9359
    3SAPS   C25  310   5.812   5.934  10.022  0.1821 -0.4390  0.5534
    3SAPS   H5R  311   5.750   6.022   9.999  1.2022  0.5406  1.3917
    3SAPS   C26  312   5.943   5.951  10.049  0.7194 -0.0693 -0.4290
    3SAPS   H6R  313   5.987   6.052  10.039 -1.9825  1.0966 -1.5509
    3SAPS   C27  314   6.040   5.843  10.079 -0.2282 -0.3609 -0.3714
    3SAPS   H7R  315   6.024   5.771   9.995 -4.1159  0.0908 -0.2035
    3SAPS   H7S  316   6.018   5.801  10.179 -1.0958  0.1674 -0.3393
    3SAPS   C28  317   6.189   5.882  10.080  0.0665 -0.3199 -0.1772
    3SAPS   H8R  318   6.239   5.884  10.178 -0.5012 -0.0443  0.1170
    3SAPS   C29  319   6.263   5.887   9.967  0.0914  0.0386  0.7640
    3SAPS   H9R  320   6.370   5.910   9.984  0.2563  0.5335 -0.7834
    3SAPS  C210  321   6.215   5.871   9.826 -0.1660 -0.3366 -0.5197
    3SAPS  H10R  322   6.104   5.871   9.825 -0.1784 -1.0787 -1.6442
    3SAPS  H10S  323   6.240   5.776   9.774 -0.7984  1.2490 -4.0407
    3SAPS  C211  324   6.275   5.984   9.746 -0.0869  0.0991 -0.2136
    3SAPS  H11R  325   6.288   6.085   9.788 -2.0626  1.0191 -1.6708
    3SAPS  C212  326   6.330   5.971   9.623 -0.2937 -0.3616 -0.3922
    3SAPS  H12R  327   6.364   6.065   9.579 -0.5573  1.1110  2.2900
    3SAPS  C213  328   6.337   5.841   9.543  0.2134 -0.1860  1.0682
    3SAPS  H13R  329   6.232   5.807   9.532 -0.4844  2.0690  0.0334
    3SAPS  H13S  330   6.393   5.761   9.595  0.2555  0.0755  1.4248
    3SAPS  C214  331   6.411   5.863   9.413  0.1713 -0.5038  0.6352
    3SAPS  H14R  332   6.518   5.887   9.427  0.0647  0.5136 -0.1657
    3SAPS  C215  333   6.362   5.860   9.283 -0.4091 -0.2519 -0.1735
    3SAPS  H15R  334   6.423   5.868   9.192 -1.0336 -0.6152 -0.6322
    3SAPS  C216  335   6.218   5.821   9.257  0.1615 -0.1410  0.1010
    3SAPS  H16R  336   6.168   5.769   9.341 -1.8256 -1.4160 -1.7671
    3SAPS  H16S  337   6.226   5.736   9.186  0.7456 -0.2549  0.2945
    3SAPS  C217  338   6.130   5.928   9.175 -0.2031 -0.0075  0.2340
    3SAPS  H17R  339   6.191   5.962   9.089  0.9830 -0.3920  0.9010
    3SAPS  H17S  340   6.102   6.010   9.244 -1.0930  1.7962 -2.0983
    3SAPS  C218  341   6.003   5.876   9.120  1.0966  0.3755  0.1740
    3SAPS  H18R  342   5.942   5.817   9.192  0.7754  0.6227  0.1068
    3SAPS  H18S  343   6.018   5.810   9.032 -1.4912 -1.2848  0.8674
    3SAPS  C219  344   5.919   5.995   9.057  0.6348 -0.2787 -0.4622
    3SAPS  H19R  345   5.848   5.962   8.978  0.7198 -0.4935 -0.4491
    3SAPS  H19S  346   5.996   6.054   9.003 -1.6946  1.9723 -1.5774
    3SAPS  C220  347   5.849   6.076   9.165  0.2069 -0.6512 -0.9589
    3SAPS  H20R  348   5.799   6.001   9.229  0.0681 -0.8097 -1.2500
    3SAPS  H20S  349   5.767   6.139   9.124  1.3444  1.8338  0.3144
    3SAPS  H20T  350   5.930   6.133   9.217  0.6440 -1.9352 -0.2002
    3SAPS   C33  351   5.564   5.242   9.878  0.2189  0.0678 -0.4302
    3SAPS   H3X  352   5.463   5.275   9.912 -0.5066 -1.2479 -1.2063
    3SAPS   H3Y  353   5.567   5.132   9.891 -1.4089  0.1319  0.8073
    3SAPS   C34  354   5.602   5.291   9.743  0.8116 -0.1963 -0.1628
    3SAPS   H4X  355   5.705   5.252   9.726  1.0258 -0.3158  1.2353
    3SAPS   H4Y  356   5.612   5.401   9.752  1.9370 -0.3629  0.8722
    3SAPS   C35  357   5.502   5.261   9.632  0.3464  1.1268 -0.6734
    3SAPS   H5X  358   5.408   5.316   9.654  0.0473  0.1824  0.4856
    3SAPS   H5Y  359   5.479   5.153   9.636  1.9649  0.7431 -1.0239
    3SAPS   C36  360   5.550   5.303   9.501 -0.2389  0.2303  0.4149
    3SAPS   H6X  361   5.647   5.259   9.470 -0.4495 -0.5428  0.8404
    3SAPS   H6Y  362   5.569   5.413   9.500 -0.8538  0.3478 -0.8051
    3SAPS   C37  363   5.450   5.263   9.394 -0.2251 -0.1314  0.0486
    3SAPS   H7X  364   5.349   5.304   9.414 -0.3212 -0.7826  0.9098
    3SAPS   H7Y  365   5.439   5.153   9.395 -3.3480  0.0932  0.1502
    3SAPS   C38  366   5.473   5.317   9.251 -0.5015 -0.6014 -0.5586
    3SAPS   H8X  367   5.569   5.291   9.202  0.0400  1.3967 -0.6392
    3SAPS   H8Y  368   5.461   5.427   9.242  1.0763 -0.2090  1.5427
    3SAPS   C39  369   5.371   5.254   9.157  0.4966 -0.2754  0.2367
    3SAPS   H9X  370   5.272   5.278   9.202  0.9070  4.4540 -0.8365
    3SAPS   H9Y  371   5.378   5.143   9.159 -2.1266 -0.5501 -1.5139
    3SAPS  C310  372   5.377   5.303   9.007  0.1162  0.0266 -0.6347
    3SAPS  H10X  373   5.359   5.413   9.013 -0.2310 -0.0011 -1.1637
    3SAPS  H10Y  374   5.287   5.248   8.974 -1.0081  1.7328 -0.5136
    3SAPS  C311  375   5.487   5.262   8.905 -1.2585  0.1282  0.1953
    3SAPS  H11X  376   5.511   5.155   8.925  0.3188  0.1481 -1.3799
    3SAPS  H11Y  377   5.579   5.319   8.930 -0.1852 -0.9907 -1.0685
    3SAPS  C312  378   5.434   5.260   8.764 -0.3797 -0.7405 -0.6546
    3SAPS  H12X  379   5.431   5.370   8.747  0.8036 -0.6557 -0.3581
    3SAPS  H12Y  380   5.337   5.206   8.759 -0.1717 -1.1574 -0.2415
    3SAPS  C313  381   5.537   5.207   8.656  0.3345  0.0450 -0.7490
    3SAPS  H13X  382   5.544   5.103   8.696  0.1488  1.7626  4.4370
    3SAPS  H13Y  383   5.632   5.256   8.683 -0.8766  0.8140  2.7152
    3SAPS  C314  384   5.490   5.208   8.514  0.0711  0.3264  0.6340
    3SAPS  H14X  385   5.390   5.160   8.511  0.1740  0.1212  0.4939
    3SAPS  H14Y  386   5.554   5.145   8.449 -1.0272 -1.3204  1.0910
    3SAPS  C315  387   5.464   5.345   8.451 -0.1691 -0.4304  0.3048
    3SAPS  H15X  388   5.568   5.384   8.439 -0.2972  0.4279  1.7303
    3SAPS  H15Y  389   5.401   5.410   8.515 -0.3008 -0.7581  0.5107
    3SAPS  C316  390   5.394   5.328   8.315  0.3534  0.4556 -0.3083
    3SAPS  H16X  391   5.296   5.279   8.335  1.6578 -0.6288  4.7441
    3SAPS  H16Y  392   5.452   5.258   8.252  0.2232  0.2756 -0.2303
    3SAPS  C317  393   5.370   5.461   8.256  0.6617  0.0677  0.2173
    3SAPS  H17X  394   5.358   5.451   8.146 -0.9966 -0.1617  0.3950
    3SAPS  H17Y  395   5.462   5.524   8.258 -0.6657  2.1035 -0.1378
    3SAPS  C318  396   5.250   5.530   8.320  0.4412 -0.0043 -0.0580
    3SAPS  H18X  397   5.233   5.638   8.296  0.9051  0.0059 -0.3589
    3SAPS  H18Y  398   5.257   5.532   8.431  0.5256  2.2951 -0.0559
    3SAPS  H18Z  399   5.161   5.470   8.295  1.8620 -1.4874 -1.9344
    4SAPS     N  400   0.856   1.869  10.753 -0.0283 -0.3347 -0.0572
    4SAPS   HN1  401   0.889   1.868  10.852  1.1482 -3.3299 -0.3638
    4SAPS   HN2  402   0.870   1.960  10.705  0.3470 -0.6031 -0.4607
    4SAPS   HN3  403   0.756   1.847  10.735  0.6767 -1.0209 -4.2789
    4SAPS   C12  404   0.943   1.767  10.675  0.2604  0.4092 -0.6949
    4SAPS  H12A  405   1.023   1.828  10.635  1.1799 -0.1851  0.1715
    4SAPS   C13  406   1.008   1.664  10.767  0.1584  0.2083 -0.9270
    4SAPS  O13A  407   0.969   1.652  10.886 -0.1896 -0.0412 -0.2309
    4SAPS  O13B  408   1.106   1.596  10.728 -0.0955  0.2318  0.2668
    4SAPS   C11  409   0.854   1.697  10.567  0.0859  0.3719  0.4569
    4SAPS  H11A  410   0.788   1.623  10.618  0.8675 -0.8450 -0.2373
    4SAPS  H11B  411   0.929   1.639  10.509  1.2961 -0.2969  2.5688
    4SAPS     P  412   0.731   1.749  10.343  0.0351 -0.3609  0.2140
    4SAPS   O13  413   0.857   1.746  10.260 -0.1456 -0.7569 -0.5411
    4SAPS   O14  414   0.662   1.620  10.345  0.1037  0.0866 -0.5080
    4SAPS   O12  415   0.776   1.783  10.489 -0.5600 -0.1801 -0.0980
    4SAPS   O11  416   0.636   1.869  10.294  0.1951 -0.3501 -0.1582
    4SAPS    C1  417   0.497   1.872  10.337  0.8789 -0.6085  0.5209
    4SAPS    HA  418   0.475   1.817  10.431 -0.9326  1.3723  1.3497
    4SAPS    HB  419   0.471   1.975  10.369  1.1380  0.3871 -2.1705
    4SAPS    C2  420   0.409   1.838  10.212  0.6329 -0.5097 -0.9965
    4SAPS    HS  421   0.301   1.836  10.237  1.1418 -0.5794  1.5039
    4SAPS   O21  422   0.440   1.707  10.155  0.1601 -0.4214  0.5178
    4SAPS   C21  423   0.401   1.606  10.229  0.3399  0.2283  0.3332
    4SAPS   O22  424   0.333   1.625  10.331 -0.2174 -0.0570  0.4907
    4SAPS   C22  425   0.430   1.471  10.154  0.4813 -0.3186  0.2508
    4SAPS   H2R  426   0.514   1.426  10.213 -0.5817 -1.8649  0.6544
    4SAPS   H2S  427   0.344   1.401  10.163  0.3216 -0.1424  0.0989
    4SAPS    C3  428   0.428   1.939  10.097 -0.1942  0.1649 -0.1242
    4SAPS    HX  429   0.535   1.939  10.067 -0.5867 -2.6274 -1.8728
    4SAPS    HY  430   0.409   2.040  10.139  0.3598  0.9302 -1.6403
    4SAPS   O31  431   0.342   1.913   9.984  0.1577 -0.1921 -0.4397
    4SAPS   C31  432   0.403   1.946   9.866  0.9940  0.7024  0.1606
    4SAPS   O32  433   0.498   2.019   9.853 -0.2054 -0.5033 -0.0418
    4SAPS   C32  434   0.322   1.899   9.748  0.4808  0.3527 -0.0391
    4SAPS   H2X  435   0.212   1.909   9.757  0.6870  1.6289  1.4438
    4SAPS   H2Y  436   0.343   1.793   9.723 -0.5467  0.1969 -0.2813
    4SAPS   C23  437   0.452   1.491  10.003  1.1291 -0.5139  0.3606
    4SAPS   H3R  438   0.531   1.568   9.990 -2.2918  2.9311 -1.9954
    4SAPS   H3S  439   0.360   1.525   9.951  0.9093 -1.2968  0.2175
    4SAPS   C24  440   0.502   1.367   9.920 -0.0523  0.2638 -0.5762
    4SAPS   H4R  441   0.506   1.403   9.816  0.1051  0.1497 -0.6089
    4SAPS   H4S  442   0.438   1.277   9.937  0.5939  0.0024  0.6529
    4SAPS   C25  443   0.642   1.324   9.943 -0.7820  0.1107 -0.5706
    4SAPS   H5R  444   0.663   1.287  10.045  0.0271 -0.9826 -1.1030
    4SAPS   C26  445   0.737   1.293   9.845 -0.2570  0.6449 -0.2932
    4SAPS   H6R  446   0.831   1.249   9.879 -1.2552 -0.9758  0.4609
    4SAPS   C27  447   0.718   1.298   9.694 -1.1830 -0.3316  0.3302
    4SAPS   H7R  448   0.748   1.398   9.656 -1.9802 -0.1047  0.2827
    4SAPS   H7S  449   0.612   1.278   9.668 -0.3902 -2.8413 -1.3572
    4SAPS   C28  450   0.791   1.186   9.630  0.6937 -0.2361 -0.2008
    4SAPS   H8R  451   0.819   1.101   9.694 -0.7632  0.7416  1.8436
    4SAPS   C29  452   0.847   1.191   9.505 -1.3325  0.0555  0.3946
    4SAPS   H9R  453   0.908   1.105   9.473  0.1342  0.8728  0.8671
    4SAPS  C210  454   0.850   1.308   9.408  0.3527  0.5222 -0.6278
    4SAPS  H10R  455   0.957   1.337   9.403  1.1200 -1.9220  0.3053
    4SAPS  H10S  456   0.792   1.393   9.449 -1.0980  0.1716 -1.8227
    4SAPS  C211  457   0.811   1.271   9.265  0.0103  0.0805  0.0352
    4SAPS  H11R  458   0.885   1.201   9.223  0.8328  0.6054  0.5728
    4SAPS  C212  459   0.695   1.291   9.207 -0.3233 -0.1804  0.0034
    4SAPS  H12R  460   0.676   1.250   9.107 -0.4692  1.3140 -0.6026
    4SAPS  C213  461   0.577   1.366   9.257  0.3313  0.4142  0.7003
    4SAPS  H13R  462   0.588   1.391   9.365  0.7289 -0.7113  0.9393
    4SAPS  H13S  463   0.493   1.293   9.250  0.9346 -0.2479  0.3628
    4SAPS  C214  464   0.532   1.486   9.173 -0.6090  0.6917 -0.4799
    4SAPS  H14R  465   0.566   1.488   9.069  2.5754  1.3976  0.4635
    4SAPS  C215  466   0.459   1.590   9.223  0.2562 -0.1602  0.4450
    4SAPS  H15R  467   0.440   1.684   9.169 -0.6664 -0.1891  0.7109
    4SAPS  C216  468   0.414   1.601   9.368  0.2563 -0.3780 -0.2005
    4SAPS  H16R  469   0.347   1.688   9.382  0.6097 -0.0647 -0.4183
    4SAPS  H16S  470   0.502   1.609   9.436 -0.9938  0.6952  1.3702
    4SAPS  C217  471   0.331   1.484   9.426 -0.1996 -0.2668  0.0276
    4SAPS  H17R  472   0.371   1.381   9.418  1.0144  0.3402 -3.6366
    4SAPS  H17S  473   0.246   1.482   9.355 -0.3213  3.1307 -0.0904
    4SAPS  C218  474   0.299   1.508   9.578 -0.0825  0.8490 -0.7648
    4SAPS  H18R  475   0.258   1.608   9.601  0.3162  0.8799 -0.1522
    4SAPS  H18S  476   0.395   1.504   9.634 -0.0836  1.1621 -0.7402
    4SAPS  C219  477   0.199   1.407   9.641 -0.1502  0.1126  0.0075
    4SAPS  H19R  478   0.198   1.429   9.750 -2.2796  2.2108 -0.3457
    4SAPS  H19S  479   0.234   1.304   9.618 -2.4647 -0.7859  0.2037
    4SAPS  C220  480   0.063   1.398   9.567  0.3520  0.2088  0.6241
    4SAPS  H20R  481   0.076   1.361   9.463  1.5570  2.2456 -0.0075
    4SAPS  H20S  482   0.024   1.501   9.556  1.0697  0.2999 -1.7693
    4SAPS  H20T  483  -0.018   1.333   9.608  0.1794  0.5065  0.7568
    4SAPS   C33  484   0.364   1.985   9.627 -0.0824  0.2338 -0.8339
    4SAPS   H3X  485   0.469   1.964   9.598  0.6731  2.6854 -0.1262
    4SAPS   H3Y  486   0.372   2.093   9.652  1.6391  0.3018 -1.5428
    4SAPS   C34  487   0.267   1.964   9.515 -0.0832 -0.0571 -0.3383
    4SAPS   H4X  488   0.163   1.999   9.533 -1.5413 -2.7434 -2.7585
    4SAPS   H4Y  489   0.251   1.855   9.506  1.8081 -0.4370  0.5260
    4SAPS   C35  490   0.323   2.005   9.380 -0.0505 -1.5477 -0.2461
    4SAPS   H5X  491   0.431   1.983   9.365  0.0230 -1.3937  0.0608
    4SAPS   H5Y  492   0.318   2.116   9.371  0.4929 -1.4036  1.0157
    4SAPS   C36  493   0.247   1.946   9.259 -0.0126  0.0071 -0.1296
    4SAPS   H6X  494   0.138   1.933   9.275 -0.2165  1.9966  0.3704
    4SAPS   H6Y  495   0.280   1.841   9.247  1.2293 -0.1616  3.5104
    4SAPS   C37  496   0.281   2.027   9.130  0.0275  0.4123  0.3830
    4SAPS   H7X  497   0.389   2.018   9.108 -0.1787  0.3374 -0.6288
    4SAPS   H7Y  498   0.251   2.132   9.146  1.1607  0.4122  3.2051
    4SAPS   C38  499   0.205   1.971   9.003 -0.2310  0.2849  0.0158
    4SAPS   H8X  500   0.231   2.037   8.918  2.1513  0.8370  1.0766
    4SAPS   H8Y  501   0.098   1.973   9.033  0.4025  2.0715  2.5798
    4SAPS   C39  502   0.242   1.828   8.961 -0.1144  0.5556  0.6394
    4SAPS   H9X  503   0.149   1.785   8.918  0.9004  0.7611 -1.9563
    4SAPS   H9Y  504   0.272   1.775   9.054 -1.9177 -0.4001  0.7219
    4SAPS  C310  505   0.347   1.833   8.854 -0.6174 -0.4503 -0.1860
    4SAPS  H10X  506   0.415   1.919   8.868  1.8770 -2.4120  0.3600
    4SAPS  H10Y  507   0.280   1.856   8.768 -3.2086 -1.1645  1.5105
    4SAPS  C311  508   0.451   1.719   8.834  0.1025  0.2058 -0.4553
    4SAPS  H11X  509   0.399   1.624   8.809  3.0901 -1.5019 -0.6132
    4SAPS  H11Y  510   0.497   1.693   8.932  1.7246  1.5873 -0.8073
    4SAPS  C312  511   0.548   1.745   8.724 -0.1540  0.1193  0.4142
    4SAPS  H12X  512   0.601   1.839   8.752 -1.4645  2.0383 -2.8821
    4SAPS  H12Y  513   0.498   1.774   8.629  0.4449  0.0048  0.0605
    4SAPS  C313  514   0.646   1.629   8.694 -0.1207 -0.7654 -0.0521
    4SAPS  H13X  515   0.696   1.659   8.600 -0.0466 -2.1015 -0.4508
    4SAPS  H13Y  516   0.584   1.540   8.673 -1.8131  0.0937  1.0216
    4SAPS  C314  517   0.745   1.616   8.802 -0.1431 -0.2232 -0.3881
    4SAPS  H14X  518   0.686   1.585   8.891 -1.3450 -0.1766 -1.1468
    4SAPS  H14Y  519   0.778   1.720   8.825  0.7182 -0.2946 -1.2365
    4SAPS  C315  520   0.863   1.522   8.771  0.5419  0.1086 -0.1133
    4SAPS  H15X  521   0.911   1.505   8.870  0.5491  1.3297  0.1086
    4SAPS  H15Y  522   0.935   1.569   8.701 -1.8978  2.5389 -1.1520
    4SAPS  C316  523   0.824   1.381   8.719  0.5329  0.4539 -0.2632
    4SAPS  H16X  524   0.917   1.321   8.721 -0.3223 -0.9177  0.0657
    4SAPS  H16Y  525   0.794   1.389   8.612  2.2692 -2.1894 -1.0479
    4SAPS  C317  526   0.713   1.308   8.802 -0.1549 -0.3831 -0.5630
    4SAPS  H17X  527   0.625   1.373   8.823  1.6719  2.3855 -0.8857
    4SAPS  H17Y  528   0.745   1.287   8.906 -3.4444  2.2462  1.1828
    4SAPS  C318  529   0.686   1.177   8.739  0.1305  1.0291  0.5636
    4SAPS  H18X  530   0.771   1.105   8.736 -1.1968 -0.6312  1.3420
    4SAPS  H18Y  531   0.670   1.191   8.630  0.9178  0.4586  0.3683
    4SAPS  H18Z  532   0.589   1.136   8.773 -0.1700  2.1412  1.0930
    5SAPS     N  533   5.556   2.391  10.821 -0.2719  0.7291  0.2832
    5SAPS   HN1  534   5.546   2.465  10.748 -0.6819  1.7780  1.3591
    5SAPS   HN2  535   5.565   2.295  10.783  0.8418  0.8797  0.1530
    5SAPS   HN3  536   5.465   2.402  10.871  0.0313  1.8656  0.6206
    5SAPS   C12  537   5.680   2.413  10.905 -0.1561 -0.2306 -0.0994
    5SAPS  H12A  538   5.666   2.506  10.958 -0.8787  0.0137 -0.6981
    5SAPS   C13  539   5.685   2.310  11.017 -0.6788 -0.2255 -0.3101
    5SAPS  O13A  540   5.586   2.238  11.040 -0.0981  0.2057 -0.0885
    5SAPS  O13B  541   5.774   2.322  11.104 -0.5039 -0.8244  0.6192
    5SAPS   C11  542   5.804   2.421  10.811 -0.6106  0.0500 -0.0130
    5SAPS  H11A  543   5.811   2.327  10.752 -3.1874  0.0029 -0.3543
    5SAPS  H11B  544   5.895   2.428  10.874  0.5110 -0.6472 -1.4790
    5SAPS     P  545   5.895   2.653  10.726 -0.3193 -0.0257 -0.2667
    5SAPS   O13  546   5.978   2.650  10.852  0.4529  0.2288  0.5386
    5SAPS   O14  547   5.974   2.646  10.599  0.5066  0.2117  0.1092
    5SAPS   O12  548   5.794   2.537  10.730  0.7527 -0.4388  0.5808
    5SAPS   O11  549   5.810   2.783  10.730  0.1984 -0.4376  0.2307
    5SAPS    C1  550   5.673   2.779  10.723  0.1621 -0.3526 -0.1865
    5SAPS    HA  551   5.626   2.697  10.782  0.9546 -1.6449 -1.2901
    5SAPS    HB  552   5.632   2.869  10.773  1.5553  0.7156 -0.8870
    5SAPS    C2  553   5.618   2.797  10.581 -0.6629 -0.2371  0.2997
    5SAPS    HS  554   5.508   2.790  10.596 -0.4702 -3.5566  0.9314
    5SAPS   O21  555   5.668   2.694  10.496  0.3582 -0.5639 -0.2873
    5SAPS   C21  556   5.616   2.574  10.507  0.5937  0.1014  0.4215
    5SAPS   O22  557   5.541   2.539  10.593 -0.4555  0.2782  0.1315
    5SAPS   C22  558   5.669   2.479  10.392  0.0096 -0.0740 -0.1403
    5SAPS   H2R  559   5.593   2.499  10.312 -1.8571  1.1620  1.8217
    5SAPS   H2S  560   5.768   2.516  10.357 -0.9594  0.3582 -2.7013
    5SAPS    C3  561   5.659   2.933  10.524  0.3936 -0.4730 -0.6787
    5SAPS    HX  562   5.769   2.931  10.511  0.3619 -2.0456 -0.9672
    5SAPS    HY  563   5.638   3.020  10.590  0.9277  0.0470 -1.1844
    5SAPS   O31  564   5.583   2.963  10.404 -0.1817  0.0480  0.1824
    5SAPS   C31  565   5.647   2.937  10.284  0.0657  0.6213  0.3583
    5SAPS   O32  566   5.755   2.886  10.270 -0.2760 -0.2871  0.2759
    5SAPS   C32  567   5.548   2.992  10.177 -0.5693 -0.1974 -0.8395
    5SAPS   H2X  568   5.560   3.102  10.182  0.3134 -0.2414 -1.7262
    5SAPS   H2Y  569   5.449   2.946  10.197  0.7525 -3.8940 -1.9302
    5SAPS   C23  570   5.661   2.333  10.440  0.2851  0.0884  0.7600
    5SAPS   H3R  571   5.564   2.322  10.494  1.3615  0.9736  2.9639
    5SAPS   H3S  572   5.736   2.317  10.520  0.9539  1.2460  0.3907
    5SAPS   C24  573   5.684   2.238  10.325  0.1738  0.5881  0.1232
    5SAPS   H4R  574   5.786   2.240  10.281 -0.2454 -0.9397 -0.9967
    5SAPS   H4S  575   5.615   2.263  10.241  1.6011  0.1847 -1.2051
    5SAPS   C25  576   5.657   2.092  10.362  0.3392 -0.4428 -0.4778
    5SAPS   H5R  577   5.716   2.058  10.448  1.9895  1.1750 -0.8912
    5SAPS   C26  578   5.591   2.012  10.280 -0.6048  0.4779 -0.1528
    5SAPS   H6R  579   5.574   1.906  10.306 -2.5737  0.7035 -0.3772
    5SAPS   C27  580   5.517   2.043  10.156  0.5119  0.8988 -0.2596
    5SAPS   H7R  581   5.551   2.140  10.113  2.3477  0.2841 -0.2589
    5SAPS   H7S  582   5.409   2.054  10.183 -0.4149 -1.3112 -2.7034
    5SAPS   C28  583   5.544   1.929  10.055  0.5653 -0.1855  0.6491
    5SAPS   H8R  584   5.495   1.832  10.075  1.0233 -0.5329  0.1282
    5SAPS   C29  585   5.603   1.930   9.937  0.3734 -0.7425  0.1704
    5SAPS   H9R  586   5.618   1.836   9.882  2.2980 -0.8891  0.8597
    5SAPS  C210  587   5.671   2.050   9.878  0.3845 -0.4341 -0.0704
    5SAPS  H10R  588   5.772   2.012   9.853  1.6112  1.2358  2.0611
    5SAPS  H10S  589   5.674   2.132   9.952 -1.6216 -0.8288  0.5252
    5SAPS  C211  590   5.602   2.095   9.761 -0.0533 -0.0272  0.1305
    5SAPS  H11R  591   5.494   2.103   9.780 -0.1377 -2.5719  1.0858
    5SAPS  C212  592   5.648   2.118   9.637  0.2371 -0.4305 -0.8688
    5SAPS  H12R  593   5.566   2.123   9.564  0.8079  0.9013 -1.4637
    5SAPS  C213  594   5.790   2.098   9.587  0.3138  0.1556  0.1460
    5SAPS  H13R  595   5.860   2.124   9.669 -1.0351  1.5025  0.9155
    5SAPS  H13S  596   5.806   2.169   9.503  1.8799 -0.6472 -0.2800
    5SAPS  C214  597   5.829   1.953   9.550 -1.0563 -0.3701 -0.4525
    5SAPS  H14R  598   5.856   1.893   9.639  1.4062 -0.8222 -1.4180
    5SAPS  C215  599   5.864   1.906   9.434 -0.1953  0.3842 -0.1338
    5SAPS  H15R  600   5.875   1.797   9.430  0.1664  0.4140  0.0506
    5SAPS  C216  601   5.863   1.972   9.295  0.0868 -0.0409 -0.2003
    5SAPS  H16R  602   5.961   1.941   9.254  1.3550  1.4490  1.5139
    5SAPS  H16S  603   5.862   2.083   9.293  0.5199  0.1406  3.1505
    5SAPS  C217  604   5.761   1.908   9.209  0.3964  0.7309  0.8241
    5SAPS  H17R  605   5.754   1.798   9.215  2.5476  0.4445 -0.7353
    5SAPS  H17S  606   5.790   1.931   9.104  0.8401 -0.0706  0.7657
    5SAPS  C218  607   5.622   1.961   9.242  0.0804  0.3825  0.0964
    5SAPS  H18R  608   5.599   1.929   9.346  0.6034  0.4621  0.2362
    5SAPS  H18S  609   5.631   2.072   9.242  1.3644  0.2894 -0.6397
    5SAPS  C219  610   5.506   1.912   9.154 -0.0889  0.1544 -0.0382
    5SAPS  H19R  611   5.405   1.919   9.200  0.6897 -2.5858  2.3617
    5SAPS  H19S  612   5.528   1.804   9.150  0.0312  0.1025  1.3683
    5SAPS  C220  613   5.513   1.969   9.007 -0.4414  0.1461  0.0589
    5SAPS  H20R  614   5.543   2.075   9.022  0.1958  0.0850 -0.7376
    5SAPS  H20S  615   5.413   1.956   8.959 -1.4442  0.1294  2.0471
    5SAPS  H20T  616   5.595   1.918   8.952 -0.2272  0.9938 -0.4287
    5SAPS   C33  617   5.592   2.957  10.037 -0.0871  0.5446 -0.3812
    5SAPS   H3X  618   5.581   2.846  10.029 -0.5409  0.4338  1.4906
    5SAPS   H3Y  619   5.698   2.985  10.015 -0.5566  0.7759 -2.5785
    5SAPS   C34  620   5.519   3.030   9.925 -0.6439 -0.6515 -0.3672
    5SAPS   H4X  621   5.541   3.139   9.926 -1.1279 -0.4753  2.7000
    5SAPS   H4Y  622   5.413   3.021   9.956  0.0102  1.5153  3.0515
    5SAPS   C35  623   5.524   2.966   9.790 -0.1638  0.6395  0.4451
    5SAPS   H5X  624   5.494   2.859   9.800  1.8304 -0.2744 -2.2456
    5SAPS   H5Y  625   5.628   2.971   9.753 -0.0635  1.7154  0.8309
    5SAPS   C36  626   5.433   3.034   9.680  0.2082 -0.3816  0.3488
    5SAPS   H6X  627   5.462   3.140   9.691  1.3114 -0.6523  0.2129
    5SAPS   H6Y  628   5.327   3.020   9.707 -0.6105  0.5853 -2.1042
    5SAPS   C37  629   5.445   2.989   9.530 -0.3040  0.2122 -0.0387
    5SAPS   H7X  630   5.396   2.890   9.521  0.8114 -0.4539  0.9525
    5SAPS   H7Y  631   5.553   2.970   9.512 -0.2842  1.6266 -1.7646
    5SAPS   C38  632   5.400   3.111   9.449 -0.8724 -0.5197  1.1399
    5SAPS   H8X  633   5.457   3.200   9.481 -2.2679  0.2147  1.6632
    5SAPS   H8Y  634   5.292   3.118   9.476 -0.8930  0.5899  0.8328
    5SAPS   C39  635   5.413   3.091   9.299  0.2498 -0.1162  0.9311
    5SAPS   H9X  636   5.348   3.008   9.263  0.6519  0.0177 -0.1411
    5SAPS   H9Y  637   5.516   3.068   9.264  0.9753  1.1913  2.0992
    5SAPS  C310  638   5.381   3.227   9.233  0.0124  0.1398  0.2989
    5SAPS  H10X  639   5.298   3.276   9.289 -0.1574 -0.6175  0.7303
    5SAPS  H10Y  640   5.349   3.209   9.128 -1.3312  3.4063  0.0478
    5SAPS  C311  641   5.500   3.322   9.205 -0.3834  0.7500 -0.7320
    5SAPS  H11X  642   5.557   3.277   9.121 -1.9849 -0.8790 -1.0073
    5SAPS  H11Y  643   5.568   3.328   9.292 -1.1976  0.0632 -0.0358
    5SAPS  C312  644   5.459   3.465   9.163  0.3618 -0.4418 -0.0062
    5SAPS  H12X  645   5.550   3.529   9.165  0.7876 -1.0205  2.2710
    5SAPS  H12Y  646   5.401   3.515   9.243  0.3016  0.7018 -0.7466
    5SAPS  C313  647   5.371   3.452   9.043 -0.0365  0.1458  0.7428
    5SAPS  H13X  648   5.266   3.425   9.070 -0.4706 -0.5435 -1.4798
    5SAPS  H13Y  649   5.394   3.364   8.980  1.9268  0.9077  0.3300
    5SAPS  C314  650   5.371   3.568   8.941 -0.4259  0.8361  0.0484
    5SAPS  H14X  651   5.307   3.543   8.853  0.3796  1.5108 -0.7413
    5SAPS  H14Y  652   5.477   3.562   8.909  0.1761 -1.1370  2.1374
    5SAPS  C315  653   5.349   3.704   8.999  0.5012 -0.8282  0.3257
    5SAPS  H15X  654   5.448   3.730   9.043  0.9471 -0.1016 -1.0443
    5SAPS  H15Y  655   5.278   3.689   9.083  0.4012 -1.8350  0.0687
    5SAPS  C316  656   5.311   3.814   8.902  0.4009  0.5209 -0.1788
    5SAPS  H16X  657   5.211   3.785   8.861  0.8113 -2.0213  0.4420
    5SAPS  H16Y  658   5.387   3.814   8.821 -1.0546  0.5377 -1.6215
    5SAPS  C317  659   5.289   3.946   8.979 -0.6409  0.7699 -0.5354
    5SAPS  H17X  660   5.380   3.961   9.041 -0.7327  0.3021 -0.2844
    5SAPS  H17Y  661   5.203   3.947   9.049  0.1567 -0.7329  0.5289
    5SAPS  C318  662   5.277   4.071   8.887 -0.5120  0.4049 -0.5761
    5SAPS  H18X  663   5.186   4.050   8.828 -0.8724  0.1269  0.0702
    5SAPS  H18Y  664   5.363   4.070   8.816  0.2980 -0.6142  0.3819
    5SAPS  H18Z  665   5.254   4.167   8.939 -0.5667  0.1802 -0.1836
    6SAPS     N  666   4.002   4.625  11.059  0.8172  0.1898 -0.0335
    6SAPS   HN1  667   3.907   4.607  11.020  1.0127  0.9049 -0.8807
    6SAPS   HN2  668   4.052   4.535  11.048 -1.2594 -1.4342  2.4446
    6SAPS   HN3  669   4.001   4.657  11.158 -2.9990  0.5032  0.0012
    6SAPS   C12  670   4.066   4.734  10.977 -0.2219  0.3614  0.7959
    6SAPS  H12A  671   4.003   4.821  10.987 -1.4762 -0.6608  2.3973
    6SAPS   C13  672   4.213   4.777  11.008 -0.3026  0.8103  0.1709
    6SAPS  O13A  673   4.284   4.708  11.088 -0.0765 -0.2529 -0.4394
    6SAPS  O13B  674   4.274   4.860  10.931  0.6215 -0.2707 -0.6018
    6SAPS   C11  675   4.059   4.683  10.821  0.7095 -0.8935  0.3092
    6SAPS  H11A  676   4.131   4.602  10.798  2.3692  0.6028  0.0469
    6SAPS  H11B  677   4.092   4.772  10.763  0.8662 -1.2247 -0.1102
    6SAPS     P  678   3.821   4.748  10.714 -0.0037 -0.1015  0.1197
    6SAPS   O13  679   3.726   4.677  10.629 -0.2231 -0.1136  0.3717
    6SAPS   O14  680   3.758   4.826  10.822  0.4117  0.1856  0.1719
    6SAPS   O12  681   3.930   4.637  10.774 -0.4539 -0.4124  0.2841
    6SAPS   O11  682   3.908   4.843  10.620 -0.1822  0.2375  0.5186
    6SAPS    C1  683   3.978   4.780  10.511  0.6526 -0.1903  1.2384
    6SAPS    HA  684   4.072   4.837  10.495  1.8271 -2.0121  1.4342
    6SAPS    HB  685   4.005   4.673  10.523 -1.7818 -1.1876 -1.2082
    6SAPS    C2  686   3.895   4.807  10.382 -0.2085  0.8076 -0.1963
    6SAPS    HS  687   3.808   4.738  10.389  1.2610 -1.0664  0.4846
    6SAPS   O21  688   3.975   4.768  10.262  0.0492 -0.7509 -0.1460
    6SAPS   C21  689   3.997   4.643  10.243 -0.4211  0.1573  0.0206
    6SAPS   O22  690   3.959   4.550  10.313  0.3851  0.0447  0.0875
    6SAPS   C22  691   4.110   4.625  10.149 -1.0823 -0.1715  0.3505
    6SAPS   H2R  692   4.158   4.720  10.115  1.1898 -0.7705  1.6632
    6SAPS   H2S  693   4.185   4.570  10.210  1.4310  1.2029 -1.3378
    6SAPS    C3  694   3.854   4.960  10.361 -0.2930  0.0887 -0.1475
    6SAPS    HX  695   3.944   5.004  10.312 -1.5033  2.4140 -0.3878
    6SAPS    HY  696   3.835   4.997  10.463  0.0058 -1.8979  0.6813
    6SAPS   O31  697   3.745   4.970  10.274 -0.0459  0.1533 -0.0163
    6SAPS   C31  698   3.696   5.096  10.270  0.0131  0.3418 -0.0144
    6SAPS   O32  699   3.743   5.193  10.325 -0.3325  0.4328 -0.0937
    6SAPS   C32  700   3.572   5.098  10.180 -0.1563  0.9873  0.4201
    6SAPS   H2X  701   3.499   5.046  10.245  1.0828  0.2057  1.2059
    6SAPS   H2Y  702   3.577   5.039  10.085 -0.2595 -0.2102  1.1398
    6SAPS   C23  703   4.067   4.544  10.023  0.1882 -0.1293 -0.6437
    6SAPS   H3R  704   3.993   4.602   9.963 -1.4787 -0.7311  0.7949
    6SAPS   H3S  705   4.021   4.446  10.047 -0.9119  0.7736  1.1275
    6SAPS   C24  706   4.190   4.539   9.927 -0.2784 -0.0865 -0.3125
    6SAPS   H4R  707   4.216   4.644   9.901  0.1808  0.3524  1.7307
    6SAPS   H4S  708   4.161   4.489   9.832 -0.5348 -0.0483 -0.2542
    6SAPS   C25  709   4.327   4.473   9.972  0.4977 -0.7935 -0.4125
    6SAPS   H5R  710   4.339   4.456  10.080 -0.0344 -1.7920 -0.4984
    6SAPS   C26  711   4.423   4.439   9.883  0.1087 -0.7692  0.1269
    6SAPS   H6R  712   4.524   4.414   9.921  0.6287 -1.3852 -1.5459
    6SAPS   C27  713   4.431   4.458   9.736  0.0774  0.0970  0.4144
    6SAPS   H7R  714   4.378   4.552   9.712  2.2941  0.5348 -3.4921
    6SAPS   H7S  715   4.373   4.381   9.681  1.7820 -0.8270 -0.1612
    6SAPS   C28  716   4.569   4.458   9.678 -0.3907  0.1858  0.2028
    6SAPS   H8R  717   4.655   4.439   9.744 -0.1483 -0.3995 -0.2690
    6SAPS   C29  718   4.594   4.460   9.544  0.7453 -0.4400 -0.7351
    6SAPS   H9R  719   4.697   4.473   9.508 -0.2864  2.8449 -2.9674
    6SAPS  C210  720   4.495   4.473   9.428 -0.3648 -0.5655 -0.4691
    6SAPS  H10R  721   4.509   4.577   9.391 -2.5458 -0.2198 -0.4270
    6SAPS  H10S  722   4.389   4.464   9.458 -0.0487  0.6988  1.2358
    6SAPS  C211  723   4.515   4.361   9.327 -0.3902 -0.2524  0.2635
    6SAPS  H11R  724   4.468   4.267   9.358 -2.5836  0.8442  0.4260
    6SAPS  C212  725   4.558   4.367   9.203 -0.4991 -0.2970  0.4988
    6SAPS  H12R  726   4.590   4.277   9.148 -0.2200  0.0976  0.0049
    6SAPS  C213  727   4.614   4.493   9.138 -0.2025 -0.4713 -0.7212
    6SAPS  H13R  728   4.705   4.511   9.198  0.2617 -0.4846 -1.4135
    6SAPS  H13S  729   4.548   4.582   9.149  0.8400 -0.0059  3.8849
    6SAPS  C214  730   4.642   4.472   8.985  0.4510  0.5276  0.3092
    6SAPS  H14R  731   4.739   4.434   8.950 -0.8144 -0.7803 -1.9966
    6SAPS  C215  732   4.542   4.484   8.898 -0.1617  0.5001  0.2417
    6SAPS  H15R  733   4.558   4.458   8.793  0.6742 -2.9756  1.0703
    6SAPS  C216  734   4.396   4.513   8.931  0.0436  0.5612 -0.4194
    6SAPS  H16R  735   4.374   4.620   8.908  1.3707  0.7959 -0.6576
    6SAPS  H16S  736   4.371   4.506   9.039 -1.0956  2.1116 -0.5410
    6SAPS  C217  737   4.296   4.414   8.858  0.5606  0.1591 -0.3379
    6SAPS  H17R  738   4.190   4.420   8.890  0.7381 -0.2353  0.3601
    6SAPS  H17S  739   4.341   4.313   8.873 -0.1038 -0.1251 -0.2302
    6SAPS  C218  740   4.288   4.449   8.716  0.1080 -0.5341  0.4965
    6SAPS  H18R  741   4.382   4.418   8.666  0.2551  0.4602  0.1506
    6SAPS  H18S  742   4.289   4.559   8.703  1.4577 -0.7577 -1.8944
    6SAPS  C219  743   4.170   4.386   8.636  0.4068 -0.4069  0.1909
    6SAPS  H19R  744   4.190   4.277   8.632  2.4345 -0.0587 -0.4464
    6SAPS  H19S  745   4.179   4.409   8.528 -0.2023 -2.1255 -0.2481
    6SAPS  C220  746   4.026   4.416   8.688 -0.4355 -0.8529 -0.0455
    6SAPS  H20R  747   3.942   4.377   8.626 -0.5252  0.5044 -0.7919
    6SAPS  H20S  748   4.020   4.526   8.679  1.8200 -0.3920  2.6216
    6SAPS  H20T  749   4.007   4.387   8.794  0.2688 -0.5113  0.1789
    6SAPS   C33  750   3.513   5.234  10.144  0.4317 -0.7613  0.9578
    6SAPS   H3X  751   3.508   5.299  10.235 -0.0383 -0.3359  0.6337
    6SAPS   H3Y  752   3.408   5.224  10.111  0.4319  1.1036  0.2684
    6SAPS   C34  753   3.589   5.305  10.033 -0.5523  0.2560 -0.4696
    6SAPS   H4X  754   3.699   5.294  10.044 -0.5194  1.8134  1.4452
    6SAPS   H4Y  755   3.575   5.415  10.046 -0.3159  0.3109 -0.6814
    6SAPS   C35  756   3.550   5.278   9.885  0.4593 -0.1720  0.0160
    6SAPS   H5X  757   3.441   5.286   9.865  0.7123  1.7359 -0.8166
    6SAPS   H5Y  758   3.573   5.173   9.856 -1.2537 -0.9036  1.1151
    6SAPS   C36  759   3.613   5.367   9.781  0.4335  0.4657  0.9857
    6SAPS   H6X  760   3.724   5.356   9.786  0.4285 -0.6371 -0.6260
    6SAPS   H6Y  761   3.594   5.474   9.802  1.1045  0.6964  0.4672
    6SAPS   C37  762   3.577   5.334   9.639  0.1510 -0.4872 -0.2111
    6SAPS   H7X  763   3.466   5.328   9.642  0.2200 -1.9855 -0.0244
    6SAPS   H7Y  764   3.612   5.237   9.599 -0.5246 -1.0537  0.5211
    6SAPS   C38  765   3.627   5.440   9.535  0.4781  0.0577 -0.0168
    6SAPS   H8X  766   3.735   5.421   9.517  0.1780 -0.3799 -1.4918
    6SAPS   H8Y  767   3.622   5.546   9.566  3.5670  0.3305 -0.1170
    6SAPS   C39  768   3.553   5.425   9.402 -0.3425  0.0270  0.8012
    6SAPS   H9X  769   3.450   5.466   9.411 -0.5133 -0.5303  1.5187
    6SAPS   H9Y  770   3.554   5.318   9.374  3.4890  0.0943  0.2126
    6SAPS  C310  771   3.626   5.502   9.283  0.4724  0.0303 -0.1983
    6SAPS  H10X  772   3.683   5.588   9.323 -0.4338  0.8563 -0.6415
    6SAPS  H10Y  773   3.539   5.553   9.236  0.1823  0.6146  0.9290
    6SAPS  C311  774   3.692   5.415   9.174 -0.2468  0.2688 -0.2836
    6SAPS  H11X  775   3.620   5.331   9.169 -2.4687  1.9297  1.6172
    6SAPS  H11Y  776   3.790   5.387   9.218 -1.5201 -0.7947  2.0205
    6SAPS  C312  777   3.718   5.485   9.042  0.4063  0.6318 -0.0703
    6SAPS  H12X  778   3.631   5.543   9.004  1.0442  1.1344 -0.7937
    6SAPS  H12Y  779   3.744   5.405   8.969 -0.9483 -2.6389  2.7610
    6SAPS  C313  780   3.846   5.574   9.043  0.1774  0.4749  0.1403
    6SAPS  H13X  781   3.932   5.514   9.077  1.2431  1.8204 -0.1054
    6SAPS  H13Y  782   3.839   5.668   9.102 -2.0647 -0.4486  1.4825
    6SAPS  C314  783   3.871   5.626   8.901 -0.6292 -0.0648  1.1036
    6SAPS  H14X  784   3.782   5.679   8.863 -0.8043 -1.3900 -0.4699
    6SAPS  H14Y  785   3.880   5.537   8.835 -4.3139  0.0003  0.3117
    6SAPS  C315  786   3.996   5.718   8.881 -0.5089 -0.2859  0.8881
    6SAPS  H15X  787   4.087   5.674   8.927  0.3637  1.3604  0.7873
    6SAPS  H15Y  788   3.966   5.816   8.922 -2.4596 -0.3920 -0.1330
    6SAPS  C316  789   4.020   5.745   8.735  0.5195  0.1243 -0.3130
    6SAPS  H16X  790   3.936   5.796   8.683  0.3583 -2.0879 -2.3982
    6SAPS  H16Y  791   4.039   5.650   8.682 -0.1358 -1.6374  2.3976
    6SAPS  C317  792   4.150   5.825   8.706  0.1114  0.3010 -0.4390
    6SAPS  H17X  793   4.235   5.776   8.759 -2.7014 -1.1421  3.1151
    6SAPS  H17Y  794   4.147   5.925   8.755 -2.3497  0.3475 -0.5646
    6SAPS  C318  795   4.182   5.852   8.555  0.3627  0.4339 -0.6025
    6SAPS  H18X  796   4.112   5.920   8.502  1.1885  2.3554  0.7051
    6SAPS  H18Y  797   4.174   5.752   8.506 -0.3015  0.1850 -0.0011
    6SAPS  H18Z  798   4.286   5.886   8.537  0.4696 -0.1256 -1.0883
    7SAPS     N  799   6.795   5.956  10.488  0.1903 -0.2272 -0.1391
    7SAPS   HN1  800   6.824   5.868  10.535  0.8849  0.5345  0.9192
    7SAPS   HN2  801   6.820   5.947  10.388 -0.0255  1.1054 -0.3355
    7SAPS   HN3  802   6.853   6.036  10.522 -0.0463 -0.0211 -0.2148
    7SAPS   C12  803   6.650   5.984  10.497 -0.4718  0.2855 -0.2545
    7SAPS  H12A  804   6.591   5.908  10.448 -0.7285  0.3446 -0.0382
    7SAPS   C13  805   6.595   5.975  10.650 -0.9868  0.0845  0.8825
    7SAPS  O13A  806   6.677   5.931  10.742 -0.3908 -0.2675  0.0094
    7SAPS  O13B  807   6.485   6.020  10.684  0.1980  0.2861  0.0844
    7SAPS   C11  808   6.620   6.118  10.445 -0.5157 -0.3671  0.4953
    7SAPS  H11A  809   6.672   6.192  10.510 -0.7116  2.0327 -1.9025
    7SAPS  H11B  810   6.515   6.143  10.472 -0.2712  2.8029 -1.0160
    7SAPS     P  811   6.562   6.068  10.191 -0.3672  0.0259 -0.4386
    7SAPS   O13  812   6.615   5.937  10.145  0.1498  0.0139  0.2076
    7SAPS   O14  813   6.425   6.068  10.241  0.0349  0.0239 -0.1182
    7SAPS   O12  814   6.660   6.129  10.307  0.4888  0.1070 -0.8168
    7SAPS   O11  815   6.591   6.175  10.079  0.3728 -0.5626  0.1645
    7SAPS    C1  816   6.606   6.119   9.949  0.1609 -0.4798  0.7512
    7SAPS    HA  817   6.699   6.058   9.941  2.4764  2.8230  0.6181
    7SAPS    HB  818   6.507   6.076   9.921 -0.6025  1.5864  0.1172
    7SAPS    C2  819   6.603   6.233   9.834 -0.0190 -0.4408 -0.6148
    7SAPS    HS  820   6.678   6.307   9.871 -1.4561  0.7866 -0.0519
    7SAPS   O21  821   6.476   6.283   9.809  0.5307  0.0178  0.2734
    7SAPS   C21  822   6.438   6.386   9.895  0.4315  0.3569 -0.0979
    7SAPS   O22  823   6.523   6.446   9.953  0.5255 -0.2706  0.2507
    7SAPS   C22  824   6.291   6.406   9.907 -0.8722 -0.5370 -0.2422
    7SAPS   H2R  825   6.232   6.315   9.884  1.1460 -2.6032  2.1457
    7SAPS   H2S  826   6.270   6.425  10.015 -0.9748 -0.8455 -0.2068
    7SAPS    C3  827   6.667   6.168   9.717  0.1938 -0.2480  0.3965
    7SAPS    HX  828   6.607   6.085   9.675  1.2397 -0.8526  0.0495
    7SAPS    HY  829   6.763   6.124   9.751  0.5005 -0.9563 -1.2974
    7SAPS   O31  830   6.700   6.274   9.625 -0.2490  0.0704 -0.7646
    7SAPS   C31  831   6.675   6.256   9.498 -0.0357 -0.0666 -0.4734
    7SAPS   O32  832   6.651   6.149   9.444 -0.1443  0.1469 -0.0131
    7SAPS   C32  833   6.702   6.386   9.429  0.3550 -0.4720  0.0916
    7SAPS   H2X  834   6.799   6.424   9.465 -0.3829  0.7330  0.8820
    7SAPS   H2Y  835   6.626   6.461   9.461  1.4579  0.0494  1.5609
    7SAPS   C23  836   6.242   6.522   9.811  0.0930 -0.0624  0.0570
    7SAPS   H3R  837   6.289   6.621   9.829 -1.3926  0.8229 -0.8035
    7SAPS   H3S  838   6.133   6.527   9.829 -0.4810  1.9400 -3.1529
    7SAPS   C24  839   6.249   6.493   9.663 -0.1809  0.0681  0.4336
    7SAPS   H4R  840   6.357   6.480   9.639  0.4016  2.0782  1.6865
    7SAPS   H4S  841   6.219   6.593   9.625  0.2994 -0.3509 -1.1157
    7SAPS   C25  842   6.156   6.399   9.595  0.1405  0.9177 -0.0209
    7SAPS   H5R  843   6.152   6.303   9.648  0.6052  0.6040 -0.5343
    7SAPS   C26  844   6.077   6.408   9.488  0.4710 -0.1512  0.1256
    7SAPS   H6R  845   6.019   6.320   9.456  0.8050 -0.5934  0.7222
    7SAPS   C27  846   6.059   6.527   9.395 -0.0451  1.2433 -0.5137
    7SAPS   H7R  847   6.149   6.541   9.331  1.5955  1.5645  1.7438
    7SAPS   H7S  848   6.057   6.625   9.447  0.5095  0.8482  0.2662
    7SAPS   C28  849   5.943   6.514   9.304  0.2558  0.1746  0.3111
    7SAPS   H8R  850   5.850   6.569   9.324 -2.7335 -3.6134 -1.7667
    7SAPS   C29  851   5.949   6.443   9.188 -0.0829  0.3437 -0.0358
    7SAPS   H9R  852   5.860   6.461   9.126  0.1668 -0.9050 -0.7690
    7SAPS  C210  853   6.062   6.369   9.120  0.1722 -0.1455 -0.2283
    7SAPS  H10R  854   6.017   6.281   9.071 -2.2160 -0.0352  1.5855
    7SAPS  H10S  855   6.141   6.340   9.193  1.7730  1.5458 -1.1897
    7SAPS  C211  856   6.137   6.466   9.029  0.2630  0.4904  0.1077
    7SAPS  H11R  857   6.199   6.545   9.075 -0.0809 -0.0616  1.5523
    7SAPS  C212  858   6.139   6.470   8.893  0.0095  0.1793 -0.0385
    7SAPS  H12R  859   6.202   6.553   8.857  1.8699 -0.9545  0.4105
    7SAPS  C213  860   6.074   6.375   8.793  0.2979 -0.6065 -0.7781
    7SAPS  H13R  861   6.140   6.286   8.799 -0.2137 -0.9850 -0.7360
    7SAPS  H13S  862   6.081   6.413   8.689 -0.5522 -2.3340 -1.4925
    7SAPS  C214  863   5.933   6.318   8.814  0.6717  0.8402 -0.0366
    7SAPS  H14R  864   5.876   6.351   8.902  0.5126 -0.5895  0.4361
    7SAPS  C215  865   5.864   6.248   8.725 -0.0126  0.2642  0.5049
    7SAPS  H15R  866   5.765   6.205   8.747  0.0013 -0.2432 -0.3740
    7SAPS  C216  867   5.924   6.203   8.592 -0.6982  0.1186  0.3508
    7SAPS  H16R  868   6.024   6.158   8.608 -0.7941 -0.0844  0.3766
    7SAPS  H16S  869   5.935   6.295   8.530 -0.6727 -0.3888 -0.4200
    7SAPS  C217  870   5.833   6.114   8.514  0.0182 -0.1116 -0.2505
    7SAPS  H17R  871   5.868   6.094   8.410  1.2795  3.5477 -0.6500
    7SAPS  H17S  872   5.728   6.147   8.499 -0.0973  0.2290  1.2264
    7SAPS  C218  873   5.828   5.971   8.578 -1.2262  0.3030  0.4939
    7SAPS  H18R  874   5.778   5.909   8.501  0.1162  1.1095 -1.0991
    7SAPS  H18S  875   5.750   5.972   8.657 -1.5835 -0.7965  0.1806
    7SAPS  C219  876   5.963   5.905   8.603  0.2036  0.8384  0.3435
    7SAPS  H19R  877   5.946   5.800   8.637  1.3550  0.5436  0.0598
    7SAPS  H19S  878   6.006   5.944   8.698  0.0840 -2.0629  1.7182
    7SAPS  C220  879   6.074   5.923   8.495 -1.2026  0.0470 -0.1903
    7SAPS  H20R  880   6.159   5.886   8.555  1.0284  1.3849 -2.3619
    7SAPS  H20S  881   6.088   6.032   8.480  0.7591 -0.2064 -0.3455
    7SAPS  H20T  882   6.055   5.859   8.406  2.6526  0.9452 -1.8393
    7SAPS   C33  883   6.710   6.378   9.278 -0.1390 -0.6835  0.2041
    7SAPS   H3X  884   6.731   6.277   9.238  2.8839  0.3248 -1.0591
    7SAPS   H3Y  885   6.793   6.444   9.245 -0.1678 -0.7118  0.0746
    7SAPS   C34  886   6.586   6.434   9.203 -0.2722  0.3184  0.3323
    7SAPS   H4X  887   6.600   6.451   9.094  0.6153 -1.1255  0.1969
    7SAPS   H4Y  888   6.581   6.530   9.259 -1.6075  0.9751 -0.8433
    7SAPS   C35  889   6.449   6.361   9.216  0.5948  0.3384 -0.3748
    7SAPS   H5X  890   6.368   6.434   9.238  0.9446 -0.1930  3.4085
    7SAPS   H5Y  891   6.454   6.290   9.301 -0.2848 -1.6782 -1.9388
    7SAPS   C36  892   6.424   6.273   9.088  0.0331  0.0835  0.8138
    7SAPS   H6X  893   6.431   6.342   9.001  0.5779 -2.2656 -1.0993
    7SAPS   H6Y  894   6.320   6.235   9.093  0.0403 -0.0593  0.0038
    7SAPS   C37  895   6.513   6.150   9.077 -0.2182 -0.9958 -0.5240
    7SAPS   H7X  896   6.523   6.082   9.165  4.4849 -2.3658 -1.8188
    7SAPS   H7Y  897   6.615   6.195   9.068 -0.6536 -0.1610 -1.5141
    7SAPS   C38  898   6.473   6.071   8.954  0.2681 -0.3101  0.0532
    7SAPS   H8X  899   6.476   6.146   8.873 -2.0301  1.9801  1.9416
    7SAPS   H8Y  900   6.373   6.023   8.945  0.5044 -0.5151 -2.1392
    7SAPS   C39  901   6.581   5.974   8.927  0.6791  0.9806 -0.3327
    7SAPS   H9X  902   6.566   5.889   8.998 -0.7397  1.8752  0.4995
    7SAPS   H9Y  903   6.684   6.013   8.937  0.9939  0.1676 -0.3180
    7SAPS  C310  904   6.568   5.904   8.787  0.7737  0.0569  0.3200
    7SAPS  H10X  905   6.469   5.853   8.783  2.6114 -3.8413  0.5442
    7SAPS  H10Y  906   6.640   5.820   8.778 -1.8903 -2.2260 -1.4623
    7SAPS  C311  907   6.584   6.006   8.673 -0.4455 -0.2527 -0.5347
    7SAPS  H11X  908   6.679   6.064   8.684 -0.0548 -1.3527  2.9165
    7SAPS  H11Y  909   6.492   6.068   8.670 -1.6455 -1.8739  0.9880
    7SAPS  C312  910   6.601   5.938   8.537  0.4672 -0.2766  0.0753
    7SAPS  H12X  911   6.510   5.873   8.536 -1.1429  1.8575  1.2453
    7SAPS  H12Y  912   6.694   5.879   8.522  0.0210 -0.8059 -0.7317
    7SAPS  C313  913   6.566   6.033   8.409  0.7096 -0.2448  0.2772
    7SAPS  H13X  914   6.653   6.102   8.409  2.3134 -2.1372  1.6280
    7SAPS  H13Y  915   6.474   6.090   8.434 -0.6791 -1.3260 -2.0639
    7SAPS  C314  916   6.539   5.977   8.270 -0.7075 -0.3426 -0.5881
    7SAPS  H14X  917   6.499   6.052   8.199  0.7690  0.2386 -0.8567
    7SAPS  H14Y  918   6.462   5.898   8.280 -3.0100  1.9729  1.1740
    7SAPS  C315  919   6.663   5.916   8.201  0.2557 -0.5311  0.4708
    7SAPS  H15X  920   6.703   5.844   8.276  1.7107 -0.1377  0.1123
    7SAPS  H15Y  921   6.730   6.001   8.178 -1.9151  0.9016 -0.8114
    7SAPS  C316  922   6.622   5.847   8.075  0.5724  0.1455 -0.4658
    7SAPS  H16X  923   6.604   5.929   8.002 -1.8845  0.1806  0.1073
    7SAPS  H16Y  924   6.529   5.787   8.087  0.1874  0.5345 -1.3886
    7SAPS  C317  925   6.722   5.732   8.023 -0.2222  0.1691  0.2201
    7SAPS  H17X  926   6.739   5.669   8.112 -1.1752  1.3371  1.2763
    7SAPS  H17Y  927   6.817   5.774   7.985 -0.0201 -1.7729 -1.5688
    7SAPS  C318  928   6.658   5.654   7.911  0.2544  0.0773 -0.3076
    7SAPS  H18X  929   6.736   5.603   7.851 -0.2508 -0.8906 -0.1655
    7SAPS  H18Y  930   6.609   5.731   7.848  0.8334  2.0141  1.5038
    7SAPS  H18Z  931   6.590   5.574   7.948  2.5906 -0.9469  2.1244
    8SAPS     N  932   4.308   1.083  11.349 -0.2245 -0.8753  0.0217
    8SAPS   HN1  933   4.238   1.159  11.355 -0.4949 -1.1828  1.1516
    8SAPS   HN2  934   4.367   1.089  11.435  0.4489  1.8908 -0.5428
    8SAPS   HN3  935   4.372   1.095  11.268 -0.8116  0.9078 -0.2126
    8SAPS   C12  936   4.230   0.960  11.329 -0.2106 -0.2155 -0.2592
    8SAPS  H12A  937   4.261   0.881  11.395 -0.1170  1.1978  1.4574
    8SAPS   C13  938   4.075   0.970  11.348 -0.2637  0.3918  0.8285
    8SAPS  O13A  939   4.025   1.081  11.389  0.2832 -0.2011 -0.0788
    8SAPS  O13B  940   4.005   0.866  11.346 -0.6204 -0.3886  0.1797
    8SAPS   C11  941   4.237   0.918  11.180  0.2042  0.4505 -0.6871
    8SAPS  H11A  942   4.176   0.985  11.116  0.0343  0.3609 -0.6204
    8SAPS  H11B  943   4.184   0.821  11.171 -0.7238  0.5876  2.1488
    8SAPS     P  944   4.428   0.995  11.016  0.1983 -0.0191  0.3207
    8SAPS   O13  945   4.447   1.118  11.099 -0.2840  0.3838 -0.0808
    8SAPS   O14  946   4.552   0.928  10.958 -0.2557 -0.3352 -0.1096
    8SAPS   O12  947   4.361   0.893  11.118  0.2028  0.1915  0.0591
    8SAPS   O11  948   4.313   1.025  10.914  0.1562  0.9526  0.1671
    8SAPS    C1  949   4.235   0.928  10.843  0.4587  0.5460  0.1206
    8SAPS    HA  950   4.239   0.831  10.897  1.1150  0.9263  0.7740
    8SAPS    HB  951   4.128   0.954  10.830  0.6963  1.0852 -0.8248
    8SAPS    C2  952   4.292   0.922  10.699  0.2249 -0.4251  0.6200
    8SAPS    HS  953   4.402   0.906  10.712  0.2146  0.1334  1.3901
    8SAPS   O21  954   4.265   1.047  10.634  0.4390 -0.5338 -0.1381
    8SAPS   C21  955   4.333   1.081  10.531 -0.3450  0.0944  0.3694
    8SAPS   O22  956   4.429   1.023  10.484 -0.5190  0.0681 -0.0290
    8SAPS   C22  957   4.272   1.205  10.476 -0.2498  0.1915 -0.4533
    8SAPS   H2R  958   4.195   1.239  10.549 -0.2715  1.0055 -0.8463
    8SAPS   H2S  959   4.348   1.285  10.487 -1.5792  1.5452 -0.7158
    8SAPS    C3  960   4.243   0.797  10.614  0.6375  0.1125 -0.2682
    8SAPS    HX  961   4.132   0.802  10.607  0.7386  0.4869 -1.9213
    8SAPS    HY  962   4.266   0.711  10.681  3.2130  1.0254  0.1486
    8SAPS   O31  963   4.303   0.786  10.485 -1.0154 -0.2300 -0.6532
    8SAPS   C31  964   4.255   0.687  10.407 -0.3331 -1.1242  0.4739
    8SAPS   O32  965   4.160   0.620  10.438 -0.1070  0.1666 -0.0515
    8SAPS   C32  966   4.329   0.698  10.269 -0.3546 -0.0527 -0.5603
    8SAPS   H2X  967   4.256   0.660  10.194 -0.1682  2.0676 -1.9040
    8SAPS   H2Y  968   4.416   0.629  10.270 -0.1773  0.1697 -0.5228
    8SAPS   C23  969   4.220   1.172  10.330  0.8426 -0.5467 -0.0391
    8SAPS   H3R  970   4.162   1.078  10.344  1.6123 -1.0243  0.0098
    8SAPS   H3S  971   4.294   1.147  10.252  2.5195 -1.0266  1.6269
    8SAPS   C24  972   4.118   1.285  10.286  0.2307  0.5020 -0.8866
    8SAPS   H4R  973   4.054   1.329  10.366 -1.5606 -0.3784 -1.7676
    8SAPS   H4S  974   4.042   1.242  10.217  1.4722 -2.1823 -0.7077
    8SAPS   C25  975   4.201   1.383  10.209  0.5372  1.0721 -0.2652
    8SAPS   H5R  976   4.253   1.456  10.273  0.4052  2.8148 -2.0433
    8SAPS   C26  977   4.196   1.393  10.068 -0.0105  0.1674  0.4922
    8SAPS   H6R  978   4.259   1.466  10.016 -0.3883  0.0019 -0.2094
    8SAPS   C27  979   4.121   1.308   9.971  0.4744  0.5664 -0.2961
    8SAPS   H7R  980   4.091   1.372   9.886 -1.0599  0.6698  0.2862
    8SAPS   H7S  981   4.024   1.276  10.015  0.7056  2.3575  1.7036
    8SAPS   C28  982   4.218   1.201   9.925  0.1851 -0.0780 -0.0890
    8SAPS   H8R  983   4.289   1.165  10.001  0.5598  1.2161  0.1980
    8SAPS   C29  984   4.211   1.140   9.804 -0.1997  0.4732 -0.8959
    8SAPS   H9R  985   4.288   1.065   9.781  1.0829  1.6487 -0.5735
    8SAPS  C210  986   4.116   1.172   9.698 -0.3270 -0.1590 -1.0188
    8SAPS  H10R  987   4.153   1.250   9.628 -0.0324  0.4730 -0.1736
    8SAPS  H10S  988   4.020   1.218   9.729  0.5637  1.4769 -0.5268
    8SAPS  C211  989   4.068   1.046   9.624  0.0104 -0.3761  0.7421
    8SAPS  H11R  990   3.973   1.011   9.666  0.1972  1.5419  2.9865
    8SAPS  C212  991   4.135   0.980   9.524 -0.0756  0.6095  0.1309
    8SAPS  H12R  992   4.090   0.894   9.472 -1.6497  1.5956 -0.2117
    8SAPS  C213  993   4.271   1.038   9.472 -0.1691  0.1327 -0.1403
    8SAPS  H13R  994   4.327   0.955   9.424  0.1438  0.5272 -0.4726
    8SAPS  H13S  995   4.338   1.071   9.553  2.8083 -0.1798 -2.3009
    8SAPS  C214  996   4.251   1.152   9.385 -1.2262 -0.3202  0.2759
    8SAPS  H14R  997   4.260   1.249   9.437 -1.3707 -0.8583  1.3220
    8SAPS  C215  998   4.232   1.151   9.249  0.9528 -0.1694 -0.1385
    8SAPS  H15R  999   4.223   1.240   9.186  1.7863  0.4715  0.6206
    8SAPS  C216 1000   4.221   1.018   9.175 -0.2467 -0.1345  0.5593
    8SAPS  H16R 1001   4.114   0.996   9.154 -0.0985 -0.2238 -0.1117
    8SAPS  H16S 1002   4.252   0.935   9.242  4.0102  0.0252 -0.9226
    8SAPS  C217 1003   4.317   1.004   9.061 -0.6373  0.5358 -0.0343
    8SAPS  H17R 1004   4.315   0.904   9.012  2.7251  0.9124 -1.2500
    8SAPS  H17S 1005   4.422   1.008   9.098 -0.9034  0.4503  0.7373
    8SAPS  C218 1006   4.303   1.115   8.950 -0.4346  0.5872  0.3391
    8SAPS  H18R 1007   4.338   1.214   8.988 -0.4722  0.8863 -0.3927
    8SAPS  H18S 1008   4.197   1.139   8.925 -0.6869  0.7697  1.5010
    8SAPS  C219 1009   4.372   1.081   8.821  0.1396 -0.0161 -0.6519
    8SAPS  H19R 1010   4.322   0.993   8.774  0.0643  0.1450 -0.8726
    8SAPS  H19S 1011   4.477   1.050   8.840  0.0822  0.8142  1.2320
    8SAPS  C220 1012   4.377   1.188   8.712  0.3145 -0.5086 -0.1493
    8SAPS  H20R 1013   4.416   1.286   8.747  0.6982 -1.2312  1.5556
    8SAPS  H20S 1014   4.281   1.196   8.657  0.4570  1.3349 -0.1969
    8SAPS  H20T 1015   4.462   1.173   8.642 -1.5332 -2.0612 -2.1915
    8SAPS   C33 1016   4.367   0.846  10.228 -0.4927 -0.0894 -0.4547
    8SAPS   H3X 1017   4.457   0.876  10.287 -0.6332 -1.1221  0.3137
    8SAPS   H3Y 1018   4.274   0.902  10.249 -1.9287 -2.5318  0.0432
    8SAPS   C34 1019   4.384   0.851  10.082 -0.2607  0.4418 -0.2713
    8SAPS   H4X 1020   4.386   0.955  10.043  0.5498 -0.2331 -2.1567
    8SAPS   H4Y 1021   4.298   0.797  10.037  1.3117 -1.4773 -1.0832
    8SAPS   C35 1022   4.507   0.780  10.036  0.4785 -0.7723  0.6703
    8SAPS   H5X 1023   4.512   0.673  10.064  1.1790 -0.4758  1.7207
    8SAPS   H5Y 1024   4.590   0.832  10.089  0.9764 -0.6987 -0.1642
    8SAPS   C36 1025   4.531   0.796   9.883  0.5905  0.2082 -0.1208
    8SAPS   H6X 1026   4.630   0.753   9.860  0.5617  0.5657 -0.9181
    8SAPS   H6Y 1027   4.538   0.904   9.861 -0.9878  0.4196  0.2691
    8SAPS   C37 1028   4.427   0.733   9.795 -0.1484  0.2463  0.0349
    8SAPS   H7X 1029   4.355   0.812   9.765  0.8832  1.3027  0.3055
    8SAPS   H7Y 1030   4.365   0.650   9.837 -2.6749  1.2072 -1.5343
    8SAPS   C38 1031   4.501   0.672   9.670  0.0529 -0.1728  0.0582
    8SAPS   H8X 1032   4.577   0.601   9.709 -0.2330 -0.0371  0.8896
    8SAPS   H8Y 1033   4.542   0.766   9.628 -2.3811  0.6551 -0.6135
    8SAPS   C39 1034   4.424   0.604   9.556  0.8849 -0.0586  0.2436
    8SAPS   H9X 1035   4.337   0.667   9.529  0.5398 -0.3148  0.7462
    8SAPS   H9Y 1036   4.395   0.500   9.583 -1.5836 -0.1332 -2.2925
    8SAPS  C310 1037   4.525   0.588   9.439  0.5007  0.1048 -0.1175
    8SAPS  H10X 1038   4.491   0.504   9.374 -1.1721  0.6836 -0.0461
    8SAPS  H10Y 1039   4.628   0.586   9.479  0.3555  0.9948  0.3143
    8SAPS  C311 1040   4.511   0.700   9.334 -0.8017 -0.1544 -0.3152
    8SAPS  H11X 1041   4.533   0.797   9.383 -1.0618  0.0838 -0.6694
    8SAPS  H11Y 1042   4.407   0.706   9.296 -0.1642  0.3810 -2.0777
    8SAPS  C312 1043   4.610   0.677   9.218 -0.1146 -0.0210 -0.3806
    8SAPS  H12X 1044   4.585   0.580   9.171 -0.7826 -0.5330  0.9790
    8SAPS  H12Y 1045   4.708   0.659   9.266  0.6226 -1.0230 -2.1877
    8SAPS  C313 1046   4.616   0.780   9.113  0.4319 -0.0233 -0.2959
    8SAPS  H13X 1047   4.633   0.883   9.151  0.8402 -0.1999  0.0018
    8SAPS  H13Y 1048   4.515   0.790   9.067 -0.9885  0.1012  2.6109
    8SAPS  C314 1049   4.724   0.752   9.004 -0.4199 -0.3280 -0.8692
    8SAPS  H14X 1050   4.824   0.732   9.047  0.1021  1.5496 -1.1522
    8SAPS  H14Y 1051   4.729   0.850   8.953 -1.5766 -0.0658 -0.5172
    8SAPS  C315 1052   4.688   0.633   8.908 -0.6207  0.2180  0.1195
    8SAPS  H15X 1053   4.584   0.639   8.869 -0.2182  0.2223 -0.9664
    8SAPS  H15Y 1054   4.690   0.535   8.960  0.6817  0.4746  0.5907
    8SAPS  C316 1055   4.789   0.627   8.796 -0.7287 -0.1329  0.4249
    8SAPS  H16X 1056   4.797   0.715   8.729 -0.6330 -0.5129 -0.0696
    8SAPS  H16Y 1057   4.761   0.548   8.723 -3.3009  0.7157  0.4021
    8SAPS  C317 1058   4.938   0.594   8.834  0.6645  0.1655  0.0012
    8SAPS  H17X 1059   4.941   0.487   8.864  0.7302 -0.1019 -0.9291
    8SAPS  H17Y 1060   4.976   0.646   8.925  3.8065 -0.6722 -0.7084
    8SAPS  C318 1061   5.028   0.620   8.714 -0.0402  0.4135 -0.4542
    8SAPS  H18X 1062   5.136   0.595   8.724  0.2279 -0.1546 -3.7365
    8SAPS  H18Y 1063   5.010   0.725   8.683 -3.5902  0.5826  1.6264
    8SAPS  H18Z 1064   4.995   0.572   8.619  1.4697 -0.6947 -0.4437
    9SAPS     N 1065   4.641   4.513   5.927 -0.1219  0.5087 -0.1416
    9SAPS   HN1 1066   4.603   4.500   5.831  0.5391  0.1342 -0.3591
    9SAPS   HN2 1067   4.719   4.444   5.933  0.4951  1.1275 -0.9254
    9SAPS   HN3 1068   4.571   4.486   6.000  1.3239  2.8570  2.2984
    9SAPS   C12 1069   4.696   4.641   5.965  0.1565  0.0662 -0.5405
    9SAPS  H12A 1070   4.784   4.644   5.903 -0.7994 -0.8343 -1.9990
    9SAPS   C13 1071   4.613   4.764   5.939  0.2524 -0.6903  0.2036
    9SAPS  O13A 1072   4.500   4.752   5.885  0.2547  0.6792 -0.0368
    9SAPS  O13B 1073   4.672   4.873   5.941  0.3990 -0.1834 -0.1586
    9SAPS   C11 1074   4.729   4.629   6.115  0.3155  0.5185  0.7715
    9SAPS  H11A 1075   4.636   4.623   6.176 -0.0997 -1.9382  0.0350
    9SAPS  H11B 1076   4.788   4.718   6.144  0.4947  0.0254  1.9772
    9SAPS     P 1077   4.951   4.501   6.201  0.8057  0.0300 -0.1873
    9SAPS   O13 1078   4.977   4.365   6.238  0.1357 -0.2963 -0.6026
    9SAPS   O14 1079   5.040   4.570   6.105  0.1998  0.4578  0.8229
    9SAPS   O12 1080   4.803   4.510   6.141 -0.3273  0.1601  0.2148
    9SAPS   O11 1081   4.932   4.592   6.328 -0.3331 -0.4382  0.7275
    9SAPS    C1 1082   4.857   4.545   6.439 -0.0186  0.3153  0.1624
    9SAPS    HA 1083   4.751   4.577   6.442 -0.7873 -2.0305  3.4675
    9SAPS    HB 1084   4.861   4.435   6.453 -1.6757  0.2925  0.6468
    9SAPS    C2 1085   4.920   4.592   6.568  0.8717  0.1519 -0.0063
    9SAPS    HS 1086   4.878   4.521   6.642  0.4932 -1.6761 -1.8626
    9SAPS   O21 1087   4.880   4.731   6.589  0.5846 -0.0432 -0.1726
    9SAPS   C21 1088   4.876   4.775   6.715 -0.4370  0.0102  0.5197
    9SAPS   O22 1089   4.875   4.702   6.813 -0.0426 -0.0761 -0.1637
    9SAPS   C22 1090   4.917   4.917   6.712  0.4288  0.4311 -0.3314
    9SAPS   H2R 1091   5.028   4.911   6.709  0.3509 -1.5112 -0.5415
    9SAPS   H2S 1092   4.883   4.974   6.622 -0.2579 -0.9185 -0.9501
    9SAPS    C3 1093   5.072   4.591   6.560 -0.6854  0.6222 -0.0906
    9SAPS    HX 1094   5.102   4.668   6.485  0.0918  0.9423  0.5326
    9SAPS    HY 1095   5.108   4.494   6.519  1.5417  1.5109 -0.3740
    9SAPS   O31 1096   5.138   4.624   6.683 -0.2762 -0.4910  0.1828
    9SAPS   C31 1097   5.216   4.533   6.744  0.2005 -1.0359  0.7563
    9SAPS   O32 1098   5.235   4.421   6.706  0.2831  0.1341 -0.0103
    9SAPS   C32 1099   5.279   4.600   6.860  0.3636  0.5553  0.0725
    9SAPS   H2X 1100   5.204   4.625   6.938  0.4195  1.9769 -0.2902
    9SAPS   H2Y 1101   5.336   4.690   6.829  1.0243 -0.6451 -2.4849
    9SAPS   C23 1102   4.881   4.994   6.841  0.4174 -0.2065 -0.2787
    9SAPS   H3R 1103   4.942   5.086   6.850  0.0228 -0.0885  1.7273
    9SAPS   H3S 1104   4.916   4.924   6.920  2.1538  1.7473  0.7858
    9SAPS   C24 1105   4.734   5.021   6.845  0.8581 -0.4249 -0.3580
    9SAPS   H4R 1106   4.678   4.928   6.868  0.8899  0.2425  2.9319
    9SAPS   H4S 1107   4.707   5.065   6.747  0.2705 -1.4879 -0.6869
    9SAPS   C25 1108   4.704   5.122   6.951 -0.3725  0.1288 -0.2443
    9SAPS   H5R 1109   4.652   5.209   6.908 -0.6669  0.4895  0.8010
    9SAPS   C26 1110   4.736   5.110   7.084 -0.0897 -0.5635 -0.3228
    9SAPS   H6R 1111   4.714   5.193   7.154  1.3311 -2.0137  1.9772
    9SAPS   C27 1112   4.801   4.996   7.153  0.0102 -0.5709  0.2693
    9SAPS   H7R 1113   4.836   5.029   7.253 -0.3425  1.1346 -0.1362
    9SAPS   H7S 1114   4.899   4.975   7.106  0.5824  0.4448  0.9637
    9SAPS   C28 1115   4.731   4.865   7.165  0.4938  0.6731 -0.2351
    9SAPS   H8R 1116   4.779   4.773   7.129  0.5853  0.3213  0.7580
    9SAPS   C29 1117   4.623   4.855   7.248 -0.7645 -0.0615 -0.7115
    9SAPS   H9R 1118   4.560   4.765   7.248 -2.9415  1.3864 -0.6741
    9SAPS  C210 1119   4.558   4.959   7.343 -0.1693 -0.1795 -0.1385
    9SAPS  H10R 1120   4.467   4.910   7.384  0.4078 -1.8395 -0.7438
    9SAPS  H10S 1121   4.517   5.039   7.276  0.0224  0.2714  0.2766
    9SAPS  C211 1122   4.640   5.020   7.457 -0.0725  0.0165 -0.0222
    9SAPS  H11R 1123   4.715   4.953   7.501  1.1744  0.2366 -1.6930
    9SAPS  C212 1124   4.644   5.149   7.507  0.5928 -0.0222  0.0382
    9SAPS  H12R 1125   4.699   5.163   7.601  0.7812 -3.9442  0.7011
    9SAPS  C213 1126   4.568   5.266   7.446 -0.1826  0.4721 -0.0335
    9SAPS  H13R 1127   4.485   5.289   7.517  0.7634  0.0759  1.2295
    9SAPS  H13S 1128   4.533   5.245   7.343  0.4162  0.1021 -0.1666
    9SAPS  C214 1129   4.652   5.387   7.441  0.0839 -0.4918  0.0706
    9SAPS  H14R 1130   4.718   5.404   7.528  2.8003  0.6546 -2.0570
    9SAPS  C215 1131   4.660   5.478   7.344 -0.8189 -0.1754  0.6021
    9SAPS  H15R 1132   4.735   5.557   7.354 -2.7234  1.5045  2.6376
    9SAPS  C216 1133   4.596   5.485   7.205  0.1646  0.5416  0.3992
    9SAPS  H16R 1134   4.605   5.388   7.152  2.0865  0.2644  1.1435
    9SAPS  H16S 1135   4.662   5.551   7.145 -0.4674  0.3411 -0.5213
    9SAPS  C217 1136   4.460   5.539   7.188  0.1397  0.3489 -0.8376
    9SAPS  H17R 1137   4.452   5.613   7.270 -1.9459 -1.5391  0.7868
    9SAPS  H17S 1138   4.380   5.462   7.192 -0.9217  1.4493 -0.1710
    9SAPS  C218 1139   4.429   5.599   7.048  0.4082 -0.1712  0.4383
    9SAPS  H18R 1140   4.491   5.690   7.031  0.7286 -0.6069 -0.8611
    9SAPS  H18S 1141   4.335   5.657   7.052 -0.0860 -0.8029 -1.2359
    9SAPS  C219 1142   4.430   5.492   6.941 -0.3788  0.3298 -0.3592
    9SAPS  H19R 1143   4.359   5.412   6.972  1.4122 -1.5583 -0.8910
    9SAPS  H19S 1144   4.535   5.457   6.944 -0.3286  0.4659 -0.5598
    9SAPS  C220 1145   4.398   5.554   6.802  0.2958  0.1489 -1.3473
    9SAPS  H20R 1146   4.310   5.621   6.808  0.1440 -0.1500  0.5900
    9SAPS  H20S 1147   4.394   5.476   6.723  1.6389 -0.4636 -0.8550
    9SAPS  H20T 1148   4.483   5.613   6.761 -0.4864  0.9755 -1.8058
    9SAPS   C33 1149   5.376   4.498   6.927  0.5762  0.5872 -0.1022
    9SAPS   H3X 1150   5.415   4.559   7.011 -0.0193  1.5555 -0.5093
    9SAPS   H3Y 1151   5.460   4.471   6.860  1.8579  0.6469  1.4169
    9SAPS   C34 1152   5.299   4.374   6.979  0.2666 -0.1204 -0.8994
    9SAPS   H4X 1153   5.252   4.312   6.899  1.1049  2.1278 -3.2414
    9SAPS   H4Y 1154   5.214   4.407   7.044  1.2795 -1.6137  1.3155
    9SAPS   C35 1155   5.386   4.290   7.075 -0.4949  0.2117 -0.0122
    9SAPS   H5X 1156   5.474   4.236   7.033 -1.2333 -0.1446 -1.1152
    9SAPS   H5Y 1157   5.318   4.210   7.112  1.7887 -0.9395  2.0189
    9SAPS   C36 1158   5.439   4.377   7.196 -0.0448  0.8496  0.4192
    9SAPS   H6X 1159   5.361   4.444   7.238 -2.1028  0.6250 -2.7129
    9SAPS   H6Y 1160   5.536   4.426   7.170  0.8309 -0.8590  0.2941
    9SAPS   C37 1161   5.490   4.286   7.306 -0.4167 -0.2121 -1.0530
    9SAPS   H7X 1162   5.595   4.257   7.282  1.3356  3.6375  1.0431
    9SAPS   H7Y 1163   5.422   4.199   7.312 -2.6567  1.4006 -1.7703
    9SAPS   C38 1164   5.501   4.353   7.434 -0.6851  0.2945 -0.2597
    9SAPS   H8X 1165   5.545   4.455   7.426  0.3354 -0.2158 -1.6117
    9SAPS   H8Y 1166   5.586   4.301   7.484 -1.5309 -0.9566 -0.0950
    9SAPS   C39 1167   5.374   4.351   7.522  0.3982 -0.3804  0.4936
    9SAPS   H9X 1168   5.344   4.246   7.543  1.2017 -0.5443  0.8308
    9SAPS   H9Y 1169   5.284   4.391   7.471  0.5923  0.4189  0.7628
    9SAPS  C310 1170   5.390   4.437   7.649  0.6506 -0.1734  0.4797
    9SAPS  H10X 1171   5.444   4.531   7.623  1.5975 -0.3757  1.6175
    9SAPS  H10Y 1172   5.458   4.394   7.725  0.3050  0.3944  1.1279
    9SAPS  C311 1173   5.254   4.450   7.716  0.5246  0.0246  0.1859
    9SAPS  H11X 1174   5.218   4.345   7.725  0.1271 -0.0273 -1.7069
    9SAPS  H11Y 1175   5.175   4.508   7.665  0.4930 -0.6804 -0.5999
    9SAPS  C312 1176   5.256   4.513   7.855  0.1755  0.3387  0.1509
    9SAPS  H12X 1177   5.155   4.557   7.871 -0.1449 -0.3832  0.1812
    9SAPS  H12Y 1178   5.322   4.600   7.838  1.1009 -0.3696  0.0171
    9SAPS  C313 1179   5.327   4.429   7.967 -0.1298 -0.3866 -0.1277
    9SAPS  H13X 1180   5.431   4.396   7.943  0.8129  0.6253  2.2652
    9SAPS  H13Y 1181   5.262   4.340   7.982 -0.1438 -0.5866 -1.2617
    9SAPS  C314 1182   5.337   4.499   8.102  0.2915  0.3661 -0.0003
    9SAPS  H14X 1183   5.397   4.593   8.097 -0.4115  0.7455 -3.4718
    9SAPS  H14Y 1184   5.377   4.431   8.180  0.1265 -0.7638 -0.8861
    9SAPS  C315 1185   5.199   4.549   8.150  0.1817  1.0874  0.6367
    9SAPS  H15X 1186   5.133   4.460   8.141 -0.5220  1.4925  1.5250
    9SAPS  H15Y 1187   5.172   4.635   8.085  2.3716  0.3665 -1.3605
    9SAPS  C316 1188   5.222   4.590   8.293  0.9003  0.1035 -0.1902
    9SAPS  H16X 1189   5.296   4.534   8.353 -0.2012 -0.0816  1.0385
    9SAPS  H16Y 1190   5.125   4.572   8.344  0.3721  1.5624 -0.6062
    9SAPS  C317 1191   5.250   4.734   8.303  0.0189 -0.3843 -0.1989
    9SAPS  H17X 1192   5.172   4.789   8.246 -0.7538 -1.4567 -0.2012
    9SAPS  H17Y 1193   5.336   4.780   8.249  0.6958 -0.0768  1.0864
    9SAPS  C318 1194   5.244   4.789   8.449  0.0922 -0.1744  0.8938
    9SAPS  H18X 1195   5.144   4.805   8.494 -0.1295  0.7743  0.0911
    9SAPS  H18Y 1196   5.302   4.883   8.456  0.6569 -0.5784  1.7873
    9SAPS  H18Z 1197   5.298   4.716   8.514  1.0465  1.2481  1.7391
   10SAPS     N 1198   0.493   5.233   6.171 -0.0305  0.1338  0.2427
   10SAPS   HN1 1199   0.547   5.321   6.164 -1.0708  0.7063 -0.8650
   10SAPS   HN2 1200   0.399   5.273   6.189 -0.6234 -2.2567  3.4420
   10SAPS   HN3 1201   0.511   5.172   6.253  0.2161 -1.8407 -1.2098
   10SAPS   C12 1202   0.499   5.167   6.033  0.3843 -0.8714 -0.1690
   10SAPS  H12A 1203   0.419   5.096   6.022  0.6500 -1.0338 -1.1769
   10SAPS   C13 1204   0.492   5.255   5.910  0.2347 -0.0594 -0.6467
   10SAPS  O13A 1205   0.474   5.380   5.923 -0.3795  0.0556  0.0619
   10SAPS  O13B 1206   0.511   5.193   5.803  0.0063 -0.0753  0.6027
   10SAPS   C11 1207   0.633   5.086   6.020 -0.5642  0.1791 -0.3497
   10SAPS  H11A 1208   0.710   5.157   5.984 -0.8182  0.7698  0.2396
   10SAPS  H11B 1209   0.627   5.013   5.937  0.4307 -1.4426  0.9434
   10SAPS     P 1210   0.812   4.947   6.152 -0.2117 -0.0198  0.4481
   10SAPS   O13 1211   0.840   4.861   6.032  0.3513  0.0900  0.3274
   10SAPS   O14 1212   0.913   5.054   6.172 -0.0836  0.0981 -0.1323
   10SAPS   O12 1213   0.673   5.018   6.140  0.2333 -0.4276 -1.0213
   10SAPS   O11 1214   0.797   4.857   6.274  0.0992  0.7366 -0.3503
   10SAPS    C1 1215   0.685   4.763   6.275 -0.7051 -0.0974 -0.3181
   10SAPS    HA 1216   0.597   4.807   6.327  1.4117  1.8136  1.9269
   10SAPS    HB 1217   0.650   4.728   6.176  0.4378  1.1610 -1.2155
   10SAPS    C2 1218   0.723   4.645   6.376  0.3660 -0.3476 -0.8119
   10SAPS    HS 1219   0.628   4.613   6.424 -0.5018 -2.4391 -3.5931
   10SAPS   O21 1220   0.827   4.680   6.472  0.7670  0.0055 -0.6815
   10SAPS   C21 1221   0.774   4.743   6.578 -0.8621 -0.9018  0.2929
   10SAPS   O22 1222   0.660   4.785   6.587  0.6517 -0.1450  0.5129
   10SAPS   C22 1223   0.880   4.743   6.693 -0.6737 -0.1124 -0.0072
   10SAPS   H2R 1224   0.838   4.810   6.771  0.1727 -0.3691  0.6957
   10SAPS   H2S 1225   0.871   4.639   6.731 -0.1916 -1.0704 -2.3669
   10SAPS    C3 1226   0.772   4.519   6.291 -0.6904  0.3180  0.4455
   10SAPS    HX 1227   0.845   4.555   6.216  0.2171  0.1341  1.2155
   10SAPS    HY 1228   0.690   4.494   6.220  0.7849 -0.7580 -0.9723
   10SAPS   O31 1229   0.809   4.402   6.368 -0.1388 -0.0305 -0.5778
   10SAPS   C31 1230   0.942   4.388   6.382  0.0174 -0.4628  0.0102
   10SAPS   O32 1231   1.027   4.467   6.364 -0.4011 -0.0029 -0.3930
   10SAPS   C32 1232   0.964   4.246   6.438 -0.0263  0.1403  0.5461
   10SAPS   H2X 1233   1.065   4.204   6.418  0.5401  1.5789  0.2810
   10SAPS   H2Y 1234   0.889   4.176   6.396  0.2292  1.5438 -2.5196
   10SAPS   C23 1235   1.025   4.783   6.645 -0.1567 -0.2165  0.4047
   10SAPS   H3R 1236   1.031   4.875   6.583 -2.0164  1.3795  2.4197
   10SAPS   H3S 1237   1.049   4.704   6.571 -0.0179  0.4151 -0.2394
   10SAPS   C24 1238   1.132   4.782   6.761  0.1227  0.0260  1.4604
   10SAPS   H4R 1239   1.231   4.758   6.717 -1.6869 -2.3188 -1.8493
   10SAPS   H4S 1240   1.104   4.718   6.847 -1.5216  1.1677  1.8199
   10SAPS   C25 1241   1.127   4.922   6.809 -0.2815  0.2409  0.1288
   10SAPS   H5R 1242   1.068   5.002   6.762 -2.8876 -1.4334  0.3295
   10SAPS   C26 1243   1.210   4.953   6.915  0.3981  0.6323 -0.1362
   10SAPS   H6R 1244   1.223   5.058   6.948  0.2787  1.1380 -1.6175
   10SAPS   C27 1245   1.293   4.851   6.990  0.1726  0.4812  0.3647
   10SAPS   H7R 1246   1.272   4.745   6.965  1.8506  0.1515  0.2432
   10SAPS   H7S 1247   1.269   4.867   7.097  0.4399  0.6848  0.3947
   10SAPS   C28 1248   1.439   4.868   6.952  0.6592 -0.2669 -0.2700
   10SAPS   H8R 1249   1.460   4.876   6.845 -0.9407 -1.5569 -0.7170
   10SAPS   C29 1250   1.542   4.867   7.043 -0.8481 -0.9562 -0.0527
   10SAPS   H9R 1251   1.646   4.873   7.009 -1.2306  0.1931 -1.0546
   10SAPS  C210 1252   1.537   4.848   7.193  0.0492  0.0561  0.1040
   10SAPS  H10R 1253   1.455   4.773   7.200  0.2676 -0.1186  0.7666
   10SAPS  H10S 1254   1.483   4.935   7.237  1.6540  1.1251  0.0245
   10SAPS  C211 1255   1.659   4.810   7.273  0.1779  0.3212  0.1875
   10SAPS  H11R 1256   1.757   4.825   7.224  1.2760  0.3810  2.3003
   10SAPS  C212 1257   1.654   4.784   7.404  0.3702  0.3251  0.2593
   10SAPS  H12R 1258   1.744   4.750   7.457 -0.8096 -2.8825  0.4031
   10SAPS  C213 1259   1.532   4.793   7.493  0.0002  0.2970 -0.2531
   10SAPS  H13R 1260   1.446   4.756   7.434 -0.8980 -1.6964  2.1331
   10SAPS  H13S 1261   1.513   4.898   7.522  1.7332  0.6966 -0.4217
   10SAPS  C214 1262   1.542   4.686   7.604 -0.2003  0.9017 -0.0095
   10SAPS  H14R 1263   1.521   4.582   7.574  0.7136 -0.2484  2.9970
   10SAPS  C215 1264   1.579   4.717   7.729  0.0899  0.5576 -1.0364
   10SAPS  H15R 1265   1.594   4.645   7.811  4.4584  2.4844  0.1336
   10SAPS  C216 1266   1.600   4.863   7.776  0.6252 -0.4532  0.3270
   10SAPS  H16R 1267   1.654   4.932   7.708  1.1041 -0.1919  0.9618
   10SAPS  H16S 1268   1.659   4.856   7.871 -0.0991 -2.4604  0.6797
   10SAPS  C217 1269   1.468   4.924   7.821  0.0202 -0.9004  0.2685
   10SAPS  H17R 1270   1.415   4.852   7.888 -0.2388 -0.5734  0.4209
   10SAPS  H17S 1271   1.407   4.943   7.730 -0.5471  1.0086  1.0005
   10SAPS  C218 1272   1.479   5.055   7.904 -0.5586  0.1358 -0.1391
   10SAPS  H18R 1273   1.500   5.151   7.853 -2.0413  0.9767  0.7368
   10SAPS  H18S 1274   1.560   5.041   7.979 -0.8747  1.9356  0.6095
   10SAPS  C219 1275   1.351   5.087   7.980  0.6581 -0.0031 -0.8210
   10SAPS  H19R 1276   1.320   5.007   8.051 -3.0360 -0.4124 -2.6135
   10SAPS  H19S 1277   1.272   5.085   7.901  0.6376 -2.5177 -0.8158
   10SAPS  C220 1278   1.348   5.217   8.052  0.6840 -0.2298  0.0022
   10SAPS  H20R 1279   1.382   5.300   7.986 -1.2889 -0.5609 -1.5135
   10SAPS  H20S 1280   1.415   5.203   8.140  1.4678  1.0690 -0.3516
   10SAPS  H20T 1281   1.245   5.244   8.083  0.8914  2.1413 -1.1867
   10SAPS   C33 1282   0.947   4.238   6.593 -0.1925  0.5605 -0.2738
   10SAPS   H3X 1283   0.934   4.134   6.628  0.6097  0.6355  0.2475
   10SAPS   H3Y 1284   0.851   4.287   6.620  0.2231  1.5489 -0.5465
   10SAPS   C34 1285   1.066   4.289   6.679  0.0811  0.0846 -0.0348
   10SAPS   H4X 1286   1.056   4.398   6.662 -2.6973 -0.2266 -0.8942
   10SAPS   H4Y 1287   1.163   4.246   6.643  0.2123  0.2096  0.1711
   10SAPS   C35 1288   1.049   4.249   6.831  0.0190 -0.3751 -0.1240
   10SAPS   H5X 1289   1.031   4.140   6.839 -1.9923 -0.2353 -1.8417
   10SAPS   H5Y 1290   0.953   4.296   6.863 -1.8196 -3.1140 -1.2057
   10SAPS   C36 1291   1.174   4.283   6.911  0.3752  0.1811  0.5573
   10SAPS   H6X 1292   1.212   4.386   6.889  0.4269  0.5861  2.4334
   10SAPS   H6Y 1293   1.250   4.209   6.878  1.3915  0.2205  2.6359
   10SAPS   C37 1294   1.149   4.274   7.061 -0.3562 -0.3792  0.1427
   10SAPS   H7X 1295   1.141   4.165   7.081 -0.8088 -1.0073 -2.8698
   10SAPS   H7Y 1296   1.056   4.329   7.089  1.8394  2.2469  2.9340
   10SAPS   C38 1297   1.263   4.342   7.144 -0.0833  0.6915 -0.1447
   10SAPS   H8X 1298   1.271   4.450   7.119 -0.6390  0.7332 -0.1585
   10SAPS   H8Y 1299   1.359   4.299   7.109  0.6417 -0.1926  2.7033
   10SAPS   C39 1300   1.235   4.310   7.286  0.3056  0.3112 -0.2417
   10SAPS   H9X 1301   1.243   4.202   7.312  1.2175  0.4877  0.2640
   10SAPS   H9Y 1302   1.131   4.348   7.300  0.1587 -0.0515 -0.3112
   10SAPS  C310 1303   1.322   4.395   7.376  0.1906 -0.0948  0.2242
   10SAPS  H10X 1304   1.311   4.500   7.341 -0.1947 -0.3503 -0.4528
   10SAPS  H10Y 1305   1.431   4.376   7.368  0.0177 -1.5968  1.1681
   10SAPS  C311 1306   1.286   4.382   7.519  1.0743  0.0974 -0.1591
   10SAPS  H11X 1307   1.189   4.331   7.539  0.2554  1.7279  0.1551
   10SAPS  H11Y 1308   1.287   4.477   7.576  1.1264 -0.0055  0.0109
   10SAPS  C312 1309   1.392   4.309   7.591 -0.1235  0.2405  0.4327
   10SAPS  H12X 1310   1.497   4.345   7.585 -0.0270 -0.2435 -1.1506
   10SAPS  H12Y 1311   1.389   4.209   7.543 -3.2312  0.6798 -0.4925
   10SAPS  C313 1312   1.367   4.295   7.739 -0.7687 -0.2355 -0.7130
   10SAPS  H13X 1313   1.262   4.262   7.760 -0.0849 -2.3151 -0.2999
   10SAPS  H13Y 1314   1.393   4.399   7.766  0.9745  0.3280 -4.0535
   10SAPS  C314 1315   1.463   4.204   7.821 -0.2378  0.3528 -0.3375
   10SAPS  H14X 1316   1.567   4.234   7.793 -0.5116  0.5773 -1.1509
   10SAPS  H14Y 1317   1.451   4.095   7.802  3.1198 -0.0489 -0.7610
   10SAPS  C315 1318   1.442   4.221   7.974 -0.2606  0.3798  0.2975
   10SAPS  H15X 1319   1.479   4.320   8.007  1.7726 -0.4046  0.5573
   10SAPS  H15Y 1320   1.507   4.145   8.023 -0.4070 -1.0596 -1.6075
   10SAPS  C316 1321   1.294   4.198   8.012  0.0768  0.2096 -0.2624
   10SAPS  H16X 1322   1.245   4.113   7.960 -0.7923  0.4316  0.1714
   10SAPS  H16Y 1323   1.239   4.290   7.983  1.9601  1.7364  0.7717
   10SAPS  C317 1324   1.267   4.160   8.162  0.9078 -0.2929  0.3288
   10SAPS  H17X 1325   1.158   4.149   8.180  1.0617 -0.2702  1.3800
   10SAPS  H17Y 1326   1.317   4.244   8.215  1.9533  0.0780 -1.1767
   10SAPS  C318 1327   1.331   4.025   8.199  0.0230 -0.0131  0.3487
   10SAPS  H18X 1328   1.305   3.986   8.299 -0.7119  0.4668  0.3512
   10SAPS  H18Y 1329   1.441   4.038   8.207 -0.0481  0.6006  0.4192
   10SAPS  H18Z 1330   1.315   3.956   8.113  2.6443  0.4408 -0.6272
   11SAPS     N 1331   2.549   5.458   5.617 -0.2226  0.7845  0.9387
   11SAPS   HN1 1332   2.515   5.360   5.606 -1.3147  1.4492 -3.5602
   11SAPS   HN2 1333   2.599   5.483   5.529  1.1953  0.1254  1.5242
   11SAPS   HN3 1334   2.626   5.451   5.687  0.4188 -0.5952  0.1250
   11SAPS   C12 1335   2.444   5.542   5.673  0.0590 -0.5224  0.0331
   11SAPS  H12A 1336   2.494   5.638   5.669  0.2917 -0.6760 -0.9990
   11SAPS   C13 1337   2.310   5.549   5.582 -0.8351 -0.1786 -0.8546
   11SAPS  O13A 1338   2.311   5.480   5.473  0.6793 -0.5923 -0.2480
   11SAPS  O13B 1339   2.241   5.649   5.608 -0.4973  1.2607 -0.3261
   11SAPS   C11 1340   2.407   5.491   5.813  0.7586 -0.3300  0.4570
   11SAPS  H11A 1341   2.374   5.385   5.805 -1.4195  0.3791 -0.8037
   11SAPS  H11B 1342   2.326   5.561   5.842  0.2680 -0.3742 -0.7528
   11SAPS     P 1343   2.524   5.407   6.030 -0.0609 -0.1188  0.8114
   11SAPS   O13 1344   2.554   5.276   5.967 -0.1084  0.0960 -0.3164
   11SAPS   O14 1345   2.617   5.466   6.130 -0.2981  0.1558  0.2089
   11SAPS   O12 1346   2.516   5.506   5.905  0.0765  0.1006  0.2005
   11SAPS   O11 1347   2.379   5.412   6.086 -0.8539 -0.3017 -0.3018
   11SAPS    C1 1348   2.326   5.545   6.112  0.5869  0.6248 -0.5631
   11SAPS    HA 1349   2.400   5.628   6.116  0.4103  0.7673 -0.1304
   11SAPS    HB 1350   2.248   5.571   6.038 -2.1836 -1.9902  1.1834
   11SAPS    C2 1351   2.253   5.552   6.249 -0.4113  0.5996 -0.0567
   11SAPS    HS 1352   2.231   5.656   6.282 -0.0362  0.2197  1.4725
   11SAPS   O21 1353   2.341   5.480   6.349  1.0522 -0.3098 -0.0042
   11SAPS   C21 1354   2.441   5.563   6.397 -1.1297  0.5153 -0.1419
   11SAPS   O22 1355   2.474   5.670   6.345  0.1754  0.8052  0.2366
   11SAPS   C22 1356   2.506   5.502   6.518 -0.6049  0.9807 -0.2629
   11SAPS   H2R 1357   2.471   5.398   6.534  1.5322  0.1629 -0.5401
   11SAPS   H2S 1358   2.615   5.495   6.495 -0.8282  0.0856 -1.0945
   11SAPS    C3 1359   2.115   5.484   6.236  0.2373  0.1306  0.3451
   11SAPS    HX 1360   2.132   5.385   6.189  2.8829  0.3059  0.7765
   11SAPS    HY 1361   2.055   5.545   6.165 -0.4133  0.0489  0.8161
   11SAPS   O31 1362   2.043   5.468   6.364  0.2549  0.0649  0.3270
   11SAPS   C31 1363   2.006   5.576   6.428 -0.3352  0.1007 -0.0942
   11SAPS   O32 1364   2.013   5.692   6.384 -0.0711 -0.2113  0.1561
   11SAPS   C32 1365   1.949   5.534   6.566 -0.8862 -0.6567  0.9745
   11SAPS   H2X 1366   1.962   5.425   6.578 -0.9788 -0.9274 -1.0102
   11SAPS   H2Y 1367   1.842   5.564   6.562 -1.0130 -1.1935 -1.3187
   11SAPS   C23 1368   2.488   5.581   6.655 -0.0356  0.2472 -0.1732
   11SAPS   H3R 1369   2.382   5.604   6.680 -0.9838 -1.1533 -2.5707
   11SAPS   H3S 1370   2.533   5.679   6.629  1.2598 -0.3337 -0.2219
   11SAPS   C24 1371   2.563   5.509   6.767  0.3153  0.1043 -0.2921
   11SAPS   H4R 1372   2.656   5.469   6.722  0.1767  0.6806 -1.1002
   11SAPS   H4S 1373   2.498   5.424   6.797 -0.6056  1.3930  1.6118
   11SAPS   C25 1374   2.604   5.599   6.885  0.0220  0.2797 -0.3000
   11SAPS   H5R 1375   2.675   5.679   6.858 -0.9140  1.3702  0.3899
   11SAPS   C26 1376   2.584   5.581   7.017 -0.0657  0.0564  0.0686
   11SAPS   H6R 1377   2.593   5.668   7.084 -0.5710 -0.6975  1.1293
   11SAPS   C27 1378   2.514   5.470   7.086 -0.2032 -0.1684  0.0932
   11SAPS   H7R 1379   2.549   5.474   7.191  1.0190  1.1469 -0.3109
   11SAPS   H7S 1380   2.546   5.367   7.061 -2.0641 -1.1004  1.3615
   11SAPS   C28 1381   2.368   5.492   7.080  0.4567  1.2706  0.4818
   11SAPS   H8R 1382   2.327   5.479   6.979  2.0805  0.0842 -0.0621
   11SAPS   C29 1383   2.280   5.519   7.179 -0.5133 -1.1844 -0.1942
   11SAPS   H9R 1384   2.173   5.529   7.156 -0.4290 -0.2838 -0.2303
   11SAPS  C210 1385   2.314   5.530   7.329  0.0497 -0.0070  0.6385
   11SAPS  H10R 1386   2.408   5.589   7.333  2.5093 -3.1403 -3.2764
   11SAPS  H10S 1387   2.336   5.433   7.378 -1.5938 -1.0931 -0.6546
   11SAPS  C211 1388   2.204   5.609   7.400  0.4278 -0.5148 -0.0812
   11SAPS  H11R 1389   2.129   5.671   7.349  1.5567  2.3431  1.4993
   11SAPS  C212 1390   2.194   5.620   7.531 -0.2686  0.1892 -0.1581
   11SAPS  H12R 1391   2.123   5.693   7.571  1.1120  0.2830  2.2953
   11SAPS  C213 1392   2.282   5.550   7.635 -0.2587  0.1618 -0.2574
   11SAPS  H13R 1393   2.323   5.634   7.693 -2.0060 -0.8156  2.5808
   11SAPS  H13S 1394   2.368   5.496   7.589  0.0287 -0.6971  1.2417
   11SAPS  C214 1395   2.202   5.454   7.719  0.3021 -0.0042 -0.1564
   11SAPS  H14R 1396   2.174   5.364   7.663  1.6652 -0.8728  0.5062
   11SAPS  C215 1397   2.162   5.475   7.844  0.2346 -0.6146 -0.6486
   11SAPS  H15R 1398   2.121   5.393   7.906  1.0059 -1.0078 -0.6459
   11SAPS  C216 1399   2.182   5.604   7.923  0.1470  0.3129  0.2691
   11SAPS  H16R 1400   2.094   5.611   7.992 -0.5333 -1.5373 -0.3518
   11SAPS  H16S 1401   2.178   5.688   7.850 -1.5699 -0.5389 -0.7031
   11SAPS  C217 1402   2.315   5.596   8.002  0.6498  0.6879 -0.5086
   11SAPS  H17R 1403   2.391   5.566   7.926 -0.8108 -1.1808 -1.3238
   11SAPS  H17S 1404   2.301   5.508   8.069 -0.1055  0.2778 -1.1907
   11SAPS  C218 1405   2.348   5.727   8.070  0.0175 -0.0148  0.4876
   11SAPS  H18R 1406   2.360   5.817   8.006  1.9601 -1.7213 -1.7178
   11SAPS  H18S 1407   2.438   5.710   8.132  0.4112 -1.0443 -0.3276
   11SAPS  C219 1408   2.227   5.757   8.167  0.1916 -0.1153  0.0519
   11SAPS  H19R 1409   2.195   5.666   8.221 -1.1877  0.7156  0.6787
   11SAPS  H19S 1410   2.149   5.782   8.092 -0.7539 -3.7845 -0.3788
   11SAPS  C220 1411   2.247   5.867   8.272  0.3152  0.3450  0.2563
   11SAPS  H20R 1412   2.280   5.962   8.226  0.6649 -0.7201 -1.7783
   11SAPS  H20S 1413   2.317   5.832   8.352 -2.8667 -2.6508  2.0182
   11SAPS  H20T 1414   2.150   5.877   8.326  0.1098  1.0833 -0.2399
   11SAPS   C33 1415   2.015   5.604   6.677 -0.3977 -0.0421 -0.2918
   11SAPS   H3X 1416   2.007   5.712   6.650 -2.8520 -0.4677 -1.4838
   11SAPS   H3Y 1417   2.123   5.578   6.680 -0.7520 -1.5615  1.3609
   11SAPS   C34 1418   1.951   5.574   6.811  0.4106 -0.3140 -0.4376
   11SAPS   H4X 1419   1.988   5.476   6.846 -1.2739 -1.2533 -1.1668
   11SAPS   H4Y 1420   1.840   5.573   6.799  0.4973 -1.7009 -1.3401
   11SAPS   C35 1421   1.975   5.680   6.922  0.2010  0.0339  0.3128
   11SAPS   H5X 1422   1.944   5.784   6.896  2.4877  1.1236  1.5893
   11SAPS   H5Y 1423   2.085   5.691   6.938  0.1743 -0.1769  0.6535
   11SAPS   C36 1424   1.913   5.638   7.056  0.1810  0.2101  0.3014
   11SAPS   H6X 1425   1.956   5.542   7.093  0.2554  0.3505  0.5866
   11SAPS   H6Y 1426   1.806   5.612   7.045  0.1108  0.8287 -0.6127
   11SAPS   C37 1427   1.924   5.735   7.173 -0.1732  0.0581  0.0470
   11SAPS   H7X 1428   1.854   5.812   7.135  0.7726  1.6280  1.3831
   11SAPS   H7Y 1429   2.025   5.779   7.185  0.3789 -1.2520  0.4715
   11SAPS   C38 1430   1.863   5.677   7.296  0.0463 -0.4951 -0.6825
   11SAPS   H8X 1431   1.904   5.581   7.334  3.2974  0.9255 -0.2636
   11SAPS   H8Y 1432   1.756   5.653   7.277  0.0850 -1.7082  0.4368
   11SAPS   C39 1433   1.867   5.781   7.416  0.0335  0.4875 -1.0768
   11SAPS   H9X 1434   1.827   5.879   7.382  0.6200  0.6690 -1.2484
   11SAPS   H9Y 1435   1.975   5.792   7.438 -0.4060 -0.6651  2.1987
   11SAPS  C310 1436   1.800   5.721   7.543 -0.0071  0.8093 -0.0203
   11SAPS  H10X 1437   1.834   5.616   7.558 -1.7801  0.3014  0.7437
   11SAPS  H10Y 1438   1.690   5.719   7.529  0.0989 -0.6431 -0.8546
   11SAPS  C311 1439   1.837   5.802   7.675 -0.2142 -0.0846 -0.1777
   11SAPS  H11X 1440   1.791   5.903   7.672 -0.2325  0.0526  2.5091
   11SAPS  H11Y 1441   1.947   5.818   7.668 -0.2168 -0.4398 -1.3811
   11SAPS  C312 1442   1.787   5.740   7.800  0.0781 -0.5987  1.1298
   11SAPS  H12X 1443   1.820   5.635   7.806 -0.9353 -1.0556 -0.6506
   11SAPS  H12Y 1444   1.676   5.732   7.792  0.2401 -2.5534  0.2902
   11SAPS  C313 1445   1.828   5.826   7.934  0.2640 -0.0772  0.3824
   11SAPS  H13X 1446   1.806   5.930   7.902 -1.7085 -1.1226 -1.9556
   11SAPS  H13Y 1447   1.939   5.822   7.944  0.5293  3.4848  0.1876
   11SAPS  C314 1448   1.759   5.792   8.056  0.6649  0.4454 -0.3174
   11SAPS  H14X 1449   1.772   5.686   8.084 -0.3704  0.4175  0.0885
   11SAPS  H14Y 1450   1.650   5.806   8.039  0.9826  2.4431 -1.0286
   11SAPS  C315 1451   1.802   5.878   8.180  0.2594 -0.4688  0.4552
   11SAPS  H15X 1452   1.899   5.841   8.220  0.0468 -2.3475 -0.6584
   11SAPS  H15Y 1453   1.725   5.852   8.255 -1.3435  1.4161 -0.4550
   11SAPS  C316 1454   1.801   6.025   8.160  0.0835  0.7489 -0.0524
   11SAPS  H16X 1455   1.885   6.057   8.095  0.1554  1.1289  0.2285
   11SAPS  H16Y 1456   1.845   6.067   8.253  1.8680  0.0197 -0.5197
   11SAPS  C317 1457   1.669   6.091   8.119 -0.0444  0.1055  0.8294
   11SAPS  H17X 1458   1.584   6.081   8.189 -0.6970  0.5505  0.1170
   11SAPS  H17Y 1459   1.628   6.038   8.030  1.8386  0.2050 -0.1579
   11SAPS  C318 1460   1.699   6.236   8.086 -0.5389  0.0312  0.4131
   11SAPS  H18X 1461   1.764   6.252   7.997 -0.1454  0.1436  0.7163
   11SAPS  H18Y 1462   1.743   6.284   8.176  1.2221  0.8246 -0.8023
   11SAPS  H18Z 1463   1.601   6.282   8.065 -0.7697 -1.2037 -1.4593
   12SAPS     N 1464   0.990   2.102   5.902  0.4765  0.8737  0.1836
   12SAPS   HN1 1465   1.047   2.170   5.956  0.8560 -0.5851  1.7149
   12SAPS   HN2 1466   0.903   2.083   5.955  0.6970  0.6824  0.4755
   12SAPS   HN3 1467   1.047   2.015   5.901 -0.1569  0.4392 -1.1224
   12SAPS   C12 1468   0.942   2.130   5.765  0.0400 -0.0685  0.0296
   12SAPS  H12A 1469   1.030   2.176   5.723  0.0546 -1.7774 -1.9594
   12SAPS   C13 1470   0.904   2.006   5.678  0.3918  0.0949 -0.0936
   12SAPS  O13A 1471   0.906   1.888   5.731  0.4419 -0.3667  0.5795
   12SAPS  O13B 1472   0.863   2.025   5.561 -0.2307  0.1426  0.2377
   12SAPS   C11 1473   0.818   2.234   5.775 -0.1568 -0.3298  0.0040
   12SAPS  H11A 1474   0.720   2.193   5.810  0.4346  0.2306  2.5368
   12SAPS  H11B 1475   0.788   2.282   5.680 -1.6863  0.6420  0.9217
   12SAPS     P 1476   0.754   2.439   5.922 -0.1596 -0.0451  0.4133
   12SAPS   O13 1477   0.797   2.574   5.886  0.1319  0.0107  0.3994
   12SAPS   O14 1478   0.620   2.401   5.869  0.4159 -0.3248 -0.9277
   12SAPS   O12 1479   0.866   2.337   5.871 -0.3724  0.0276  0.5386
   12SAPS   O11 1480   0.748   2.422   6.076  0.4634  0.9256 -0.7450
   12SAPS    C1 1481   0.834   2.346   6.159 -0.3118  0.3249  0.2450
   12SAPS    HA 1482   0.835   2.240   6.126  2.6049  0.8812 -1.8558
   12SAPS    HB 1483   0.938   2.384   6.162 -0.4741  0.7520  2.6131
   12SAPS    C2 1484   0.778   2.341   6.305 -0.6937  0.3265 -0.1175
   12SAPS    HS 1485   0.671   2.313   6.297 -0.1873 -2.3732  1.1548
   12SAPS   O21 1486   0.812   2.469   6.361  0.4617 -0.9839 -0.9059
   12SAPS   C21 1487   0.717   2.521   6.436  0.5433  0.3781 -0.5321
   12SAPS   O22 1488   0.609   2.464   6.455 -0.3113 -0.4351 -0.1598
   12SAPS   C22 1489   0.757   2.648   6.503 -1.1510  0.2011 -0.7273
   12SAPS   H2R 1490   0.797   2.719   6.427  2.0053  0.1060  0.6862
   12SAPS   H2S 1491   0.664   2.688   6.548 -1.7862  2.0559 -3.4165
   12SAPS    C3 1492   0.843   2.227   6.397 -0.5959 -0.6040 -1.0764
   12SAPS    HX 1493   0.953   2.245   6.397 -0.6452 -0.2770 -1.7876
   12SAPS    HY 1494   0.829   2.124   6.357  0.8271 -1.2631  0.0508
   12SAPS   O31 1495   0.814   2.232   6.532 -0.4837 -0.1303 -0.5921
   12SAPS   C31 1496   0.699   2.175   6.568  0.5629 -0.1315  1.1685
   12SAPS   O32 1497   0.618   2.138   6.489 -0.0814 -0.5928  0.2178
   12SAPS   C32 1498   0.667   2.178   6.718 -0.1536 -0.3901 -0.3536
   12SAPS   H2X 1499   0.725   2.264   6.759  1.8690 -1.8157 -0.0692
   12SAPS   H2Y 1500   0.721   2.088   6.753  0.0070  0.0531  0.5698
   12SAPS   C23 1501   0.875   2.629   6.604 -0.6813 -0.4906  0.5122
   12SAPS   H3R 1502   0.951   2.561   6.560 -0.5284  0.6146 -1.0100
   12SAPS   H3S 1503   0.836   2.570   6.690 -0.8042 -1.3501 -0.1225
   12SAPS   C24 1504   0.934   2.762   6.655  0.2281  0.0454  0.3456
   12SAPS   H4R 1505   0.849   2.817   6.700 -0.4876 -0.9613  0.2474
   12SAPS   H4S 1506   0.964   2.818   6.563  0.4794 -1.9318 -0.8331
   12SAPS   C25 1507   1.052   2.732   6.749 -0.5351  0.8386  0.2214
   12SAPS   H5R 1508   1.132   2.678   6.696  0.5223  0.3549  2.2153
   12SAPS   C26 1509   1.079   2.766   6.875 -0.0077 -0.6611  0.0833
   12SAPS   H6R 1510   1.176   2.738   6.920 -0.6596 -1.0667  1.2592
   12SAPS   C27 1511   0.989   2.854   6.958  0.0497 -0.0446  0.1663
   12SAPS   H7R 1512   0.943   2.783   7.030  1.6528 -3.1217 -1.6313
   12SAPS   H7S 1513   0.909   2.901   6.897  0.0876 -1.5136 -1.0847
   12SAPS   C28 1514   1.064   2.952   7.044  0.8725  0.4532 -0.0398
   12SAPS   H8R 1515   1.064   3.048   6.990 -0.4830  0.4592 -0.0807
   12SAPS   C29 1516   1.110   2.938   7.168 -0.4348  0.4359 -0.3944
   12SAPS   H9R 1517   1.165   3.025   7.206 -1.3275 -0.1422  2.4113
   12SAPS  C210 1518   1.113   2.814   7.254 -0.1153 -0.4443 -0.6714
   12SAPS  H10R 1519   1.200   2.750   7.225  0.3180 -0.4614  0.6141
   12SAPS  H10S 1520   1.022   2.752   7.237  0.5129 -1.0326 -2.0253
   12SAPS  C211 1521   1.118   2.845   7.401 -0.1461 -0.3923 -0.4583
   12SAPS  H11R 1522   1.033   2.906   7.436  0.5508 -0.3386  1.2089
   12SAPS  C212 1523   1.204   2.795   7.483 -0.5474 -0.5456 -0.2884
   12SAPS  H12R 1524   1.199   2.819   7.591  1.5684  2.0268 -0.6614
   12SAPS  C213 1525   1.319   2.706   7.453  0.6776  0.0969  0.4969
   12SAPS  H13R 1526   1.356   2.734   7.351 -1.1183 -3.7258 -1.4173
   12SAPS  H13S 1527   1.278   2.606   7.428 -1.4537  0.8038  1.0081
   12SAPS  C214 1528   1.436   2.710   7.548  0.5292  0.3475  0.0685
   12SAPS  H14R 1529   1.498   2.801   7.538 -0.7115  1.1733 -0.4104
   12SAPS  C215 1530   1.481   2.607   7.627  0.4895 -0.6233 -0.3478
   12SAPS  H15R 1531   1.570   2.631   7.686  0.9657 -0.2971 -1.1938
   12SAPS  C216 1532   1.413   2.482   7.656 -0.0050  0.0536 -0.2067
   12SAPS  H16R 1533   1.482   2.400   7.630  2.7871  0.8218  3.7297
   12SAPS  H16S 1534   1.317   2.478   7.601 -0.4818 -1.2567  0.6774
   12SAPS  C217 1535   1.371   2.442   7.801 -0.0068 -0.6974 -0.0573
   12SAPS  H17R 1536   1.463   2.437   7.862  0.0072  1.8095  0.2336
   12SAPS  H17S 1537   1.313   2.347   7.804 -1.2920  0.0807  1.0547
   12SAPS  C218 1538   1.276   2.545   7.876  0.2136 -0.2041 -0.3006
   12SAPS  H18R 1539   1.336   2.638   7.884  2.5461 -1.6787  0.6255
   12SAPS  H18S 1540   1.268   2.507   7.980 -0.6778 -0.4464 -0.4519
   12SAPS  C219 1541   1.143   2.578   7.817 -0.3409  0.5227 -0.0004
   12SAPS  H19R 1542   1.099   2.484   7.778  0.8902  0.7359 -2.0445
   12SAPS  H19S 1543   1.147   2.645   7.729 -1.3217  2.6617  1.4790
   12SAPS  C220 1544   1.047   2.647   7.912  0.3544 -0.7201 -0.3597
   12SAPS  H20R 1545   1.084   2.752   7.921 -1.6561  0.5738 -4.4598
   12SAPS  H20S 1546   1.042   2.592   8.008 -0.5319  1.0433  0.6496
   12SAPS  H20T 1547   0.948   2.645   7.862  0.7695  1.4118 -1.3812
   12SAPS   C33 1548   0.525   2.167   6.772  0.5840  0.1545  0.0159
   12SAPS   H3X 1549   0.465   2.111   6.697  1.8300 -1.7649  0.3782
   12SAPS   H3Y 1550   0.478   2.267   6.781 -0.7625 -0.3609 -0.9410
   12SAPS   C34 1551   0.504   2.097   6.907  1.1140 -0.4570  0.6651
   12SAPS   H4X 1552   0.545   1.997   6.881 -0.3977 -0.3259 -2.7369
   12SAPS   H4Y 1553   0.396   2.085   6.931  0.7868 -2.0607 -1.3708
   12SAPS   C35 1554   0.573   2.169   7.018 -0.3946 -0.0354 -0.2026
   12SAPS   H5X 1555   0.544   2.276   7.010 -0.7601  0.2183  3.1704
   12SAPS   H5Y 1556   0.683   2.165   7.004 -0.4739  0.0017 -0.8863
   12SAPS   C36 1557   0.539   2.119   7.163  0.0808  0.3298  0.1473
   12SAPS   H6X 1558   0.547   2.009   7.156  1.0091  0.3176  1.1937
   12SAPS   H6Y 1559   0.435   2.149   7.188  0.0628  0.2752  0.1378
   12SAPS   C37 1560   0.635   2.167   7.270  0.0161 -0.3419  0.9197
   12SAPS   H7X 1561   0.735   2.184   7.225  0.4932  1.9901  2.6547
   12SAPS   H7Y 1562   0.647   2.084   7.343 -1.0661  0.6302  2.2665
   12SAPS   C38 1563   0.611   2.304   7.330  0.0049 -0.2134 -0.2532
   12SAPS   H8X 1564   0.505   2.324   7.356 -0.5303  0.1310 -2.4426
   12SAPS   H8Y 1565   0.631   2.368   7.241 -1.0435 -0.1254 -0.4441
   12SAPS   C39 1566   0.712   2.361   7.434 -0.4126  0.1570  0.2192
   12SAPS   H9X 1567   0.698   2.472   7.430 -1.5566  0.1268  2.0078
   12SAPS   H9Y 1568   0.817   2.348   7.401 -0.3402  1.5137 -0.1818
   12SAPS  C310 1569   0.684   2.314   7.581  0.2086 -0.3218 -0.2742
   12SAPS  H10X 1570   0.691   2.204   7.597 -0.6958 -0.2674  0.5910
   12SAPS  H10Y 1571   0.578   2.341   7.598 -0.0550  0.7753 -3.0238
   12SAPS  C311 1572   0.770   2.387   7.679 -0.0389 -0.3214  0.3414
   12SAPS  H11X 1573   0.741   2.494   7.678  0.3935 -0.1747 -1.4635
   12SAPS  H11Y 1574   0.881   2.380   7.670 -0.1825 -2.1299 -0.5451
   12SAPS  C312 1575   0.727   2.335   7.813  0.8450  0.3918 -0.1025
   12SAPS  H12X 1576   0.716   2.225   7.809 -1.5399  0.4180  2.8249
   12SAPS  H12Y 1577   0.624   2.366   7.838  1.3160  0.8276  1.4188
   12SAPS  C313 1578   0.806   2.365   7.940  0.5062 -0.1791 -0.6039
   12SAPS  H13X 1579   0.810   2.471   7.975 -0.7920 -0.3863  0.2497
   12SAPS  H13Y 1580   0.914   2.340   7.929  0.9273  0.9654  0.6636
   12SAPS  C314 1581   0.746   2.282   8.058  0.8039  0.0459 -0.1075
   12SAPS  H14X 1582   0.758   2.175   8.029  0.2119 -0.2592  0.7420
   12SAPS  H14Y 1583   0.639   2.311   8.059  0.9325  0.8162 -2.2562
   12SAPS  C315 1584   0.805   2.315   8.197  0.4643  0.5996 -0.4943
   12SAPS  H15X 1585   0.766   2.239   8.268  0.6427  0.5621 -0.4366
   12SAPS  H15Y 1586   0.771   2.413   8.236 -1.1920 -1.0214  2.5814
   12SAPS  C316 1587   0.955   2.324   8.193  0.1025 -0.1354  0.0125
   12SAPS  H16X 1588   0.979   2.394   8.110  1.0976  0.4537  0.7748
   12SAPS  H16Y 1589   0.999   2.226   8.165 -1.9427 -0.7504 -1.2697
   12SAPS  C317 1590   1.009   2.378   8.321  0.3909  0.7257  0.0507
   12SAPS  H17X 1591   0.945   2.335   8.401 -0.3866 -1.7424 -1.7654
   12SAPS  H17Y 1592   0.988   2.487   8.325 -0.1672  0.5821  1.1779
   12SAPS  C318 1593   1.155   2.347   8.360 -0.2709 -0.6766 -0.2871
   12SAPS  H18X 1594   1.172   2.237   8.352  1.9989 -0.3347 -1.1330
   12SAPS  H18Y 1595   1.181   2.381   8.462  0.7843  1.6818 -1.2729
   12SAPS  H18Z 1596   1.230   2.385   8.286  1.2584  0.7480  1.8822
   13SAPS     N 1597   6.808   0.210   6.011  0.2073  0.4383  0.1115
   13SAPS   HN1 1598   6.753   0.241   6.094 -0.3017 -0.7429  0.2352
   13SAPS   HN2 1599   6.805   0.106   6.014 -2.4780  0.4677  0.6148
   13SAPS   HN3 1600   6.906   0.237   6.032 -0.0250  1.1407  0.3313
   13SAPS   C12 1601   6.765   0.269   5.883 -0.1833 -0.1510 -0.4097
   13SAPS  H12A 1602   6.844   0.257   5.810  0.2925  0.4934 -0.0120
   13SAPS   C13 1603   6.646   0.195   5.834 -0.1723  0.5175  0.3859
   13SAPS  O13A 1604   6.615   0.081   5.881  0.0443  0.6577  0.0147
   13SAPS  O13B 1605   6.588   0.242   5.727  0.4058  0.1149 -0.4236
   13SAPS   C11 1606   6.739   0.418   5.894 -0.4200 -0.3381  0.0611
   13SAPS  H11A 1607   6.659   0.449   5.965  0.5960 -0.2379  1.1829
   13SAPS  H11B 1608   6.711   0.466   5.797  0.0333  0.6812  0.4236
   13SAPS     P 1609   6.889   0.598   6.041  0.0776 -0.4283  0.1928
   13SAPS   O13 1610   7.034   0.588   6.078  0.4668 -0.4159 -0.1483
   13SAPS   O14 1611   6.837   0.729   5.990 -0.4773  0.3661 -0.1436
   13SAPS   O12 1612   6.865   0.492   5.926  0.6297 -0.1160 -0.1682
   13SAPS   O11 1613   6.803   0.549   6.155 -0.8791 -0.0889 -0.3013
   13SAPS    C1 1614   6.771   0.628   6.268 -0.1505  0.1724 -0.7172
   13SAPS    HA 1615   6.754   0.736   6.249 -1.3640 -0.0685 -1.0362
   13SAPS    HB 1616   6.678   0.583   6.309 -0.0216  0.2689 -0.3123
   13SAPS    C2 1617   6.871   0.613   6.382 -0.4507  0.2927 -0.2833
   13SAPS    HS 1618   6.951   0.684   6.352 -1.2648  1.3187 -0.0991
   13SAPS   O21 1619   6.914   0.476   6.391  0.0935  0.0331  0.3357
   13SAPS   C21 1620   7.047   0.454   6.376 -0.0396  0.3007  0.2395
   13SAPS   O22 1621   7.131   0.538   6.347  0.4633  0.3685 -0.1021
   13SAPS   C22 1622   7.085   0.310   6.413 -0.3670  0.5539  0.4018
   13SAPS   H2R 1623   7.026   0.295   6.507  0.5677 -0.1752  0.8920
   13SAPS   H2S 1624   7.045   0.244   6.333  1.5107  1.1201 -1.0841
   13SAPS    C3 1625   6.819   0.666   6.526 -0.7215  0.0525  0.2686
   13SAPS    HX 1626   6.741   0.594   6.556 -0.6292  0.5718  1.9101
   13SAPS    HY 1627   6.776   0.768   6.514  1.9748  1.1479 -1.0286
   13SAPS   O31 1628   6.921   0.661   6.615 -0.1178  0.0313 -0.4067
   13SAPS   C31 1629   6.990   0.772   6.640  0.2645 -0.1399 -0.1833
   13SAPS   O32 1630   7.006   0.866   6.562  0.3286 -0.4742  0.3435
   13SAPS   C32 1631   7.057   0.762   6.778  0.4252 -0.1595  0.0119
   13SAPS   H2X 1632   7.136   0.839   6.787  0.2698  0.0672 -0.5354
   13SAPS   H2Y 1633   7.105   0.662   6.778  0.2957 -0.2315 -0.9382
   13SAPS   C23 1634   7.238   0.270   6.420 -0.4771 -0.2582 -0.5368
   13SAPS   H3R 1635   7.290   0.341   6.352 -2.0623  0.4095 -1.0962
   13SAPS   H3S 1636   7.254   0.167   6.382 -1.5186 -0.6407  0.0169
   13SAPS   C24 1637   7.292   0.276   6.560 -0.3524 -0.1467 -0.5875
   13SAPS   H4R 1638   7.400   0.254   6.547 -0.5310 -0.8259 -0.9532
   13SAPS   H4S 1639   7.246   0.191   6.616 -1.8484  0.0515 -1.4608
   13SAPS   C25 1640   7.289   0.409   6.625  0.2182 -0.1419 -0.6376
   13SAPS   H5R 1641   7.282   0.493   6.554  2.8957  1.5346  0.8995
   13SAPS   C26 1642   7.290   0.441   6.755 -0.1374 -0.4973 -0.2828
   13SAPS   H6R 1643   7.281   0.547   6.783 -0.4821 -1.1994  2.5928
   13SAPS   C27 1644   7.295   0.349   6.880 -0.0377  0.7051  0.1710
   13SAPS   H7R 1645   7.373   0.381   6.953  1.1437 -2.3754  0.3797
   13SAPS   H7S 1646   7.328   0.247   6.852 -1.1205  0.5418 -0.5518
   13SAPS   C28 1647   7.160   0.330   6.955  0.0733 -0.2019  0.2977
   13SAPS   H8R 1648   7.076   0.341   6.886  0.8669  4.0959 -0.2383
   13SAPS   C29 1649   7.150   0.290   7.089  0.4092 -0.5790  0.8430
   13SAPS   H9R 1650   7.049   0.269   7.125  0.7056 -0.0654  2.0016
   13SAPS  C210 1651   7.265   0.261   7.181  0.3731 -0.0181 -0.1702
   13SAPS  H10R 1652   7.302   0.358   7.221  0.8466  0.8652 -2.5656
   13SAPS  H10S 1653   7.345   0.218   7.117  0.9526  0.2596  0.3664
   13SAPS  C211 1654   7.211   0.165   7.287  0.6339  0.2290 -0.1148
   13SAPS  H11R 1655   7.191   0.062   7.255 -0.6372  0.3642  0.1712
   13SAPS  C212 1656   7.209   0.192   7.420  0.2051 -0.1251  0.3202
   13SAPS  H12R 1657   7.156   0.120   7.483 -0.9505 -0.0281 -0.5004
   13SAPS  C213 1658   7.242   0.329   7.475 -0.1821  0.2587 -0.5259
   13SAPS  H13R 1659   7.215   0.411   7.405 -1.6263  1.4857  1.3585
   13SAPS  H13S 1660   7.351   0.328   7.494 -0.3894 -1.1430  0.7637
   13SAPS  C214 1661   7.155   0.362   7.597 -0.5212 -0.1374  0.5187
   13SAPS  H14R 1662   7.071   0.432   7.582 -0.7186 -0.6583 -0.9526
   13SAPS  C215 1663   7.176   0.308   7.719  0.0037  0.0797  0.1803
   13SAPS  H15R 1664   7.104   0.329   7.800 -3.2061 -0.6902 -2.2449
   13SAPS  C216 1665   7.298   0.222   7.755  0.9069 -0.6980 -0.1352
   13SAPS  H16R 1666   7.382   0.263   7.694 -0.4890 -0.6963 -2.1687
   13SAPS  H16S 1667   7.287   0.115   7.726 -0.9238  0.3612 -3.9300
   13SAPS  C217 1668   7.333   0.244   7.905  0.2292  0.0717 -0.5972
   13SAPS  H17R 1669   7.358   0.352   7.917  0.8362 -0.1834  0.6364
   13SAPS  H17S 1670   7.424   0.186   7.931 -0.7817 -0.1125  3.1065
   13SAPS  C218 1671   7.228   0.199   8.007  0.3640  0.2938  0.0127
   13SAPS  H18R 1672   7.199   0.096   7.978 -0.4508  0.5759 -0.1900
   13SAPS  H18S 1673   7.139   0.266   8.005  0.1906  0.1337  1.2693
   13SAPS  C219 1674   7.270   0.191   8.152  0.5997 -0.6781  0.3580
   13SAPS  H19R 1675   7.284   0.295   8.188 -3.8105  0.9762 -1.9304
   13SAPS  H19S 1676   7.366   0.137   8.157  0.3701 -1.1315 -0.0890
   13SAPS  C220 1677   7.167   0.121   8.240  0.0468  0.2961  0.2174
   13SAPS  H20R 1678   7.061   0.151   8.225  0.8305  2.0788 -2.6640
   13SAPS  H20S 1679   7.190   0.133   8.348  1.0780  2.0488 -0.1441
   13SAPS  H20T 1680   7.174   0.014   8.212  1.9405  0.4713 -0.1244
   13SAPS   C33 1681   6.971   0.793   6.903 -0.1075  0.1060 -0.0764
   13SAPS   H3X 1682   6.876   0.734   6.903  1.2050 -2.1013  0.2384
   13SAPS   H3Y 1683   6.955   0.903   6.897  0.1262  0.2085  1.0630
   13SAPS   C34 1684   7.036   0.742   7.034  0.3957  0.5276 -0.5317
   13SAPS   H4X 1685   7.135   0.787   7.058  0.1224  1.1532 -0.5437
   13SAPS   H4Y 1686   7.054   0.634   7.021 -0.6298  0.6290 -3.7158
   13SAPS   C35 1687   6.938   0.776   7.145 -0.4010  0.2248 -0.1565
   13SAPS   H5X 1688   6.851   0.706   7.146 -0.2905  0.0848  0.6767
   13SAPS   H5Y 1689   6.892   0.875   7.126  1.0542  0.7508 -1.0630
   13SAPS   C36 1690   6.996   0.787   7.289  0.4568 -0.4195 -0.3466
   13SAPS   H6X 1691   7.083   0.856   7.283 -0.2836  0.6449  0.7775
   13SAPS   H6Y 1692   7.034   0.686   7.314  2.4856  0.5553  0.7491
   13SAPS   C37 1693   6.897   0.840   7.400 -0.4414 -0.1994  0.1717
   13SAPS   H7X 1694   6.800   0.785   7.401 -0.1170 -0.8148 -0.8816
   13SAPS   H7Y 1695   6.877   0.949   7.386  1.7065  0.3045  0.6191
   13SAPS   C38 1696   6.956   0.830   7.545 -0.4278  0.4410 -0.1550
   13SAPS   H8X 1697   7.065   0.846   7.543 -0.6935  4.8991  3.6723
   13SAPS   H8Y 1698   6.934   0.725   7.575 -0.6449  1.0641  2.1050
   13SAPS   C39 1699   6.908   0.918   7.659 -0.0204 -0.1943 -0.0900
   13SAPS   H9X 1700   6.802   0.893   7.682 -0.2546  1.9085  1.3696
   13SAPS   H9Y 1701   6.915   1.026   7.632  0.7598  0.4823  2.5355
   13SAPS  C310 1702   6.994   0.902   7.782 -0.7290 -0.6884 -0.4161
   13SAPS  H10X 1703   7.101   0.915   7.757 -1.0338  1.3210 -0.8150
   13SAPS  H10Y 1704   6.978   0.795   7.809 -0.2453 -0.5372  0.5024
   13SAPS  C311 1705   6.967   0.979   7.913  0.0805 -0.4659  0.8072
   13SAPS  H11X 1706   6.858   0.975   7.931  0.0602 -0.0085  0.7840
   13SAPS  H11Y 1707   7.007   1.081   7.895  0.3849 -0.9330 -1.5165
   13SAPS  C312 1708   7.040   0.915   8.030 -0.6112  0.0991 -0.0899
   13SAPS  H12X 1709   7.139   0.875   8.000 -1.0610 -1.4072  0.3590
   13SAPS  H12Y 1710   6.982   0.827   8.065 -1.2606  0.9507  1.0400
   13SAPS  C313 1711   7.051   1.006   8.160  0.1181  0.2418  0.1503
   13SAPS  H13X 1712   7.098   0.954   8.246  0.6411  1.1307  0.4100
   13SAPS  H13Y 1713   6.945   1.026   8.186  0.5840  1.4240  1.2128
   13SAPS  C314 1714   7.127   1.140   8.140 -0.3388  0.2027  0.8098
   13SAPS  H14X 1715   7.067   1.210   8.078 -1.7943 -2.1397 -0.6304
   13SAPS  H14Y 1716   7.232   1.136   8.104 -0.9659 -1.4637 -1.0697
   13SAPS  C315 1717   7.119   1.220   8.278  0.0730  0.6992 -0.0355
   13SAPS  H15X 1718   7.015   1.233   8.315 -0.1069 -0.3110 -0.1627
   13SAPS  H15Y 1719   7.164   1.319   8.255  2.1656  0.1192  1.3889
   13SAPS  C316 1720   7.197   1.153   8.399  0.2612 -0.1076 -0.0484
   13SAPS  H16X 1721   7.298   1.138   8.355  0.8588  1.3755  0.7558
   13SAPS  H16Y 1722   7.148   1.059   8.431 -0.1335  0.1993  0.2528
   13SAPS  C317 1723   7.195   1.253   8.525  0.5832  0.0228  0.0222
   13SAPS  H17X 1724   7.124   1.335   8.501  0.0551 -1.0006 -2.1310
   13SAPS  H17Y 1725   7.291   1.307   8.538  0.0327  0.6939  1.5975
   13SAPS  C318 1726   7.172   1.183   8.657  0.0218  0.1296  0.0564
   13SAPS  H18X 1727   7.244   1.101   8.680  1.2484  0.6103 -1.8406
   13SAPS  H18Y 1728   7.067   1.146   8.665  0.2341 -0.5677 -0.2968
   13SAPS  H18Z 1729   7.188   1.251   8.743  1.5859  0.9733 -0.8550
   14SAPS     N 1730   2.185   4.269   5.585 -0.4820 -0.0617 -0.2556
   14SAPS   HN1 1731   2.158   4.292   5.682  0.8605  0.5276 -0.0047
   14SAPS   HN2 1732   2.123   4.314   5.514  0.1693 -0.4013 -1.0499
   14SAPS   HN3 1733   2.180   4.166   5.569 -0.4787  0.1251 -1.6115
   14SAPS   C12 1734   2.326   4.329   5.557 -0.4396  0.0910  0.1363
   14SAPS  H12A 1735   2.351   4.314   5.454 -0.7794 -0.6339  0.1538
   14SAPS   C13 1736   2.340   4.480   5.579 -0.4917  0.0031 -0.3035
   14SAPS  O13A 1737   2.235   4.543   5.607  0.7658 -0.2785 -0.0495
   14SAPS  O13B 1738   2.441   4.540   5.534  0.3771 -0.6510 -0.1135
   14SAPS   C11 1739   2.426   4.246   5.644  0.1363 -0.7091 -0.4672
   14SAPS  H11A 1740   2.393   4.259   5.749 -0.0783 -2.1215 -0.3288
   14SAPS  H11B 1741   2.521   4.300   5.624  0.6643 -0.3320  2.6744
   14SAPS     P 1742   2.382   3.989   5.677  0.3877  0.1404 -0.1518
   14SAPS   O13 1743   2.241   4.002   5.704  0.7456 -0.1506  0.7178
   14SAPS   O14 1744   2.435   3.868   5.612 -0.2252  0.1251  0.4735
   14SAPS   O12 1745   2.434   4.107   5.596 -0.4344 -0.1286 -0.3674
   14SAPS   O11 1746   2.447   4.000   5.828 -0.0019  0.5086 -0.4290
   14SAPS    C1 1747   2.438   3.883   5.912  0.3511  0.5098 -0.5375
   14SAPS    HA 1748   2.339   3.835   5.900 -0.4550  2.5541 -2.9983
   14SAPS    HB 1749   2.515   3.810   5.881 -2.1908 -2.2680 -0.7784
   14SAPS    C2 1750   2.443   3.913   6.061 -0.1278  0.1330 -0.1671
   14SAPS    HS 1751   2.351   3.961   6.100 -0.3211 -0.8241  0.5840
   14SAPS   O21 1752   2.557   3.996   6.082  0.5518 -0.2847 -0.3597
   14SAPS   C21 1753   2.547   4.132   6.087  0.5503  0.3395  0.3725
   14SAPS   O22 1754   2.454   4.205   6.064 -1.2100  0.1082  0.1414
   14SAPS   C22 1755   2.687   4.184   6.124  0.3211 -0.5961  0.5719
   14SAPS   H2R 1756   2.747   4.092   6.145  0.3645 -0.0765  2.9396
   14SAPS   H2S 1757   2.735   4.239   6.040  0.8079 -0.3781  0.9898
   14SAPS    C3 1758   2.459   3.777   6.132 -0.4414  0.4578 -0.8398
   14SAPS    HX 1759   2.544   3.725   6.084 -0.2099  0.9146 -0.9352
   14SAPS    HY 1760   2.369   3.717   6.108 -0.3127 -0.2766  0.4203
   14SAPS   O31 1761   2.479   3.796   6.272  0.6870  0.1013 -0.7213
   14SAPS   C31 1762   2.609   3.798   6.321  0.3967  0.0946 -0.3314
   14SAPS   O32 1763   2.712   3.795   6.251  0.4445 -0.1445  0.0630
   14SAPS   C32 1764   2.607   3.788   6.470 -0.6102 -0.6028 -0.0412
   14SAPS   H2X 1765   2.499   3.777   6.491 -1.2241 -0.1168 -2.5383
   14SAPS   H2Y 1766   2.640   3.881   6.520 -0.9732 -0.7805  0.5330
   14SAPS   C23 1767   2.695   4.280   6.236 -0.0668 -0.4369 -1.0753
   14SAPS   H3R 1768   2.617   4.357   6.216 -1.6219 -1.5963  0.2539
   14SAPS   H3S 1769   2.795   4.322   6.255 -1.1283  0.6125  3.1949
   14SAPS   C24 1770   2.666   4.220   6.377  0.2733  0.3933  0.2403
   14SAPS   H4R 1771   2.708   4.295   6.448  0.1299 -0.2843  1.0574
   14SAPS   H4S 1772   2.736   4.133   6.385  1.8195  1.5456 -0.2881
   14SAPS   C25 1773   2.526   4.183   6.415  0.2106 -0.0592 -0.5491
   14SAPS   H5R 1774   2.480   4.114   6.343 -1.1248  0.7229 -0.4826
   14SAPS   C26 1775   2.458   4.212   6.530  0.8611  0.1057  0.3415
   14SAPS   H6R 1776   2.363   4.159   6.548  0.4153  0.3201 -1.2797
   14SAPS   C27 1777   2.493   4.302   6.650 -0.3204 -0.4141 -0.5012
   14SAPS   H7R 1778   2.416   4.380   6.672 -0.5090 -0.9263  0.7639
   14SAPS   H7S 1779   2.581   4.364   6.624 -2.2520  2.4811 -0.7143
   14SAPS   C28 1780   2.513   4.231   6.779 -0.3323 -0.3871 -0.3316
   14SAPS   H8R 1781   2.539   4.125   6.777  2.1203  0.1416 -0.0620
   14SAPS   C29 1782   2.529   4.292   6.901  0.3486  0.4606  0.1819
   14SAPS   H9R 1783   2.519   4.226   6.989  1.4330  1.3593  0.9956
   14SAPS  C210 1784   2.528   4.434   6.938 -0.0986 -0.0581 -0.5272
   14SAPS  H10R 1785   2.457   4.450   7.022  0.4285 -0.9648  0.1112
   14SAPS  H10S 1786   2.496   4.501   6.856  0.7548 -1.2544 -1.8787
   14SAPS  C211 1787   2.660   4.491   6.973  0.2595  0.1653  0.6858
   14SAPS  H11R 1788   2.731   4.471   6.891 -0.9908 -0.2918 -0.3231
   14SAPS  C212 1789   2.703   4.529   7.098  0.0753 -0.3721  0.2534
   14SAPS  H12R 1790   2.800   4.579   7.113  0.2334 -1.4178  3.5969
   14SAPS  C213 1791   2.629   4.523   7.227  0.3821 -0.9583  0.1496
   14SAPS  H13R 1792   2.529   4.477   7.220  0.1043 -0.7449  2.1514
   14SAPS  H13S 1793   2.615   4.630   7.255  1.0523 -0.6700 -0.5784
   14SAPS  C214 1794   2.707   4.447   7.329 -0.5666 -0.2692 -0.4496
   14SAPS  H14R 1795   2.763   4.364   7.284  1.1854 -0.3493  1.7112
   14SAPS  C215 1796   2.699   4.458   7.464  0.5130  0.1961 -0.1664
   14SAPS  H15R 1797   2.755   4.383   7.521  0.3812  0.9578  0.9877
   14SAPS  C216 1798   2.599   4.548   7.539 -0.5159 -0.2948 -0.3783
   14SAPS  H16R 1799   2.494   4.515   7.526 -1.2370  1.1163  1.3539
   14SAPS  H16S 1800   2.595   4.655   7.507  0.6569  0.2906  1.2850
   14SAPS  C217 1801   2.631   4.544   7.691  1.5997 -0.1298 -0.2514
   14SAPS  H17R 1802   2.733   4.585   7.709  0.7284  1.4526  1.4502
   14SAPS  H17S 1803   2.625   4.440   7.730 -1.2570 -0.8548 -2.3356
   14SAPS  C218 1804   2.549   4.640   7.786  0.5076 -0.0673  0.1185
   14SAPS  H18R 1805   2.461   4.581   7.821  0.2054  0.1228 -0.3144
   14SAPS  H18S 1806   2.517   4.731   7.731 -0.3494 -0.1148  0.5193
   14SAPS  C219 1807   2.638   4.698   7.895 -0.6670 -0.1762 -0.5411
   14SAPS  H19R 1808   2.707   4.774   7.853 -0.0057  0.6437  1.8772
   14SAPS  H19S 1809   2.707   4.625   7.943 -2.6038 -1.6943  0.1052
   14SAPS  C220 1810   2.548   4.761   8.011 -0.7524  0.0825  0.1420
   14SAPS  H20R 1811   2.613   4.780   8.099 -1.5068 -1.9209  1.1843
   14SAPS  H20S 1812   2.463   4.692   8.027 -0.7809 -0.1033 -0.7574
   14SAPS  H20T 1813   2.506   4.858   7.977  3.0800  2.1134  0.6127
   14SAPS   C33 1814   2.679   3.663   6.521  0.5568  0.2030 -0.3768
   14SAPS   H3X 1815   2.787   3.688   6.509  0.8436  1.3694  3.3665
   14SAPS   H3Y 1816   2.645   3.573   6.465  0.9584  0.2326 -0.6744
   14SAPS   C34 1817   2.659   3.650   6.672  0.0563  0.6564 -0.6607
   14SAPS   H4X 1818   2.554   3.614   6.681  0.4876 -1.1102 -2.0693
   14SAPS   H4Y 1819   2.659   3.747   6.726  1.7062 -0.2337  1.0604
   14SAPS   C35 1820   2.756   3.563   6.752 -0.0368 -0.1690  0.0766
   14SAPS   H5X 1821   2.859   3.605   6.752 -0.0765 -0.0696 -0.8484
   14SAPS   H5Y 1822   2.761   3.464   6.702  1.3914 -0.3416  0.5128
   14SAPS   C36 1823   2.708   3.544   6.894 -0.2084  0.1198 -0.1078
   14SAPS   H6X 1824   2.604   3.503   6.897 -0.5222  0.9098 -0.0373
   14SAPS   H6Y 1825   2.691   3.644   6.938 -1.8310  0.7110 -1.9417
   14SAPS   C37 1826   2.800   3.460   6.977  0.1137  0.4145 -0.2175
   14SAPS   H7X 1827   2.898   3.512   6.970 -0.5099  1.7021  0.2808
   14SAPS   H7Y 1828   2.817   3.362   6.927  1.3975  0.1213  0.7121
   14SAPS   C38 1829   2.772   3.440   7.123  1.2882 -0.3917  0.8694
   14SAPS   H8X 1830   2.731   3.533   7.168 -2.8200 -2.3572  1.6739
   14SAPS   H8Y 1831   2.871   3.418   7.167  1.4260 -2.0322 -0.1550
   14SAPS   C39 1832   2.671   3.322   7.146  0.3814 -0.5440  0.1589
   14SAPS   H9X 1833   2.721   3.225   7.128  1.3521 -0.3165  1.4414
   14SAPS   H9Y 1834   2.583   3.335   7.080 -1.0847  0.7971  2.2714
   14SAPS  C310 1835   2.617   3.319   7.289  0.5164 -0.0651 -0.5768
   14SAPS  H10X 1836   2.554   3.228   7.292  0.9206 -0.4420 -2.3252
   14SAPS  H10Y 1837   2.551   3.407   7.306 -1.3378 -1.1804 -1.7270
   14SAPS  C311 1838   2.718   3.312   7.403 -0.8510 -0.9587  0.2721
   14SAPS  H11X 1839   2.761   3.414   7.415 -3.7641  0.6052 -1.1850
   14SAPS  H11Y 1840   2.803   3.250   7.367  1.8917  1.6532  1.8350
   14SAPS  C312 1841   2.658   3.274   7.532  0.0779 -0.1122  0.3456
   14SAPS  H12X 1842   2.628   3.167   7.527 -2.0683  0.4424 -0.0053
   14SAPS  H12Y 1843   2.564   3.333   7.546  0.2765  0.3992 -0.4019
   14SAPS  C313 1844   2.746   3.303   7.653 -0.0989 -0.3030  0.1333
   14SAPS  H13X 1845   2.785   3.406   7.644  1.6183 -0.9564 -0.2538
   14SAPS  H13Y 1846   2.833   3.235   7.655 -0.6874 -1.0904 -0.2146
   14SAPS  C314 1847   2.672   3.294   7.787 -0.2665 -0.2623 -0.0616
   14SAPS  H14X 1848   2.619   3.197   7.780  0.8718 -1.0060  1.1868
   14SAPS  H14Y 1849   2.598   3.377   7.794 -0.3879 -0.4747  1.2854
   14SAPS  C315 1850   2.755   3.299   7.918 -0.0165  0.7226 -0.6452
   14SAPS  H15X 1851   2.789   3.400   7.947 -0.5014  0.5263  0.6992
   14SAPS  H15Y 1852   2.847   3.238   7.900  0.0977  0.3101  1.1057
   14SAPS  C316 1853   2.671   3.225   8.028  0.6921 -0.6194 -0.2412
   14SAPS  H16X 1854   2.630   3.129   7.990 -0.0108  0.7003 -3.1124
   14SAPS  H16Y 1855   2.589   3.293   8.058  0.6632 -1.1965  1.0705
   14SAPS  C317 1856   2.746   3.211   8.160 -0.0379 -0.4947 -0.5171
   14SAPS  H17X 1857   2.831   3.139   8.165 -0.1962 -0.6078  1.1171
   14SAPS  H17Y 1858   2.677   3.183   8.243  0.2588  0.3232  0.0163
   14SAPS  C318 1859   2.799   3.346   8.214 -0.1072 -0.1664  0.2978
   14SAPS  H18X 1860   2.839   3.337   8.317 -1.1142  1.1019  0.8287
   14SAPS  H18Y 1861   2.719   3.423   8.221 -0.1460  0.0851 -2.1420
   14SAPS  H18Z 1862   2.884   3.396   8.164 -1.2801  1.0004 -0.6213
   15SAPS     N 1863   2.164   5.265   5.441  0.2850 -0.4875  0.1433
   15SAPS   HN1 1864   2.200   5.362   5.449 -1.4924  0.0787  2.2943
   15SAPS   HN2 1865   2.204   5.224   5.354  0.3547  0.3887 -0.2425
   15SAPS   HN3 1866   2.062   5.270   5.423  0.2199 -0.6337  0.4602
   15SAPS   C12 1867   2.193   5.187   5.563  0.0169 -0.7378  0.4058
   15SAPS  H12A 1868   2.155   5.089   5.538  0.3950 -0.6176 -0.7271
   15SAPS   C13 1869   2.346   5.169   5.599  0.4210  0.1785  0.3652
   15SAPS  O13A 1870   2.431   5.214   5.522 -0.5126 -0.1867 -0.1050
   15SAPS  O13B 1871   2.369   5.097   5.696  0.1309 -0.6051  0.6703
   15SAPS   C11 1872   2.113   5.240   5.688  0.2271 -0.1995  0.5650
   15SAPS  H11A 1873   2.146   5.343   5.711 -1.4632  0.1897  1.4084
   15SAPS  H11B 1874   2.140   5.183   5.779 -1.1519  1.0326  1.8042
   15SAPS     P 1875   1.865   5.345   5.686  0.2312  0.2450  0.0953
   15SAPS   O13 1876   1.886   5.449   5.581 -0.6945 -0.2551 -0.1319
   15SAPS   O14 1877   1.731   5.283   5.696  0.6598 -0.5087  0.1080
   15SAPS   O12 1878   1.971   5.227   5.679  0.7384  0.0735  0.1532
   15SAPS   O11 1879   1.897   5.397   5.837  0.6156 -1.0222  0.1954
   15SAPS    C1 1880   1.902   5.306   5.943  0.2629 -0.1221 -0.3561
   15SAPS    HA 1881   1.936   5.205   5.913 -0.7004  0.1377 -2.5191
   15SAPS    HB 1882   1.971   5.354   6.015 -0.6484  1.4450 -0.4823
   15SAPS    C2 1883   1.768   5.293   6.010  0.1030 -0.1554 -0.5364
   15SAPS    HS 1884   1.696   5.257   5.934  1.2380 -0.2330 -1.6058
   15SAPS   O21 1885   1.741   5.429   6.058  0.2352  0.7660 -0.0523
   15SAPS   C21 1886   1.624   5.447   6.119 -0.0899 -0.2868  0.7607
   15SAPS   O22 1887   1.527   5.371   6.108 -0.0356  0.2979 -0.5292
   15SAPS   C22 1888   1.633   5.580   6.187  0.0720  0.5124 -0.2729
   15SAPS   H2R 1889   1.739   5.613   6.192  0.6932 -1.3751 -0.2929
   15SAPS   H2S 1890   1.577   5.650   6.121  0.8489  1.3587 -0.0645
   15SAPS    C3 1891   1.766   5.188   6.129 -0.6204 -0.2631  0.3089
   15SAPS    HX 1892   1.777   5.088   6.082  2.8042  0.6569 -1.1689
   15SAPS    HY 1893   1.672   5.195   6.187  0.2080 -2.6463  2.0993
   15SAPS   O31 1894   1.880   5.190   6.216  0.2705  0.1090  0.8213
   15SAPS   C31 1895   1.895   5.100   6.317  0.1805  0.0170  0.2589
   15SAPS   O32 1896   1.814   5.016   6.350  0.1880 -0.4660  0.3566
   15SAPS   C32 1897   2.021   5.133   6.393  0.2131  0.0254 -0.1293
   15SAPS   H2X 1898   2.035   5.242   6.409  2.8544 -0.2128 -0.2953
   15SAPS   H2Y 1899   2.108   5.096   6.333  1.2562  0.4209  1.1007
   15SAPS   C23 1900   1.568   5.577   6.334 -0.4907  0.3826 -0.6356
   15SAPS   H3R 1901   1.640   5.541   6.411 -0.9738  1.3059  0.2710
   15SAPS   H3S 1902   1.484   5.505   6.320  1.3353 -1.6046 -2.2097
   15SAPS   C24 1903   1.528   5.712   6.377  0.1722  0.3956  0.1542
   15SAPS   H4R 1904   1.501   5.720   6.484 -0.8471  0.5668 -0.1038
   15SAPS   H4S 1905   1.430   5.738   6.330  1.0877  0.4895 -1.8035
   15SAPS   C25 1906   1.634   5.813   6.340 -0.0112  0.0894  0.6299
   15SAPS   H5R 1907   1.643   5.853   6.238  2.6109 -0.2837  0.6542
   15SAPS   C26 1908   1.712   5.869   6.438 -0.1735  0.0196  0.5025
   15SAPS   H6R 1909   1.777   5.950   6.403 -0.8407 -0.2686 -1.5280
   15SAPS   C27 1910   1.712   5.838   6.585 -0.7644  0.0256 -0.0802
   15SAPS   H7R 1911   1.812   5.858   6.628 -0.4315 -0.3795 -0.6403
   15SAPS   H7S 1912   1.694   5.730   6.605 -0.4704  0.1165  0.6947
   15SAPS   C28 1913   1.590   5.899   6.646  0.1714  0.4258 -0.5637
   15SAPS   H8R 1914   1.528   5.961   6.580  0.0113  1.5493  0.5950
   15SAPS   C29 1915   1.545   5.893   6.773 -0.3844 -0.3116 -0.4038
   15SAPS   H9R 1916   1.474   5.963   6.819  0.5028  0.2036  0.2342
   15SAPS  C210 1917   1.613   5.822   6.885 -0.0116  0.2906  0.4928
   15SAPS  H10R 1918   1.630   5.891   6.970 -1.7753  1.0702  0.2551
   15SAPS  H10S 1919   1.706   5.773   6.849 -0.7195 -0.2266 -0.7145
   15SAPS  C211 1920   1.523   5.712   6.929 -0.3548  0.3296 -0.3012
   15SAPS  H11R 1921   1.491   5.634   6.858 -2.0815  2.7736 -2.3972
   15SAPS  C212 1922   1.478   5.700   7.055 -0.2965 -0.1327  0.0122
   15SAPS  H12R 1923   1.425   5.607   7.079  3.6569 -2.6854 -0.2010
   15SAPS  C213 1924   1.506   5.786   7.174 -0.1696 -0.0873  0.5999
   15SAPS  H13R 1925   1.573   5.874   7.166  1.5857 -1.5911 -3.0097
   15SAPS  H13S 1926   1.556   5.726   7.253  0.2588  4.8058  4.5509
   15SAPS  C214 1927   1.378   5.836   7.232  0.4110 -0.6958  0.0263
   15SAPS  H14R 1928   1.288   5.774   7.231 -1.4148  1.8084 -0.0036
   15SAPS  C215 1929   1.357   5.948   7.302 -0.2053  1.0781  0.8015
   15SAPS  H15R 1930   1.253   5.958   7.335 -1.1061  0.8826 -1.7905
   15SAPS  C216 1931   1.451   6.054   7.330 -0.4052  0.0135 -0.5772
   15SAPS  H16R 1932   1.401   6.145   7.369 -0.5035 -0.2756 -0.0086
   15SAPS  H16S 1933   1.506   6.086   7.240  0.6973  0.8323  0.3563
   15SAPS  C217 1934   1.555   6.014   7.449  0.0529  0.2681  0.5544
   15SAPS  H17R 1935   1.617   6.106   7.463  0.8291  0.0679 -1.2484
   15SAPS  H17S 1936   1.627   5.934   7.422 -0.2920 -0.3235  1.3515
   15SAPS  C218 1937   1.493   5.970   7.580  0.0791 -0.1363 -0.0695
   15SAPS  H18R 1938   1.564   5.901   7.630  0.4879 -1.2832 -2.1336
   15SAPS  H18S 1939   1.404   5.905   7.564  0.0367 -0.5374  1.6080
   15SAPS  C219 1940   1.470   6.085   7.680 -0.6892  0.7790  0.1151
   15SAPS  H19R 1941   1.407   6.055   7.767 -1.0163 -0.1773 -0.4404
   15SAPS  H19S 1942   1.418   6.166   7.624  3.9840  2.5604 -2.1793
   15SAPS  C220 1943   1.597   6.145   7.735 -0.3488  0.2592  0.0715
   15SAPS  H20R 1944   1.674   6.172   7.659  0.1579 -1.5054 -0.0806
   15SAPS  H20S 1945   1.646   6.067   7.795  1.8785  1.4735 -0.0670
   15SAPS  H20T 1946   1.576   6.227   7.807 -0.3385 -0.9650  1.4961
   15SAPS   C33 1947   2.022   5.063   6.529 -0.2406  0.0916  0.0810
   15SAPS   H3X 1948   1.971   4.965   6.518 -1.2691  0.6714 -0.4389
   15SAPS   H3Y 1949   1.954   5.114   6.600  0.6715 -2.3874  2.9441
   15SAPS   C34 1950   2.158   5.035   6.581 -0.0987  0.0510  0.1250
   15SAPS   H4X 1951   2.215   4.972   6.510 -1.8710 -1.9288  0.3633
   15SAPS   H4Y 1952   2.149   4.958   6.660  0.3269 -3.3160 -2.8750
   15SAPS   C35 1953   2.227   5.159   6.631 -0.6917  0.5083  0.2760
   15SAPS   H5X 1954   2.243   5.221   6.540 -2.0470 -0.2881 -0.5433
   15SAPS   H5Y 1955   2.331   5.128   6.655 -0.1010 -0.2495 -2.8786
   15SAPS   C36 1956   2.153   5.234   6.740 -0.5920 -0.3443  1.1933
   15SAPS   H6X 1957   2.052   5.262   6.703  0.7897 -0.0804 -2.7500
   15SAPS   H6Y 1958   2.211   5.327   6.756 -2.4983  0.8831  1.3745
   15SAPS   C37 1959   2.142   5.160   6.878 -0.6048  0.3642 -0.2976
   15SAPS   H7X 1960   2.245   5.146   6.919 -0.0490  1.0537 -1.4286
   15SAPS   H7Y 1961   2.095   5.060   6.865  0.0088  0.0423 -0.1074
   15SAPS   C38 1962   2.070   5.234   6.983  0.9406  0.1542 -0.4454
   15SAPS   H8X 1963   1.963   5.249   6.956  0.5994 -2.6783 -0.8952
   15SAPS   H8Y 1964   2.123   5.330   7.001  0.4496  0.3640 -0.0868
   15SAPS   C39 1965   2.065   5.165   7.123 -0.5940 -0.9881  0.1014
   15SAPS   H9X 1966   2.168   5.155   7.162  0.1831 -1.2988 -1.9081
   15SAPS   H9Y 1967   2.020   5.064   7.117  0.1421 -1.2962 -0.2803
   15SAPS  C310 1968   1.976   5.246   7.214  0.8638  0.0161 -0.1506
   15SAPS  H10X 1969   1.871   5.225   7.188  1.3213 -2.3822 -0.2629
   15SAPS  H10Y 1970   1.990   5.355   7.199  1.8479  0.2554  2.0790
   15SAPS  C311 1971   1.998   5.212   7.366  0.1082  0.1588  0.6047
   15SAPS  H11X 1972   2.101   5.237   7.398  0.4354  2.8700 -2.0758
   15SAPS  H11Y 1973   2.000   5.102   7.382  0.9986  0.1787  0.6566
   15SAPS  C312 1974   1.893   5.283   7.458 -0.2893 -0.2013  0.0837
   15SAPS  H12X 1975   1.795   5.264   7.408 -0.2004  1.3127 -0.7270
   15SAPS  H12Y 1976   1.902   5.393   7.469 -0.0482 -0.4678  3.4100
   15SAPS  C313 1977   1.896   5.220   7.595 -0.5665 -0.2820 -0.5243
   15SAPS  H13X 1978   2.004   5.195   7.601 -0.3553  0.8304  0.9942
   15SAPS  H13Y 1979   1.844   5.123   7.605 -1.2637 -0.0416 -1.6503
   15SAPS  C314 1980   1.855   5.321   7.706 -0.1464 -0.4301  0.3558
   15SAPS  H14X 1981   1.763   5.376   7.676 -0.6423 -0.4210  1.7954
   15SAPS  H14Y 1982   1.936   5.397   7.711 -0.7597  0.6252 -3.0585
   15SAPS  C315 1983   1.842   5.255   7.841 -0.3212  0.4254 -0.5131
   15SAPS  H15X 1984   1.938   5.201   7.851 -0.4074  0.0807 -1.4482
   15SAPS  H15Y 1985   1.755   5.187   7.852  1.2699 -1.6783 -0.3386
   15SAPS  C316 1986   1.829   5.364   7.949 -0.0964 -0.0151 -0.0885
   15SAPS  H16X 1987   1.741   5.424   7.918 -1.9204 -2.4411  0.0764
   15SAPS  H16Y 1988   1.907   5.443   7.948  0.3790 -0.4388 -2.5448
   15SAPS  C317 1989   1.819   5.309   8.092  0.8276  0.3671 -0.7371
   15SAPS  H17X 1990   1.919   5.277   8.129 -0.2633 -2.7714 -0.2401
   15SAPS  H17Y 1991   1.749   5.224   8.103  3.7433 -1.8517  3.2694
   15SAPS  C318 1992   1.791   5.427   8.192  0.6645  0.5216 -0.1337
   15SAPS  H18X 1993   1.875   5.495   8.167  1.2400 -0.0151  0.3073
   15SAPS  H18Y 1994   1.789   5.401   8.300  0.4554 -1.0955 -0.5145
   15SAPS  H18Z 1995   1.693   5.477   8.172  0.3893  0.2600  0.5371
   16SAPS     N 1996   2.340   2.363   6.014 -0.5012  0.6426  0.3181
   16SAPS   HN1 1997   2.399   2.301   6.073  0.0959  1.1517  0.2577
   16SAPS   HN2 1998   2.382   2.373   5.920  2.0643 -1.0736  1.1774
   16SAPS   HN3 1999   2.332   2.461   6.048 -1.9304  1.3662 -1.8944
   16SAPS   C12 2000   2.202   2.310   6.017 -0.0726  0.6031  0.3161
   16SAPS  H12A 2001   2.147   2.388   5.967 -0.2787  0.9347  1.0565
   16SAPS   C13 2002   2.174   2.174   5.944 -0.0698  0.1960  0.2336
   16SAPS  O13A 2003   2.273   2.106   5.900 -0.5619  0.6756 -0.5734
   16SAPS  O13B 2004   2.053   2.137   5.929  0.6102 -1.1236 -0.1719
   16SAPS   C11 2005   2.151   2.298   6.165 -0.3142  0.1577 -0.1058
   16SAPS  H11A 2006   2.058   2.237   6.151 -1.8114  2.6173 -1.6177
   16SAPS  H11B 2007   2.121   2.393   6.214  1.3722  0.2292  0.8692
   16SAPS     P 2008   2.229   2.194   6.392  0.5793  0.0489  0.0683
   16SAPS   O13 2009   2.092   2.134   6.404 -0.0739  0.1607  0.1172
   16SAPS   O14 2010   2.340   2.115   6.441 -0.0363  0.3495 -0.1872
   16SAPS   O12 2011   2.255   2.233   6.243  0.2418  0.2644 -0.7040
   16SAPS   O11 2012   2.208   2.327   6.463 -0.3133 -0.0510 -0.0667
   16SAPS    C1 2013   2.316   2.420   6.466 -0.9246 -0.1879  0.3494
   16SAPS    HA 2014   2.375   2.410   6.372 -1.0770 -2.5625  0.4365
   16SAPS    HB 2015   2.272   2.522   6.459 -0.3998  0.0021 -0.2364
   16SAPS    C2 2016   2.415   2.398   6.590  0.1729 -1.1114 -0.2876
   16SAPS    HS 2017   2.495   2.331   6.551 -0.8505  0.0776 -5.1758
   16SAPS   O21 2018   2.345   2.352   6.702  0.5103  0.5919 -0.1151
   16SAPS   C21 2019   2.415   2.258   6.776  0.6382 -0.1846  0.0787
   16SAPS   O22 2020   2.529   2.223   6.752  0.9106  0.0435 -0.1644
   16SAPS   C22 2021   2.335   2.195   6.883 -0.3677  0.1947 -0.3854
   16SAPS   H2R 2022   2.258   2.270   6.913 -1.0125 -0.6324  0.0835
   16SAPS   H2S 2023   2.287   2.103   6.844 -0.7362 -0.2408  1.0069
   16SAPS    C3 2024   2.496   2.531   6.630  0.9997  0.5630  0.9066
   16SAPS    HX 2025   2.420   2.612   6.630 -0.9573 -1.1698 -0.4577
   16SAPS    HY 2026   2.566   2.560   6.550  0.8747 -0.1244  0.5471
   16SAPS   O31 2027   2.552   2.533   6.758  0.3463 -0.3875  0.1655
   16SAPS   C31 2028   2.678   2.575   6.763  0.0855  0.2217  0.0397
   16SAPS   O32 2029   2.747   2.614   6.672  0.7991 -0.3683 -0.7235
   16SAPS   C32 2030   2.733   2.569   6.903  0.4387  0.0300  0.5319
   16SAPS   H2X 2031   2.732   2.466   6.946  1.7364  0.6561  2.1670
   16SAPS   H2Y 2032   2.679   2.645   6.964  2.7976  1.3021  1.1362
   16SAPS   C23 2033   2.428   2.152   7.000 -0.2783  0.1146  0.2678
   16SAPS   H3R 2034   2.483   2.240   7.039  1.3759  0.5797 -2.7898
   16SAPS   H3S 2035   2.496   2.075   6.957 -3.1190 -1.0535 -2.6653
   16SAPS   C24 2036   2.344   2.102   7.126 -0.2216  0.2305 -0.0206
   16SAPS   H4R 2037   2.416   2.039   7.182 -1.9181 -2.1483 -0.3422
   16SAPS   H4S 2038   2.263   2.036   7.087 -1.1827  2.1395 -1.3754
   16SAPS   C25 2039   2.285   2.215   7.213 -0.1637  0.1963 -0.7651
   16SAPS   H5R 2040   2.199   2.273   7.175 -2.2874  0.0565  3.2375
   16SAPS   C26 2041   2.325   2.249   7.335 -0.1510  0.9442  0.2136
   16SAPS   H6R 2042   2.266   2.326   7.388  0.4160  0.7372  1.1744
   16SAPS   C27 2043   2.442   2.187   7.414  0.0538  0.2612  0.0402
   16SAPS   H7R 2044   2.493   2.100   7.368 -0.5114 -0.9776  1.6607
   16SAPS   H7S 2045   2.411   2.145   7.512 -1.9996 -0.2126 -0.7459
   16SAPS   C28 2046   2.547   2.291   7.437 -0.2099  0.4886  0.5038
   16SAPS   H8R 2047   2.580   2.345   7.347 -2.0187  1.1454  0.2009
   16SAPS   C29 2048   2.599   2.327   7.558  0.0358 -0.6833  0.1045
   16SAPS   H9R 2049   2.679   2.401   7.565 -1.0167  0.3794  1.4404
   16SAPS  C210 2050   2.551   2.263   7.680  0.5769  0.6323  0.0564
   16SAPS  H10R 2051   2.615   2.279   7.769 -0.5346  1.4677  0.7297
   16SAPS  H10S 2052   2.559   2.153   7.668 -1.5122  0.1763  2.1667
   16SAPS  C211 2053   2.413   2.298   7.729  0.1806 -0.1888  0.0744
   16SAPS  H11R 2054   2.325   2.261   7.673 -1.2279  0.0927  2.0214
   16SAPS  C212 2055   2.386   2.385   7.830  1.1537  0.0331  0.2960
   16SAPS  H12R 2056   2.280   2.406   7.854 -0.0191 -4.5209  0.2139
   16SAPS  C213 2057   2.476   2.455   7.924 -0.5550 -0.0627 -0.4606
   16SAPS  H13R 2058   2.422   2.534   7.980 -1.4497  0.8200 -2.4597
   16SAPS  H13S 2059   2.558   2.501   7.865 -1.1430 -1.6992 -2.7016
   16SAPS  C214 2060   2.531   2.349   8.020 -0.7950 -0.9628  0.0376
   16SAPS  H14R 2061   2.623   2.300   7.985 -0.0593 -1.7518  2.8144
   16SAPS  C215 2062   2.496   2.321   8.147 -0.7421 -0.6227  0.3231
   16SAPS  H15R 2063   2.555   2.246   8.202  1.0861  1.0592  0.8110
   16SAPS  C216 2064   2.389   2.384   8.230  0.0085 -0.2756  0.4708
   16SAPS  H16R 2065   2.306   2.310   8.217 -0.8628  0.8094 -0.3208
   16SAPS  H16S 2066   2.347   2.478   8.188 -1.2722  0.4030  3.0754
   16SAPS  C217 2067   2.430   2.387   8.377  0.3359 -0.5473 -0.4099
   16SAPS  H17R 2068   2.446   2.286   8.420 -1.8436  0.2207  2.5154
   16SAPS  H17S 2069   2.354   2.431   8.445  1.5316  0.7245  0.1460
   16SAPS  C218 2070   2.562   2.467   8.405 -0.2010  0.8711  0.3433
   16SAPS  H18R 2071   2.568   2.546   8.326 -1.4916  0.2636 -0.4040
   16SAPS  H18S 2072   2.660   2.416   8.395  0.0699  1.6936 -1.6962
   16SAPS  C219 2073   2.554   2.542   8.538  0.8719  0.1495 -0.0471
   16SAPS  H19R 2074   2.467   2.609   8.524  1.1292  0.7870  1.2519
   16SAPS  H19S 2075   2.646   2.603   8.552  0.0297  1.0140  2.2050
   16SAPS  C220 2076   2.547   2.453   8.657  0.2214 -0.7967 -0.5526
   16SAPS  H20R 2077   2.445   2.409   8.666  0.8271 -3.0020 -3.3525
   16SAPS  H20S 2078   2.566   2.522   8.742 -0.5705  0.3083 -1.2452
   16SAPS  H20T 2079   2.625   2.374   8.664  1.1714  0.2663  2.8561
   16SAPS   C33 2080   2.883   2.602   6.911  0.4386 -0.8061  0.3975
   16SAPS   H3X 2081   2.907   2.694   6.854 -1.5672 -0.8346 -0.6051
   16SAPS   H3Y 2082   2.932   2.514   6.863  0.1424 -1.1952  0.8060
   16SAPS   C34 2083   2.937   2.639   7.050  0.1442  0.2730  0.1491
   16SAPS   H4X 2084   2.874   2.717   7.097 -1.2002 -1.2345  0.9540
   16SAPS   H4Y 2085   3.039   2.678   7.028  0.2192 -0.1094 -0.1959
   16SAPS   C35 2086   2.931   2.510   7.140 -0.4970 -0.4001  0.6638
   16SAPS   H5X 2087   3.009   2.442   7.100  1.0577  1.8564 -0.3253
   16SAPS   H5Y 2088   2.826   2.476   7.153 -0.6036 -0.0909  0.6064
   16SAPS   C36 2089   2.983   2.539   7.278  0.1095  0.0319 -0.2621
   16SAPS   H6X 2090   2.946   2.640   7.305 -0.3884 -0.2761  0.2465
   16SAPS   H6Y 2091   3.091   2.563   7.273  0.2962  0.1089  2.3770
   16SAPS   C37 2092   2.975   2.433   7.390 -0.4694 -0.0581 -0.1741
   16SAPS   H7X 2093   3.032   2.342   7.361 -0.7547 -0.8775  1.6865
   16SAPS   H7Y 2094   2.873   2.393   7.408  0.1594 -1.2816  0.8447
   16SAPS   C38 2095   3.030   2.499   7.512  0.4136 -0.3789 -0.6889
   16SAPS   H8X 2096   3.015   2.609   7.515 -1.4686 -0.6149  1.8777
   16SAPS   H8Y 2097   3.139   2.477   7.503  0.2935 -1.0647 -0.5568
   16SAPS   C39 2098   2.967   2.431   7.633 -0.1294 -0.3707 -0.2164
   16SAPS   H9X 2099   2.974   2.321   7.616  2.4210 -0.2151 -0.5525
   16SAPS   H9Y 2100   2.858   2.448   7.636 -0.2505 -0.7389 -1.7896
   16SAPS  C310 2101   3.042   2.480   7.750  0.2946 -0.0073 -0.1994
   16SAPS  H10X 2102   3.050   2.590   7.766  1.5193 -0.1882  0.5588
   16SAPS  H10Y 2103   3.146   2.444   7.733  0.3972  1.2463 -2.9065
   16SAPS  C311 2104   2.987   2.423   7.880 -0.7600 -0.2100 -0.4941
   16SAPS  H11X 2105   3.003   2.314   7.891 -0.7412 -0.0462  1.5305
   16SAPS  H11Y 2106   2.878   2.443   7.895 -0.7997 -0.3451 -0.6004
   16SAPS  C312 2107   3.054   2.490   8.012  0.2551  0.5214 -0.0382
   16SAPS  H12X 2108   3.035   2.598   8.031 -1.1043 -0.0539  2.2172
   16SAPS  H12Y 2109   3.164   2.484   7.996  0.5858  3.4734  0.5830
   16SAPS  C313 2110   3.025   2.390   8.122 -0.3321  0.5147  0.1174
   16SAPS  H13X 2111   3.024   2.285   8.085  2.1605 -0.0257  1.4102
   16SAPS  H13Y 2112   2.923   2.399   8.165 -0.2073  0.2420  0.4729
   16SAPS  C314 2113   3.132   2.393   8.230  0.4894 -0.3733  0.5023
   16SAPS  H14X 2114   3.230   2.371   8.183  0.6686 -0.5394  0.9476
   16SAPS  H14Y 2115   3.118   2.316   8.309  2.1950  1.6353  2.9259
   16SAPS  C315 2116   3.140   2.533   8.290  0.0855 -0.2137 -0.4774
   16SAPS  H15X 2117   3.177   2.606   8.214 -0.3840  1.2967  0.6838
   16SAPS  H15Y 2118   3.214   2.520   8.372 -0.6037 -1.4616 -0.0286
   16SAPS  C316 2119   3.014   2.572   8.370  0.5039  0.0371 -0.0554
   16SAPS  H16X 2120   2.980   2.493   8.439 -1.1393  2.7040  2.3815
   16SAPS  H16Y 2121   2.927   2.584   8.303 -0.9229 -0.6930  1.6087
   16SAPS  C317 2122   3.032   2.687   8.471  0.2164 -0.0834 -0.1610
   16SAPS  H17X 2123   3.129   2.661   8.519 -0.2183 -1.2151  0.1589
   16SAPS  H17Y 2124   2.950   2.682   8.547  1.0460  0.3038  0.7777
   16SAPS  C318 2125   3.039   2.821   8.409 -0.0440 -0.2133 -0.0675
   16SAPS  H18X 2126   3.072   2.901   8.480  1.7620 -1.0150  0.0510
   16SAPS  H18Y 2127   2.943   2.854   8.365  0.0025  0.7036  0.4818
   16SAPS  H18Z 2128   3.110   2.820   8.324 -1.5107  2.4572 -1.4645
   17SAPC     N 2129   0.985   6.853  10.919 -0.3843 -0.5167  0.2318
   17SAPC   C12 2130   1.045   6.730  10.855 -0.3500 -0.4930  0.3372
   17SAPC  H12A 2131   0.966   6.696  10.790 -0.0701 -0.2698 -0.1290
   17SAPC  H12B 2132   1.068   6.656  10.930  2.0174 -0.1140  0.0592
   17SAPC   C13 2133   0.867   6.808  11.005  0.3990 -0.5400 -0.1876
   17SAPC  H13A 2134   0.799   6.739  10.958 -0.5269 -0.5584  1.1371
   17SAPC  H13B 2135   0.907   6.758  11.091 -1.1278 -1.1377  0.2044
   17SAPC  H13C 2136   0.812   6.892  11.045 -0.5968 -2.0856  1.8392
   17SAPC   C14 2137   1.066   6.934  11.018 -0.4154  1.0527 -0.2156
   17SAPC  H14A 2138   1.171   6.926  10.997 -0.3790 -0.9987  0.5070
   17SAPC  H14B 2139   1.049   7.040  11.024 -1.5030  0.8300  1.4557
   17SAPC  H14C 2140   1.074   6.885  11.114  1.6852 -1.1359 -1.4020
   17SAPC   C15 2141   0.916   6.928  10.812  0.1510 -0.2604 -0.5239
   17SAPC  H15A 2142   0.990   6.985  10.759  0.6003  0.1785  0.5459
   17SAPC  H15B 2143   0.860   6.861  10.748  0.6646  0.0660 -1.3358
   17SAPC  H15C 2144   0.847   6.991  10.866  3.0285  0.2200  2.9681
   17SAPC   C11 2145   1.161   6.749  10.754 -0.9163 -0.5626 -0.0021
   17SAPC  H11A 2146   1.206   6.651  10.727 -2.1013 -1.5072  1.3140
   17SAPC  H11B 2147   1.243   6.805  10.804 -1.3928  0.2227 -0.0754
   17SAPC     P 2148   1.062   6.738  10.509 -0.4197 -0.2008  0.3825
   17SAPC   O13 2149   1.002   6.605  10.552  0.1293 -0.2092  0.0673
   17SAPC   O14 2150   0.981   6.824  10.421 -0.6239 -0.7936  0.1456
   17SAPC   O12 2151   1.119   6.814  10.634  0.4491  0.2534 -0.4817
   17SAPC   O11 2152   1.199   6.703  10.427 -0.6156  0.2408  0.3230
   17SAPC    C1 2153   1.315   6.779  10.455  0.2776  0.0720  0.5566
   17SAPC    HA 2154   1.289   6.881  10.491  0.7735  0.6920 -0.7533
   17SAPC    HB 2155   1.371   6.727  10.536  1.6870  2.0808  0.9818
   17SAPC    C2 2156   1.405   6.810  10.330  0.6639  0.0938  0.3988
   17SAPC    HS 2157   1.476   6.888  10.365 -0.8501  1.4404  0.6154
   17SAPC   O21 2158   1.315   6.854  10.224 -0.6565 -0.2280 -0.4564
   17SAPC   C21 2159   1.271   6.975  10.230 -0.9806 -0.0707  0.4196
   17SAPC   O22 2160   1.297   7.057  10.321 -0.1756 -0.2298  0.0136
   17SAPC   C22 2161   1.203   7.015  10.102  0.1584 -0.0295  0.3862
   17SAPC   H2R 2162   1.183   6.935  10.027  2.7383  1.9169 -2.6475
   17SAPC   H2S 2163   1.100   7.050  10.123 -0.0987  0.0222 -0.8792
   17SAPC    C3 2164   1.473   6.671  10.277 -0.8101 -0.7128 -0.2298
   17SAPC    HX 2165   1.391   6.596  10.277 -0.8951 -0.6318  0.7674
   17SAPC    HY 2166   1.548   6.628  10.346 -0.7065 -0.6264 -0.2885
   17SAPC   O31 2167   1.536   6.695  10.148 -0.7581  0.0129 -0.2755
   17SAPC   C31 2168   1.582   6.573  10.100  0.6240 -0.1234 -0.0115
   17SAPC   O32 2169   1.573   6.471  10.164 -0.1184 -0.3795  0.0065
   17SAPC   C32 2170   1.629   6.593   9.955 -0.5758  0.0302  0.3006
   17SAPC   H2X 2171   1.725   6.648   9.970  0.5201 -2.2806  2.5009
   17SAPC   H2Y 2172   1.560   6.646   9.886 -1.5011 -1.9984 -0.4150
   17SAPC   C23 2173   1.274   7.129  10.022  0.7118  0.0528  0.1623
   17SAPC   H3R 2174   1.290   7.207  10.100 -1.2829 -0.1115  0.7846
   17SAPC   H3S 2175   1.207   7.182   9.952  0.9378  0.1388  0.0078
   17SAPC   C24 2176   1.399   7.079   9.941 -0.5621  0.5043 -0.3197
   17SAPC   H4R 2177   1.468   7.055  10.025 -0.2368  1.7694 -0.1976
   17SAPC   H4S 2178   1.451   7.161   9.887 -0.4820  0.1640 -0.7586
   17SAPC   C25 2179   1.380   6.964   9.848 -0.2539 -0.0494 -0.3929
   17SAPC   H5R 2180   1.378   6.866   9.899  0.0487 -0.3054 -0.8570
   17SAPC   C26 2181   1.379   6.967   9.711  0.9167 -0.1542  0.7274
   17SAPC   H6R 2182   1.391   6.877   9.650  0.8155  1.9101 -2.5506
   17SAPC   C27 2183   1.387   7.091   9.631 -0.1300 -0.1950  0.1383
   17SAPC   H7R 2184   1.319   7.165   9.676  1.6654  1.1507  0.7752
   17SAPC   H7S 2185   1.348   7.066   9.530  1.9998  2.4142 -1.4740
   17SAPC   C28 2186   1.527   7.145   9.620  0.2447  0.0746 -0.1369
   17SAPC   H8R 2187   1.599   7.132   9.702  0.1466 -1.1856 -0.2289
   17SAPC   C29 2188   1.577   7.203   9.509 -0.5334  0.6720 -0.3885
   17SAPC   H9R 2189   1.677   7.249   9.508  0.3060 -1.0937 -1.1276
   17SAPC  C210 2190   1.516   7.226   9.377  0.0684 -0.1734  0.6014
   17SAPC  H10R 2191   1.542   7.325   9.336  3.2744 -0.9002  0.6536
   17SAPC  H10S 2192   1.405   7.237   9.374  0.0451  1.0295  3.0831
   17SAPC  C211 2193   1.549   7.107   9.285 -0.3208  0.0000  0.1306
   17SAPC  H11R 2194   1.552   7.015   9.344  0.2890 -0.9353 -1.3082
   17SAPC  C212 2195   1.588   7.105   9.155  0.3180 -1.1388  0.1111
   17SAPC  H12R 2196   1.603   7.006   9.111  1.4601 -0.9575  0.0694
   17SAPC  C213 2197   1.597   7.229   9.063  0.3827 -0.7071  0.4352
   17SAPC  H13R 2198   1.666   7.200   8.981  1.6904 -1.5966  1.7825
   17SAPC  H13S 2199   1.640   7.307   9.129  0.1589 -1.1836  1.1714
   17SAPC  C214 2200   1.453   7.264   9.021 -0.2165 -0.2861  0.4553
   17SAPC  H14R 2201   1.382   7.275   9.105 -2.4636 -2.5921 -0.9815
   17SAPC  C215 2202   1.415   7.282   8.896 -0.6312 -0.1066  0.2440
   17SAPC  H15R 2203   1.310   7.305   8.872 -0.4889 -0.0645 -0.3358
   17SAPC  C216 2204   1.509   7.278   8.778 -0.0072  0.1244 -1.0155
   17SAPC  H16R 2205   1.455   7.206   8.713 -0.0364 -0.8664  0.0688
   17SAPC  H16S 2206   1.603   7.220   8.794 -1.1138 -1.4858 -0.0278
   17SAPC  C217 2207   1.526   7.417   8.707  0.4735  0.0731 -0.0474
   17SAPC  H17R 2208   1.569   7.483   8.785 -2.4816  0.8281  1.0631
   17SAPC  H17S 2209   1.433   7.474   8.687  0.6275  0.9597  1.5957
   17SAPC  C218 2210   1.606   7.405   8.578 -0.7854 -0.4666  0.8778
   17SAPC  H18R 2211   1.621   7.508   8.540  0.7869 -2.0861 -3.4167
   17SAPC  H18S 2212   1.550   7.351   8.499 -0.6855  1.8346 -0.8448
   17SAPC  C219 2213   1.746   7.346   8.579 -0.5154  0.7375  0.4801
   17SAPC  H19R 2214   1.748   7.239   8.611  0.3327  0.2496 -1.0801
   17SAPC  H19S 2215   1.806   7.415   8.641 -0.9182  0.6853  0.9376
   17SAPC  C220 2216   1.808   7.339   8.437 -0.1862  0.1605  0.1487
   17SAPC  H20R 2217   1.738   7.288   8.367  0.8884  0.1839 -0.9680
   17SAPC  H20S 2218   1.909   7.294   8.441  0.1774  0.9756  0.4722
   17SAPC  H20T 2219   1.822   7.440   8.394  2.5332  0.4055  1.4320
   17SAPC   C33 2220   1.673   6.465   9.884 -0.3737  0.1634  0.3300
   17SAPC   H3X 2221   1.591   6.390   9.876 -0.5890  0.2224  1.6865
   17SAPC   H3Y 2222   1.755   6.413   9.937  0.6928  0.8623 -0.5975
   17SAPC   C34 2223   1.731   6.493   9.744 -0.8263 -0.0145  0.1562
   17SAPC   H4X 2224   1.803   6.577   9.736 -0.4860 -0.4110 -1.1031
   17SAPC   H4Y 2225   1.645   6.539   9.691  1.7599  2.7568 -2.0402
   17SAPC   C35 2226   1.794   6.366   9.682 -0.1112 -0.6178  0.4790
   17SAPC   H5X 2227   1.732   6.277   9.705  1.0352 -2.3314 -2.5002
   17SAPC   H5Y 2228   1.899   6.350   9.716  0.3986 -0.7098 -1.0714
   17SAPC   C36 2229   1.787   6.393   9.527 -0.1618  0.4969  0.4648
   17SAPC   H6X 2230   1.871   6.462   9.502 -0.8655  1.0318 -0.4904
   17SAPC   H6Y 2231   1.705   6.458   9.489  0.5800  2.1212  1.5339
   17SAPC   C37 2232   1.814   6.271   9.439  0.3674  0.6738  0.2778
   17SAPC   H7X 2233   1.736   6.195   9.459  1.5765 -0.3902  1.1500
   17SAPC   H7Y 2234   1.903   6.224   9.486  0.2729  2.5197  2.4933
   17SAPC   C38 2235   1.831   6.299   9.295  0.1487 -0.4991  0.3233
   17SAPC   H8X 2236   1.866   6.403   9.278  3.0565 -1.1133  1.8853
   17SAPC   H8Y 2237   1.729   6.289   9.251 -0.0356  0.4948  0.5175
   17SAPC   C39 2238   1.926   6.206   9.230 -0.0782 -0.0226 -0.3531
   17SAPC   H9X 2239   2.011   6.194   9.300  0.2790  2.0244 -0.3604
   17SAPC   H9Y 2240   1.974   6.234   9.134  0.3639  0.6805  0.0645
   17SAPC  C310 2241   1.860   6.081   9.195 -0.4826  0.3677  0.5577
   17SAPC  H10X 2242   1.785   6.112   9.119 -0.0234  0.8806  0.3053
   17SAPC  H10Y 2243   1.797   6.030   9.272  2.4027 -3.1466  0.8562
   17SAPC  C311 2244   1.958   5.972   9.136  0.1137 -0.2124 -0.0380
   17SAPC  H11X 2245   1.888   5.897   9.094 -0.6671  0.0745  0.7199
   17SAPC  H11Y 2246   2.017   5.921   9.216 -0.8096 -1.2043  0.0369
   17SAPC  C312 2247   2.050   6.010   9.016 -0.2396  0.4763  0.6138
   17SAPC  H12X 2248   2.124   5.928   9.002 -0.5345  0.4549 -0.9106
   17SAPC  H12Y 2249   2.099   6.104   9.050  0.4666 -0.0302  1.0252
   17SAPC  C313 2250   1.981   6.024   8.887 -0.1862 -0.1644 -0.2968
   17SAPC  H13X 2251   1.909   6.109   8.892  3.2080  2.8677  0.9122
   17SAPC  H13Y 2252   1.941   5.925   8.856  1.0041 -1.8642  3.0863
   17SAPC  C314 2253   2.081   6.057   8.770 -0.0348 -0.3084 -0.5639
   17SAPC  H14X 2254   2.022   6.043   8.677 -1.6063  0.6251  0.2668
   17SAPC  H14Y 2255   2.170   5.990   8.777  0.4028  0.4563  3.1002
   17SAPC  C315 2256   2.120   6.210   8.776 -0.3317 -0.1851  0.4174
   17SAPC  H15X 2257   2.200   6.224   8.852 -0.1756  0.1139  0.2007
   17SAPC  H15Y 2258   2.026   6.262   8.807 -1.4650 -2.7090  1.4882
   17SAPC  C316 2259   2.155   6.267   8.638  0.6707  0.0168  0.6366
   17SAPC  H16X 2260   2.180   6.375   8.640  0.0582  0.2931 -2.1359
   17SAPC  H16Y 2261   2.068   6.250   8.571  0.9267 -0.9284  0.5272
   17SAPC  C317 2262   2.281   6.203   8.584 -0.5444  0.1547 -0.3301
   17SAPC  H17X 2263   2.249   6.102   8.550  0.8742 -0.9869  1.5092
   17SAPC  H17Y 2264   2.354   6.185   8.667 -1.9698  0.2411  0.9926
   17SAPC  C318 2265   2.350   6.278   8.470  0.3130  0.3502  0.1814
   17SAPC  H18X 2266   2.405   6.365   8.514 -1.2309  0.6404  1.6422
   17SAPC  H18Y 2267   2.427   6.219   8.416 -0.9999 -0.7827 -0.4976
   17SAPC  H18Z 2268   2.276   6.310   8.394 -1.4020 -1.5496  0.9730
   18SAPC     N 2269   6.490   5.328  10.480 -0.0623  0.4291  0.7470
   18SAPC   C12 2270   6.633   5.323  10.533  0.3838 -0.5273 -0.1369
   18SAPC  H12A 2271   6.646   5.220  10.562 -0.0988 -0.2344  1.1571
   18SAPC  H12B 2272   6.636   5.373  10.628 -1.9859 -1.4197  0.4650
   18SAPC   C13 2273   6.399   5.268  10.577  0.3244  0.2281  0.2081
   18SAPC  H13A 2274   6.413   5.328  10.665  3.0759  0.2127 -0.1486
   18SAPC  H13B 2275   6.298   5.266  10.537  0.6876  0.9625 -0.8049
   18SAPC  H13C 2276   6.419   5.168  10.613  2.2253  0.3870 -0.2841
   18SAPC   C14 2277   6.454   5.466  10.446  0.0959  0.1464 -0.2381
   18SAPC  H14A 2278   6.507   5.501  10.359 -0.0413  1.0250  0.0141
   18SAPC  H14B 2279   6.349   5.479  10.425  0.1526 -0.3884 -0.8981
   18SAPC  H14C 2280   6.477   5.541  10.521 -0.0829  0.7220 -0.7494
   18SAPC   C15 2281   6.491   5.244  10.354  0.4592  0.0693 -0.0983
   18SAPC  H15A 2282   6.395   5.236  10.306 -0.0644 -1.6550  1.1298
   18SAPC  H15B 2283   6.561   5.275  10.278  0.8957 -1.4704 -0.3595
   18SAPC  H15C 2284   6.528   5.146  10.380  0.0040 -0.1073 -0.0982
   18SAPC   C11 2285   6.743   5.373  10.437 -0.7833  0.9657  0.0661
   18SAPC  H11A 2286   6.831   5.381  10.504 -0.1585  1.4595 -0.7833
   18SAPC  H11B 2287   6.733   5.477  10.399 -0.5663  0.7674 -0.5544
   18SAPC     P 2288   6.870   5.173  10.320 -0.3504 -0.1292 -0.2148
   18SAPC   O13 2289   6.907   5.145  10.461  0.3922  0.0459 -0.7944
   18SAPC   O14 2290   6.834   5.063  10.233 -0.3365  0.0152  0.4132
   18SAPC   O12 2291   6.759   5.285  10.318  0.6310 -0.1240  0.0560
   18SAPC   O11 2292   6.993   5.250  10.253 -0.5192  0.2050 -0.0000
   18SAPC    C1 2293   7.035   5.382  10.273 -0.1641 -0.3812 -0.4930
   18SAPC    HA 2294   6.958   5.453  10.309  1.6597  2.8111 -2.3613
   18SAPC    HB 2295   7.108   5.372  10.356  0.9011  0.0636 -1.3470
   18SAPC    C2 2296   7.111   5.443  10.150  0.0538 -0.0744 -0.5694
   18SAPC    HS 2297   7.036   5.449  10.069 -0.2772 -0.9109 -0.3367
   18SAPC   O21 2298   7.231   5.369  10.115 -0.2888  0.0844  0.2538
   18SAPC   C21 2299   7.255   5.360   9.982 -0.3986 -0.1188  0.1324
   18SAPC   O22 2300   7.202   5.436   9.901 -0.2432 -0.2652 -0.0082
   18SAPC   C22 2301   7.320   5.224   9.945 -0.3756  0.2932  0.1670
   18SAPC   H2R 2302   7.430   5.243   9.941 -0.5561  1.2260 -1.7868
   18SAPC   H2S 2303   7.287   5.163  10.031  0.0772  1.9480  1.5634
   18SAPC    C3 2304   7.149   5.590  10.186  0.0791  0.5841 -0.1864
   18SAPC    HX 2305   7.214   5.570  10.274 -0.8920 -0.1497  0.3885
   18SAPC    HY 2306   7.061   5.648  10.221  1.6284  1.6136  2.2783
   18SAPC   O31 2307   7.225   5.655  10.078  0.3031  0.2070  0.0331
   18SAPC   C31 2308   7.152   5.739  10.004 -0.1078 -0.3723 -0.3116
   18SAPC   O32 2309   7.038   5.773  10.034 -0.0078  0.7808 -0.0566
   18SAPC   C32 2310   7.232   5.782   9.885 -0.2573  0.8995  0.1426
   18SAPC   H2X 2311   7.269   5.683   9.849 -0.7593  0.4103  0.9410
   18SAPC   H2Y 2312   7.313   5.847   9.925 -0.3777 -0.1644  2.2128
   18SAPC   C23 2313   7.268   5.163   9.818  0.3370 -0.4833 -0.6493
   18SAPC   H3R 2314   7.286   5.230   9.731  1.7034 -2.1005 -1.6705
   18SAPC   H3S 2315   7.158   5.153   9.825 -0.1516  3.4685 -0.0552
   18SAPC   C24 2316   7.319   5.018   9.792 -1.0569 -0.6407 -0.0218
   18SAPC   H4R 2317   7.249   4.955   9.733  0.4494 -2.7082  0.2947
   18SAPC   H4S 2318   7.327   4.973   9.893  1.4901  0.5885  0.4226
   18SAPC   C25 2319   7.462   5.025   9.731 -0.7961  0.2177 -0.1141
   18SAPC   H5R 2320   7.546   5.020   9.801 -0.8150  1.9677  0.0585
   18SAPC   C26 2321   7.496   5.023   9.601 -0.0949 -0.6280  0.0388
   18SAPC   H6R 2322   7.599   4.991   9.579 -0.1590 -1.2897  0.6578
   18SAPC   C27 2323   7.397   5.026   9.489  0.3300 -0.3224  0.2638
   18SAPC   H7R 2324   7.435   5.095   9.410 -0.1693  0.1805  0.4581
   18SAPC   H7S 2325   7.298   5.064   9.521 -0.1130 -1.0848 -0.2006
   18SAPC   C28 2326   7.375   4.885   9.433  0.0689 -0.4138  0.4948
   18SAPC   H8R 2327   7.367   4.813   9.515  0.5935  1.7630  2.5667
   18SAPC   C29 2328   7.384   4.834   9.301 -0.0832 -0.0904 -0.4164
   18SAPC   H9R 2329   7.354   4.729   9.286 -1.0330  0.2392 -0.9268
   18SAPC  C210 2330   7.413   4.903   9.173 -0.0242  0.1244  0.0465
   18SAPC  H10R 2331   7.523   4.914   9.161 -0.1061  0.6034 -0.2972
   18SAPC  H10S 2332   7.382   5.009   9.188  0.9481  0.5267 -0.7021
   18SAPC  C211 2333   7.350   4.840   9.046 -0.2412 -0.8946 -0.0948
   18SAPC  H11R 2334   7.270   4.766   9.062 -2.5959  1.7678  1.5045
   18SAPC  C212 2335   7.404   4.845   8.920  0.7636 -0.7014  0.1123
   18SAPC  H12R 2336   7.361   4.797   8.831  1.8781  1.2243 -1.5426
   18SAPC  C213 2337   7.537   4.903   8.884 -0.5346 -0.4514  0.7328
   18SAPC  H13R 2338   7.551   4.983   8.960 -0.3320 -0.9186  1.1982
   18SAPC  H13S 2339   7.521   4.951   8.786 -0.7925 -1.5183  0.2346
   18SAPC  C214 2340   7.668   4.826   8.883 -0.6154 -0.1239 -0.3728
   18SAPC  H14R 2341   7.717   4.828   8.981 -1.1971 -0.6602 -0.0627
   18SAPC  C215 2342   7.719   4.746   8.785  0.4176  0.8156 -0.0621
   18SAPC  H15R 2343   7.817   4.698   8.788 -0.2165 -0.4770  1.2981
   18SAPC  C216 2344   7.650   4.718   8.648  0.1115 -0.1142 -1.1258
   18SAPC  H16R 2345   7.540   4.709   8.663  0.0023 -0.6182 -2.1296
   18SAPC  H16S 2346   7.678   4.622   8.599 -0.9962 -1.3482  0.5467
   18SAPC  C217 2347   7.670   4.838   8.552  0.3273 -0.5404 -0.2274
   18SAPC  H17R 2348   7.779   4.859   8.538  0.3256  1.2504  1.8976
   18SAPC  H17S 2349   7.624   4.930   8.594 -0.4257 -1.8473  1.9383
   18SAPC  C218 2350   7.626   4.795   8.417 -0.1521 -0.0276 -0.5147
   18SAPC  H18R 2351   7.564   4.703   8.425 -0.7971  0.5820  2.9513
   18SAPC  H18S 2352   7.714   4.767   8.355  2.1738  4.4485  0.4028
   18SAPC  C219 2353   7.546   4.900   8.341 -0.3877  0.8387  0.1269
   18SAPC  H19R 2354   7.588   5.001   8.356  1.3135 -0.1372  2.4070
   18SAPC  H19S 2355   7.438   4.906   8.369 -0.7940  0.6752 -1.3298
   18SAPC  C220 2356   7.539   4.862   8.194 -0.3374 -0.2290  0.6482
   18SAPC  H20R 2357   7.498   4.760   8.177  2.0465 -1.4884  2.0515
   18SAPC  H20S 2358   7.637   4.855   8.143 -0.6881  0.4422 -0.1629
   18SAPC  H20T 2359   7.465   4.931   8.146 -0.1831 -1.5774 -1.6753
   18SAPC   C33 2360   7.150   5.858   9.788  0.3733  0.2689 -0.0696
   18SAPC   H3X 2361   7.120   5.958   9.826 -2.4782 -0.1578 -0.9646
   18SAPC   H3Y 2362   7.066   5.800   9.746  1.4541 -0.3382 -1.4724
   18SAPC   C34 2363   7.241   5.903   9.670 -0.3438  0.0677  0.9886
   18SAPC   H4X 2364   7.342   5.937   9.701  0.1063 -0.0038 -0.3431
   18SAPC   H4Y 2365   7.189   5.988   9.621 -2.8546 -1.6354  0.5103
   18SAPC   C35 2366   7.260   5.795   9.551  0.2648 -0.3046  0.8026
   18SAPC   H5X 2367   7.162   5.745   9.535  0.0722  0.5771 -0.9326
   18SAPC   H5Y 2368   7.320   5.708   9.585  2.9029  0.6174 -1.1417
   18SAPC   C36 2369   7.319   5.848   9.425 -1.2827  0.1257  1.2493
   18SAPC   H6X 2370   7.422   5.884   9.445 -0.8304 -0.6485  0.4214
   18SAPC   H6Y 2371   7.261   5.934   9.385  2.2610  2.6049  0.9944
   18SAPC   C37 2372   7.337   5.741   9.322 -0.2681  0.7618 -0.4618
   18SAPC   H7X 2373   7.240   5.712   9.278  1.1383 -1.6135 -2.2609
   18SAPC   H7Y 2374   7.377   5.648   9.368  0.8007 -0.0946 -2.9780
   18SAPC   C38 2375   7.423   5.769   9.201  0.5386  0.6569  0.6406
   18SAPC   H8X 2376   7.527   5.795   9.229  0.4024  1.1368  0.7112
   18SAPC   H8Y 2377   7.391   5.862   9.150  1.7477  0.0583 -1.3310
   18SAPC   C39 2378   7.404   5.660   9.095  0.5527  0.7919 -0.8583
   18SAPC   H9X 2379   7.294   5.647   9.080  0.0423  0.0154  2.7431
   18SAPC   H9Y 2380   7.444   5.563   9.130  0.2140  0.2226 -2.0091
   18SAPC  C310 2381   7.459   5.705   8.961 -0.8263 -0.3342  0.7087
   18SAPC  H10X 2382   7.558   5.751   8.984  0.5206 -2.1650 -1.0118
   18SAPC  H10Y 2383   7.387   5.785   8.936 -3.3684 -2.3548  1.1925
   18SAPC  C311 2384   7.451   5.600   8.850  0.2102 -0.6566  0.0130
   18SAPC  H11X 2385   7.345   5.578   8.828  0.1765  0.1454 -0.7151
   18SAPC  H11Y 2386   7.493   5.507   8.895 -1.2048 -0.6460  1.4366
   18SAPC  C312 2387   7.530   5.622   8.714 -0.3119 -0.7704 -0.0055
   18SAPC  H12X 2388   7.526   5.533   8.649 -1.9353  0.2321 -1.3556
   18SAPC  H12Y 2389   7.636   5.646   8.739 -0.0772 -0.3505 -1.3547
   18SAPC  C313 2390   7.484   5.744   8.631 -0.2924  0.1338  0.5782
   18SAPC  H13X 2391   7.502   5.843   8.677  3.1639  1.1284 -2.5082
   18SAPC  H13Y 2392   7.374   5.730   8.619 -0.1535 -0.4738 -0.0116
   18SAPC  C314 2393   7.564   5.749   8.498  0.6730 -0.3561 -0.5731
   18SAPC  H14X 2394   7.670   5.745   8.532  0.7399  0.5708 -0.6475
   18SAPC  H14Y 2395   7.549   5.849   8.451 -1.1554  0.7204  2.0795
   18SAPC  C315 2396   7.545   5.631   8.396  0.5395 -0.1082 -0.2089
   18SAPC  H15X 2397   7.438   5.615   8.371 -0.2312  1.8585  1.5422
   18SAPC  H15Y 2398   7.576   5.539   8.450  1.3660 -0.4096 -1.1806
   18SAPC  C316 2399   7.619   5.647   8.262 -0.2655 -0.1821  0.1182
   18SAPC  H16X 2400   7.593   5.749   8.229  0.9497  0.9130  2.3047
   18SAPC  H16Y 2401   7.581   5.560   8.205 -1.3734 -0.1605  0.8056
   18SAPC  C317 2402   7.766   5.642   8.292 -0.0511  1.0683 -0.5981
   18SAPC  H17X 2403   7.788   5.558   8.361  0.6056  1.3506 -0.4591
   18SAPC  H17Y 2404   7.810   5.728   8.346 -0.9848 -0.1865  2.3737
   18SAPC  C318 2405   7.857   5.616   8.167 -0.0116  0.1325  0.2522
   18SAPC  H18X 2406   7.958   5.658   8.187  0.1023 -0.1375  0.2481
   18SAPC  H18Y 2407   7.815   5.676   8.083  1.9096 -0.4852 -1.2226
   18SAPC  H18Z 2408   7.853   5.514   8.124 -2.1160 -0.2738  1.2641
   19SAPC     N 2409   5.846   6.434  10.616  0.0288 -0.0094  0.1944
   19SAPC   C12 2410   5.782   6.419  10.475 -0.1408  0.1740  1.3746
   19SAPC  H12A 2411   5.689   6.474  10.482  1.3413  3.2669 -0.9456
   19SAPC  H12B 2412   5.758   6.314  10.467 -0.7643  0.3413  0.9111
   19SAPC   C13 2413   5.959   6.329  10.618  0.1130 -0.4994  0.0869
   19SAPC  H13A 2414   6.019   6.333  10.708  1.1882 -0.3697 -0.6124
   19SAPC  H13B 2415   5.913   6.232  10.604  2.2269 -1.4006 -1.1450
   19SAPC  H13C 2416   6.032   6.331  10.538  0.7987 -2.2726  0.6124
   19SAPC   C14 2417   5.909   6.563  10.633 -0.0871 -0.0299  0.0171
   19SAPC  H14A 2418   5.833   6.636  10.657 -0.2564  1.1074 -3.4480
   19SAPC  H14B 2419   5.982   6.566  10.713  0.0595  1.2923 -0.1364
   19SAPC  H14C 2420   5.955   6.599  10.542  0.1621  1.6619  0.7667
   19SAPC   C15 2421   5.743   6.404  10.723  0.2241  0.2487  0.0512
   19SAPC  H15A 2422   5.662   6.474  10.714 -0.0243 -0.1686 -1.3727
   19SAPC  H15B 2423   5.708   6.302  10.716 -0.6753  0.5362  0.3344
   19SAPC  H15C 2424   5.789   6.416  10.819 -1.3702 -1.1298  1.0452
   19SAPC   C11 2425   5.843   6.460  10.347 -1.2919 -0.0375  0.6463
   19SAPC  H11A 2426   5.882   6.564  10.342 -3.2354  0.7147  0.2009
   19SAPC  H11B 2427   5.764   6.455  10.269 -0.0726 -0.7625 -0.5992
   19SAPC     P 2428   5.910   6.233  10.257 -0.2494  0.0787 -0.2708
   19SAPC   O13 2429   6.035   6.151  10.261  0.0631  0.6169  0.0329
   19SAPC   O14 2430   5.787   6.178  10.322 -0.3505  0.0922 -0.4213
   19SAPC   O12 2431   5.951   6.371  10.316 -0.0297 -0.6674  0.5520
   19SAPC   O11 2432   5.881   6.263  10.110 -0.4709  0.7632  0.6595
   19SAPC    C1 2433   5.953   6.312  10.002 -0.7202 -0.2360  0.5144
   19SAPC    HA 2434   6.028   6.384  10.042 -2.1769  0.8420  1.4059
   19SAPC    HB 2435   6.011   6.233   9.950 -0.1759  0.8073 -0.5085
   19SAPC    C2 2436   5.867   6.388   9.898 -0.8361  0.4706  0.5454
   19SAPC    HS 2437   5.945   6.435   9.833 -0.0127 -1.1940  0.2891
   19SAPC   O21 2438   5.779   6.483   9.962  0.6357 -0.1669  0.1024
   19SAPC   C21 2439   5.835   6.596  10.004 -0.4316  0.2052 -0.1406
   19SAPC   O22 2440   5.951   6.627   9.991 -0.3198  0.2006 -0.3296
   19SAPC   C22 2441   5.723   6.699  10.032  0.1233 -0.1399  0.3402
   19SAPC   H2R 2442   5.674   6.661  10.124 -1.0233  0.5612  0.0437
   19SAPC   H2S 2443   5.786   6.785  10.063  1.6037 -1.1739  0.2728
   19SAPC    C3 2444   5.786   6.290   9.808 -0.2070  0.6280  0.1698
   19SAPC    HX 2445   5.753   6.361   9.730  1.7319  0.4475 -0.8991
   19SAPC    HY 2446   5.711   6.241   9.873  0.1882  0.0066  0.1717
   19SAPC   O31 2447   5.885   6.198   9.747  0.3678  0.2686 -0.1192
   19SAPC   C31 2448   5.851   6.146   9.635  0.3481  0.0361 -0.0012
   19SAPC   O32 2449   5.743   6.169   9.576  0.7563  0.0054 -0.4963
   19SAPC   C32 2450   5.951   6.059   9.565  0.2423  0.0701  0.2863
   19SAPC   H2X 2451   6.052   6.051   9.610  0.4062 -2.0390 -0.3600
   19SAPC   H2Y 2452   5.959   6.130   9.480 -3.8071 -0.3292 -0.6409
   19SAPC   C23 2453   5.631   6.737   9.909  0.0943  0.1552  0.8785
   19SAPC   H3R 2454   5.560   6.652   9.897  0.8579 -0.3600 -0.1535
   19SAPC   H3S 2455   5.689   6.746   9.815 -0.4764 -1.5961  0.3368
   19SAPC   C24 2456   5.549   6.863   9.933  0.5178 -0.3335 -0.6600
   19SAPC   H4R 2457   5.505   6.844  10.034 -0.2900 -0.5685 -1.0502
   19SAPC   H4S 2458   5.464   6.856   9.861  0.2647 -2.5946 -0.1992
   19SAPC   C25 2459   5.629   6.992   9.931 -0.8235 -0.0068  0.0146
   19SAPC   H5R 2460   5.659   7.027  10.031  0.6173  1.1303 -0.7755
   19SAPC   C26 2461   5.646   7.078   9.828  0.2389  0.1306 -0.2302
   19SAPC   H6R 2462   5.703   7.172   9.838  0.7312 -0.2661  0.8253
   19SAPC   C27 2463   5.590   7.055   9.690 -0.0178  0.2037 -0.7859
   19SAPC   H7R 2464   5.593   6.947   9.666 -2.9053 -0.1349 -0.1187
   19SAPC   H7S 2465   5.652   7.103   9.612 -0.1371  0.2705 -0.8407
   19SAPC   C28 2466   5.448   7.099   9.677  0.7376  0.9039  0.2378
   19SAPC   H8R 2467   5.375   7.064   9.752  0.8934  1.2116  0.5386
   19SAPC   C29 2468   5.396   7.177   9.575 -0.2668 -0.4773  0.5895
   19SAPC   H9R 2469   5.290   7.205   9.579  0.1410  0.9810  2.6861
   19SAPC  C210 2470   5.477   7.239   9.464  1.0553 -0.4517  1.1004
   19SAPC  H10R 2471   5.535   7.160   9.411 -0.8822 -1.0708 -0.1866
   19SAPC  H10S 2472   5.548   7.311   9.510  1.3844  1.2492 -1.8407
   19SAPC  C211 2473   5.386   7.317   9.370  0.4135 -0.3001  0.1178
   19SAPC  H11R 2474   5.277   7.309   9.386  0.5847 -0.6359  1.1776
   19SAPC  C212 2475   5.425   7.390   9.261 -0.7767  0.1673 -0.3159
   19SAPC  H12R 2476   5.348   7.429   9.192 -1.7344 -1.5476 -0.2589
   19SAPC  C213 2477   5.563   7.414   9.220 -0.4132 -0.6736  0.5325
   19SAPC  H13R 2478   5.587   7.329   9.153  0.9452 -0.2061  0.3858
   19SAPC  H13S 2479   5.634   7.410   9.306 -1.3808 -0.0690  1.3974
   19SAPC  C214 2480   5.572   7.551   9.140  0.3985  0.7743 -0.0641
   19SAPC  H14R 2481   5.602   7.635   9.205  0.0268  0.3183  0.7034
   19SAPC  C215 2482   5.536   7.579   9.015 -0.2682 -0.2876 -0.4635
   19SAPC  H15R 2483   5.557   7.678   8.972 -0.5327 -0.4914 -1.0823
   19SAPC  C216 2484   5.481   7.481   8.916  0.0620 -0.4975  0.0221
   19SAPC  H16R 2485   5.428   7.538   8.836 -0.2016  0.0984  0.6059
   19SAPC  H16S 2486   5.399   7.416   8.955 -0.4260 -2.2489 -3.5022
   19SAPC  C217 2487   5.580   7.393   8.847  0.2662 -0.8308 -0.4554
   19SAPC  H17R 2488   5.660   7.373   8.921  1.3761  3.6304 -0.1157
   19SAPC  H17S 2489   5.639   7.447   8.770  1.1369 -0.1667  0.6441
   19SAPC  C218 2490   5.519   7.260   8.795 -0.1347  0.4446 -0.1519
   19SAPC  H18R 2491   5.445   7.278   8.714  1.0131  0.1431 -1.3003
   19SAPC  H18S 2492   5.477   7.210   8.885 -0.2237 -0.5588 -0.7432
   19SAPC  C219 2493   5.619   7.160   8.736 -0.4063 -0.5271  0.1651
   19SAPC  H19R 2494   5.560   7.078   8.691 -0.2501 -1.1291  1.0300
   19SAPC  H19S 2495   5.678   7.125   8.824  0.7347 -1.1438 -0.8179
   19SAPC  C220 2496   5.725   7.210   8.630  0.4736  0.1241 -0.2743
   19SAPC  H20R 2497   5.815   7.261   8.669  0.7374  0.4513 -1.2671
   19SAPC  H20S 2498   5.684   7.278   8.551 -0.2690  0.4740  0.4009
   19SAPC  H20T 2499   5.773   7.123   8.581  1.4476 -0.3575  1.4867
   19SAPC   C33 2500   5.895   5.923   9.517  0.0098  0.0807 -0.4091
   19SAPC   H3X 2501   5.974   5.887   9.448 -0.5532 -1.8381 -0.1149
   19SAPC   H3Y 2502   5.804   5.927   9.453 -0.2643  1.1504  0.0209
   19SAPC   C34 2503   5.874   5.822   9.630  0.3060 -0.2864  0.1141
   19SAPC   H4X 2504   5.804   5.861   9.708 -0.4813  0.2774 -0.8405
   19SAPC   H4Y 2505   5.969   5.807   9.685  0.8033  2.7043  0.2314
   19SAPC   C35 2506   5.825   5.693   9.575 -0.1326 -0.0367 -0.3383
   19SAPC   H5X 2507   5.897   5.648   9.502  1.9139  0.0164  1.5415
   19SAPC   H5Y 2508   5.727   5.711   9.526  0.0986  0.1754 -0.7299
   19SAPC   C36 2509   5.808   5.587   9.686 -0.7447 -0.4944  0.1789
   19SAPC   H6X 2510   5.758   5.495   9.648 -1.3602 -1.3943  2.9420
   19SAPC   H6Y 2511   5.754   5.634   9.771 -1.4300 -0.1488 -0.4395
   19SAPC   C37 2512   5.941   5.543   9.746 -0.1854  0.2758  0.5061
   19SAPC   H7X 2513   5.926   5.498   9.847 -0.5119 -1.2202 -0.1761
   19SAPC   H7Y 2514   6.005   5.630   9.773  0.9776 -0.0106 -1.1685
   19SAPC   C38 2515   6.016   5.436   9.667 -0.3143 -0.3330  0.4639
   19SAPC   H8X 2516   5.955   5.381   9.593 -0.1666  0.7588 -0.5083
   19SAPC   H8Y 2517   6.071   5.366   9.734  3.2537  0.1649 -1.6419
   19SAPC   C39 2518   6.132   5.495   9.582  0.5671 -0.0274 -0.0584
   19SAPC   H9X 2519   6.205   5.542   9.651  1.5085  1.0386 -1.7146
   19SAPC   H9Y 2520   6.085   5.578   9.523 -3.1090 -0.0718  2.4580
   19SAPC  C310 2521   6.199   5.382   9.498  0.1083 -0.9413 -0.0415
   19SAPC  H10X 2522   6.137   5.327   9.424 -2.6400 -1.6628  2.6329
   19SAPC  H10Y 2523   6.228   5.304   9.572 -1.9014  0.1325  2.0001
   19SAPC  C311 2524   6.330   5.433   9.433 -0.1772 -0.2528  0.3234
   19SAPC  H11X 2525   6.404   5.473   9.505 -0.2389  0.3817  0.0423
   19SAPC  H11Y 2526   6.313   5.514   9.359  2.4517 -0.7492 -0.9221
   19SAPC  C312 2527   6.396   5.319   9.355 -0.0526 -0.4709  0.0092
   19SAPC  H12X 2528   6.312   5.284   9.292  1.9627  0.3298 -3.3972
   19SAPC  H12Y 2529   6.435   5.241   9.423 -0.2138 -1.3104 -0.8408
   19SAPC  C313 2530   6.499   5.346   9.243 -0.6664 -0.0397 -0.4255
   19SAPC  H13X 2531   6.508   5.252   9.184  0.3493 -0.0731 -0.2380
   19SAPC  H13Y 2532   6.598   5.367   9.288  0.0784 -3.9268  0.1409
   19SAPC  C314 2533   6.467   5.450   9.137  0.2252  0.9420 -0.2470
   19SAPC  H14X 2534   6.478   5.549   9.188 -1.2344  0.8652  0.2819
   19SAPC  H14Y 2535   6.361   5.448   9.104 -0.4763  1.4628  1.8184
   19SAPC  C315 2536   6.559   5.439   9.018 -0.7679 -0.0074 -0.2738
   19SAPC  H15X 2537   6.535   5.336   8.983 -1.0141 -0.3195  0.7599
   19SAPC  H15Y 2538   6.667   5.439   9.045 -0.9496 -1.4378  0.5767
   19SAPC  C316 2539   6.536   5.554   8.916  0.7220  0.2139  0.0302
   19SAPC  H16X 2540   6.587   5.641   8.962  0.4305 -0.4258  1.6104
   19SAPC  H16Y 2541   6.427   5.573   8.918  0.5774 -0.4613  3.1411
   19SAPC  C317 2542   6.602   5.532   8.780  0.0873 -0.5311 -0.4991
   19SAPC  H17X 2543   6.566   5.618   8.720  0.7699  0.8103  0.9479
   19SAPC  H17Y 2544   6.563   5.437   8.737  0.4386 -0.6385 -0.5832
   19SAPC  C318 2545   6.750   5.517   8.783  0.3528  0.5525 -0.7147
   19SAPC  H18X 2546   6.805   5.611   8.804  0.4178  0.7571 -1.7285
   19SAPC  H18Y 2547   6.785   5.482   8.684  2.2138  0.9361 -0.2333
   19SAPC  H18Z 2548   6.780   5.439   8.856 -1.5334 -0.0845 -0.5762
   20SAPC     N 2549   2.010   3.010  11.383 -0.8812 -1.1301 -0.0216
   20SAPC   C12 2550   1.954   2.939  11.261  0.4260  0.6711 -0.8420
   20SAPC  H12A 2551   1.858   2.903  11.295  1.6656 -1.4221  0.7256
   20SAPC  H12B 2552   2.017   2.851  11.259 -1.2194 -0.6135  0.6378
   20SAPC   C13 2553   1.983   2.911  11.493 -0.3037 -1.0233 -0.0328
   20SAPC  H13A 2554   1.877   2.898  11.508 -0.5408  2.0830  2.2488
   20SAPC  H13B 2555   2.037   2.825  11.458  0.6109  0.7673 -3.5312
   20SAPC  H13C 2556   2.024   2.942  11.588 -2.5982  2.8052 -0.0805
   20SAPC   C14 2557   2.161   3.031  11.370 -0.0258  0.0572 -0.0454
   20SAPC  H14A 2558   2.177   3.084  11.277 -0.3654  1.4944  0.6824
   20SAPC  H14B 2559   2.210   3.064  11.461  0.6174  1.0228 -0.7126
   20SAPC  H14C 2560   2.213   2.938  11.359  1.0818  0.6749 -0.1863
   20SAPC   C15 2561   1.948   3.150  11.414  0.4850  0.6887 -0.4499
   20SAPC  H15A 2562   2.006   3.202  11.488 -1.0361  0.2603  1.1101
   20SAPC  H15B 2563   1.923   3.186  11.315 -1.3649 -1.1469 -0.7262
   20SAPC  H15C 2564   1.854   3.137  11.467  1.0762  0.6576  0.6188
   20SAPC   C11 2565   1.952   2.996  11.122 -0.1669 -0.1933  0.7121
   20SAPC  H11A 2566   1.888   3.086  11.131  1.9673  1.3404  1.4103
   20SAPC  H11B 2567   1.896   2.927  11.055 -1.4488  1.0050  0.5207
   20SAPC     P 2568   2.170   2.896  11.031 -0.0208  0.0532  0.2225
   20SAPC   O13 2569   2.310   2.928  11.061  0.1670  0.6232  0.4686
   20SAPC   O14 2570   2.110   2.777  11.103 -0.1008  0.0897  0.2656
   20SAPC   O12 2571   2.085   3.020  11.071  0.0002  0.0022 -0.3294
   20SAPC   O11 2572   2.144   2.869  10.875  0.5048 -0.3035 -0.4362
   20SAPC    C1 2573   2.041   2.916  10.791  0.1692  0.0458  0.9838
   20SAPC    HA 2574   1.940   2.905  10.834 -1.2212 -0.3976 -2.0817
   20SAPC    HB 2575   2.060   3.023  10.767  0.2195 -0.3946 -1.1343
   20SAPC    C2 2576   2.027   2.836  10.656 -0.0446  0.0351 -0.3229
   20SAPC    HS 2577   2.041   2.728  10.677 -0.1353  0.2477  0.9062
   20SAPC   O21 2578   2.133   2.886  10.568  0.5384  0.2843 -0.3409
   20SAPC   C21 2579   2.159   2.811  10.457 -0.0587  0.3138 -0.0545
   20SAPC   O22 2580   2.105   2.707  10.425  0.3222 -0.2852 -0.3639
   20SAPC   C22 2581   2.270   2.878  10.378 -0.5435  0.9673 -0.1670
   20SAPC   H2R 2582   2.233   2.981  10.366 -0.0888  1.4517  2.0903
   20SAPC   H2S 2583   2.350   2.887  10.455 -2.6406  0.5696  2.1860
   20SAPC    C3 2584   1.888   2.849  10.593  0.0961 -0.1842  0.4258
   20SAPC    HX 2585   1.805   2.817  10.661 -1.3980 -3.2882 -2.5403
   20SAPC    HY 2586   1.887   2.784  10.503  1.1259  0.8754 -0.3687
   20SAPC   O31 2587   1.866   2.985  10.565 -0.0517 -0.0981 -0.4043
   20SAPC   C31 2588   1.889   3.027  10.436 -0.1192  0.3677 -0.7429
   20SAPC   O32 2589   1.901   2.950  10.343 -0.1906 -0.2336 -0.4082
   20SAPC   C32 2590   1.894   3.176  10.433  0.1571 -0.6556 -0.5116
   20SAPC   H2X 2591   1.972   3.204  10.507  0.2942 -2.6723  0.1551
   20SAPC   H2Y 2592   1.797   3.215  10.469  1.0458  0.6319  0.6319
   20SAPC   C23 2593   2.322   2.801  10.251  0.2792 -0.2725 -0.0990
   20SAPC   H3R 2594   2.238   2.793  10.178  1.7868 -0.6058 -1.8774
   20SAPC   H3S 2595   2.335   2.699  10.293  1.5316 -0.0977 -0.0194
   20SAPC   C24 2596   2.454   2.854  10.194 -0.2819 -0.3815 -0.1389
   20SAPC   H4R 2597   2.499   2.776  10.129  0.3666 -1.5268  1.6310
   20SAPC   H4S 2598   2.531   2.863  10.273 -0.1397  0.1729 -0.3351
   20SAPC   C25 2599   2.437   2.986  10.131 -0.0348  0.0238 -0.6600
   20SAPC   H5R 2600   2.445   3.076  10.193 -0.1025 -1.6767  1.9712
   20SAPC   C26 2601   2.385   3.009  10.009 -0.2253  0.2379  0.3328
   20SAPC   H6R 2602   2.389   3.113   9.971 -1.8998  0.5072  0.8099
   20SAPC   C27 2603   2.343   2.917   9.895  0.0734  0.1867  0.2879
   20SAPC   H7R 2604   2.249   2.964   9.858 -0.0062  1.1685  1.6843
   20SAPC   H7S 2605   2.320   2.814   9.931 -2.8905  1.1384  1.4269
   20SAPC   C28 2606   2.444   2.884   9.792  0.3764  0.5462  0.3524
   20SAPC   H8R 2607   2.532   2.832   9.833  3.3773  3.2607 -2.1338
   20SAPC   C29 2608   2.451   2.912   9.662  0.2916  0.6361  0.1356
   20SAPC   H9R 2609   2.536   2.873   9.603 -1.3697  0.1488 -2.0784
   20SAPC  C210 2610   2.348   2.994   9.584  0.2688 -0.3315  0.0298
   20SAPC  H10R 2611   2.404   3.086   9.557 -1.3218  1.0766  1.3052
   20SAPC  H10S 2612   2.260   3.030   9.641 -1.5366 -0.4552 -2.4778
   20SAPC  C211 2613   2.296   2.911   9.463  0.2100 -0.2128 -0.7762
   20SAPC  H11R 2614   2.235   2.823   9.486 -1.8278  0.9261 -1.5264
   20SAPC  C212 2615   2.321   2.938   9.332 -0.4477  0.4094  0.5503
   20SAPC  H12R 2616   2.276   2.876   9.252  1.8486 -0.0685 -0.4580
   20SAPC  C213 2617   2.388   3.059   9.277 -0.7278  0.1217 -0.6308
   20SAPC  H13R 2618   2.446   3.016   9.193 -0.8368 -0.1811 -0.5552
   20SAPC  H13S 2619   2.459   3.103   9.350 -1.6773 -0.5193  0.7380
   20SAPC  C214 2620   2.288   3.150   9.228 -0.0135 -0.4575 -0.7116
   20SAPC  H14R 2621   2.210   3.174   9.302  0.2098 -0.0915 -0.5941
   20SAPC  C215 2622   2.288   3.218   9.115  0.1475  0.3693 -0.5992
   20SAPC  H15R 2623   2.200   3.283   9.098 -0.3139 -0.1475 -0.2163
   20SAPC  C216 2624   2.397   3.220   9.015 -0.2635 -0.5913  0.1371
   20SAPC  H16R 2625   2.497   3.206   9.060  0.5901  1.0297 -1.1271
   20SAPC  H16S 2626   2.405   3.321   8.970 -2.4350  0.3525  1.6990
   20SAPC  C217 2627   2.388   3.119   8.900  0.2937  0.1980  0.8496
   20SAPC  H17R 2628   2.385   3.018   8.948 -1.3559 -0.5356 -0.6571
   20SAPC  H17S 2629   2.476   3.119   8.833 -1.4888  0.1007 -1.6582
   20SAPC  C218 2630   2.260   3.137   8.810  0.0111 -0.2747 -0.2178
   20SAPC  H18R 2631   2.262   3.234   8.756 -0.9791  0.4164  0.9529
   20SAPC  H18S 2632   2.168   3.139   8.872  1.2543 -0.7875  1.7602
   20SAPC  C219 2633   2.244   3.027   8.705 -0.9093  0.4624 -0.5133
   20SAPC  H19R 2634   2.235   2.923   8.744 -0.2293  0.0900 -1.3004
   20SAPC  H19S 2635   2.332   3.033   8.637 -0.3572 -1.5662 -0.0610
   20SAPC  C220 2636   2.125   3.058   8.609 -0.4153 -0.0564 -0.1037
   20SAPC  H20R 2637   2.142   3.148   8.546  1.0290 -0.3936 -0.2279
   20SAPC  H20S 2638   2.038   3.081   8.674  0.9217  0.9240  1.4283
   20SAPC  H20T 2639   2.102   2.972   8.543 -1.8002 -1.3930  1.9792
   20SAPC   C33 2640   1.921   3.234  10.293  0.1909  0.4334  0.0919
   20SAPC   H3X 2641   1.911   3.342  10.314 -1.3370  0.0936  1.3295
   20SAPC   H3Y 2642   1.857   3.209  10.206  1.8376 -0.5940 -0.8709
   20SAPC   C34 2643   2.067   3.208  10.255 -0.1937 -0.4623  0.7035
   20SAPC   H4X 2644   2.062   3.109  10.205 -0.8471  0.3129 -0.8388
   20SAPC   H4Y 2645   2.137   3.190  10.339  0.0128  0.6837  0.7903
   20SAPC   C35 2646   2.133   3.311  10.154  0.3371  0.3369  0.2318
   20SAPC   H5X 2647   2.237   3.280  10.131  0.0834 -0.4230  0.0802
   20SAPC   H5Y 2648   2.140   3.405  10.213 -2.4770  0.9279 -0.2053
   20SAPC   C36 2649   2.048   3.331  10.019  0.4087 -0.6210 -0.7606
   20SAPC   H6X 2650   1.948   3.377  10.031  0.5681 -0.1631 -1.1966
   20SAPC   H6Y 2651   2.027   3.226   9.987 -2.6347 -0.3498  0.0021
   20SAPC   C37 2652   2.122   3.414   9.918 -0.9140 -0.4962  0.3104
   20SAPC   H7X 2653   2.225   3.433   9.953 -0.7086  0.0836 -0.5674
   20SAPC   H7Y 2654   2.082   3.516   9.898 -1.4570 -0.5410  1.1262
   20SAPC   C38 2655   2.136   3.337   9.784  0.2238  0.1925 -1.0040
   20SAPC   H8X 2656   2.048   3.271   9.770 -0.3294  1.0540 -1.7298
   20SAPC   H8Y 2657   2.231   3.279   9.790  1.1093  1.7617  1.5832
   20SAPC   C39 2658   2.142   3.428   9.665 -0.0058 -0.7823 -0.2522
   20SAPC   H9X 2659   2.068   3.504   9.698 -0.0377 -1.4889  1.4046
   20SAPC   H9Y 2660   2.104   3.374   9.576 -0.4542 -0.7084 -0.1106
   20SAPC  C310 2661   2.276   3.489   9.640  0.9573  0.2134 -0.4191
   20SAPC  H10X 2662   2.348   3.405   9.630  0.6074 -0.4048  1.8733
   20SAPC  H10Y 2663   2.299   3.536   9.738 -0.5957  1.1016 -0.4410
   20SAPC  C311 2664   2.274   3.598   9.528  0.0527 -0.2759 -0.1522
   20SAPC  H11X 2665   2.364   3.662   9.537 -2.6000  3.7165  0.3003
   20SAPC  H11Y 2666   2.189   3.666   9.548  1.4423  1.4740 -0.0056
   20SAPC  C312 2667   2.270   3.533   9.388 -0.1090  0.2058  0.2220
   20SAPC  H12X 2668   2.184   3.464   9.372  0.4428 -0.0852 -1.6501
   20SAPC  H12Y 2669   2.356   3.466   9.369  0.8862  1.3477  0.5752
   20SAPC  C313 2670   2.264   3.637   9.279  0.4618 -0.2312 -0.3729
   20SAPC  H13X 2671   2.354   3.699   9.300 -0.1803  1.2121 -1.6500
   20SAPC  H13Y 2672   2.173   3.697   9.303  1.5082  1.3664 -0.2490
   20SAPC  C314 2673   2.245   3.590   9.141  0.2240  0.3388  1.0994
   20SAPC  H14X 2674   2.149   3.535   9.127 -0.5097  1.8554 -0.1274
   20SAPC  H14Y 2675   2.333   3.528   9.112 -1.2677 -1.7754  0.8028
   20SAPC  C315 2676   2.234   3.695   9.024  0.3879  0.2343  0.2565
   20SAPC  H15X 2677   2.299   3.784   9.035 -3.2534  3.2301 -0.4083
   20SAPC  H15Y 2678   2.133   3.740   9.025  0.4073  0.2765  0.8471
   20SAPC  C316 2679   2.244   3.636   8.888 -0.6468  0.2295  0.3414
   20SAPC  H16X 2680   2.142   3.631   8.845 -0.2621  0.9446 -0.7001
   20SAPC  H16Y 2681   2.292   3.537   8.903  0.2789  0.8653  1.8240
   20SAPC  C317 2682   2.331   3.704   8.784  0.6677 -0.1422  1.0006
   20SAPC  H17X 2683   2.438   3.696   8.812 -0.0836  1.1201  4.8162
   20SAPC  H17Y 2684   2.317   3.814   8.787 -0.7204 -0.3153  1.9410
   20SAPC  C318 2685   2.309   3.657   8.634  0.2243  0.3903  0.0815
   20SAPC  H18X 2686   2.202   3.682   8.618  1.0309  4.7544  0.3040
   20SAPC  H18Y 2687   2.335   3.550   8.622 -0.1740 -0.0879  2.6992
   20SAPC  H18Z 2688   2.378   3.699   8.558  1.2737 -1.4013 -0.0191
   21SAPC     N 2689   6.593   1.588  11.159  0.1488 -0.9052 -0.3260
   21SAPC   C12 2690   6.496   1.543  11.052 -0.3891 -0.7374  0.0974
   21SAPC  H12A 2691   6.400   1.545  11.101 -1.2630 -2.3367 -1.4469
   21SAPC  H12B 2692   6.519   1.440  11.029 -2.1263 -0.9633 -0.7896
   21SAPC   C13 2693   6.730   1.592  11.106  0.3187  0.0674 -0.0442
   21SAPC  H13A 2694   6.762   1.491  11.087 -1.1407 -0.1694 -1.4573
   21SAPC  H13B 2695   6.743   1.641  11.011 -2.0404  1.9314  0.4969
   21SAPC  H13C 2696   6.805   1.632  11.173 -0.8546  0.7503  0.9146
   21SAPC   C14 2697   6.555   1.724  11.206  0.4320  1.1814 -0.0902
   21SAPC  H14A 2698   6.613   1.752  11.292 -1.4064 -0.0850  1.6343
   21SAPC  H14B 2699   6.582   1.799  11.132 -0.1732 -1.1183 -2.8369
   21SAPC  H14C 2700   6.452   1.740  11.234  0.1757 -0.3791 -0.0750
   21SAPC   C15 2701   6.577   1.492  11.273 -0.2033  0.2334  0.1258
   21SAPC  H15A 2702   6.592   1.389  11.244 -1.3136 -0.1928  0.9755
   21SAPC  H15B 2703   6.654   1.505  11.347  0.7958  4.4564 -1.3916
   21SAPC  H15C 2704   6.484   1.503  11.327  0.1366  0.0952  0.7490
   21SAPC   C11 2705   6.488   1.627  10.922 -0.5819 -0.7669 -0.0954
   21SAPC  H11A 2706   6.441   1.725  10.947  0.3834 -0.1189 -0.7397
   21SAPC  H11B 2707   6.402   1.579  10.870 -0.9061 -0.3533  0.0455
   21SAPC     P 2708   6.669   1.526  10.759 -0.4187  0.1600 -0.1859
   21SAPC   O13 2709   6.800   1.558  10.705  0.2920 -0.1779  0.1907
   21SAPC   O14 2710   6.656   1.402  10.845 -0.1143 -0.3166 -0.0488
   21SAPC   O12 2711   6.610   1.648  10.843  0.3283  0.2635 -0.1931
   21SAPC   O11 2712   6.567   1.512  10.649 -0.4858  0.0490  0.3014
   21SAPC    C1 2713   6.497   1.622  10.582  0.5360 -0.4490  0.0658
   21SAPC    HA 2714   6.389   1.625  10.610  0.9749 -0.5197  1.8852
   21SAPC    HB 2715   6.528   1.722  10.618 -1.5443  0.5540 -0.7390
   21SAPC    C2 2716   6.493   1.587  10.425 -0.0457  0.0333  0.4939
   21SAPC    HS 2717   6.472   1.678  10.366  1.0104  1.2897  1.9506
   21SAPC   O21 2718   6.397   1.480  10.398 -0.3522  0.2250  0.2644
   21SAPC   C21 2719   6.273   1.522  10.391 -0.3971  0.5810  0.3925
   21SAPC   O22 2720   6.235   1.636  10.421  0.5905 -0.1171  0.7263
   21SAPC   C22 2721   6.183   1.406  10.360  0.0041  0.0274  0.4421
   21SAPC   H2R 2722   6.189   1.338  10.448  1.4916 -1.0322 -0.4412
   21SAPC   H2S 2723   6.082   1.451  10.357 -0.1950 -0.4655 -2.0005
   21SAPC    C3 2724   6.633   1.534  10.376 -0.4507 -0.0596  0.3046
   21SAPC    HX 2725   6.636   1.427  10.405  1.1749 -0.3859 -0.9023
   21SAPC    HY 2726   6.708   1.584  10.441 -0.7606 -2.2118  2.4039
   21SAPC   O31 2727   6.658   1.549  10.235  0.0727  0.0450  0.4829
   21SAPC   C31 2728   6.707   1.661  10.190  0.8935 -0.1118  0.3157
   21SAPC   O32 2729   6.731   1.762  10.252  0.2134  0.0984 -0.2023
   21SAPC   C32 2730   6.734   1.652  10.040  0.3548 -0.2103 -0.1563
   21SAPC   H2X 2731   6.638   1.671   9.989  1.6758  0.5332 -2.5126
   21SAPC   H2Y 2732   6.777   1.552  10.018 -0.0488 -0.0051 -1.9941
   21SAPC   C23 2733   6.223   1.328  10.233  0.7198  0.1219  0.1821
   21SAPC   H3R 2734   6.162   1.237  10.217  1.6199 -0.6096  0.8270
   21SAPC   H3S 2735   6.325   1.283  10.235  0.4815 -0.4374 -0.0089
   21SAPC   C24 2736   6.197   1.418  10.109 -0.1524  0.4058  0.0117
   21SAPC   H4R 2737   6.268   1.503  10.123 -0.1342  0.1567  1.6447
   21SAPC   H4S 2738   6.101   1.473  10.108 -0.3736  0.0671  1.2215
   21SAPC   C25 2739   6.216   1.332   9.982  0.2157  0.6692  0.3563
   21SAPC   H5R 2740   6.137   1.258   9.965  0.7403  0.5520 -1.9906
   21SAPC   C26 2741   6.314   1.350   9.893 -0.4898 -1.1019  0.2826
   21SAPC   H6R 2742   6.315   1.296   9.798  1.0880 -0.6123 -0.0009
   21SAPC   C27 2743   6.416   1.463   9.902 -0.9142  0.0179  0.5546
   21SAPC   H7R 2744   6.514   1.432   9.860  2.1191  3.3429  4.3449
   21SAPC   H7S 2745   6.446   1.487  10.006 -3.3630  0.3617  1.2589
   21SAPC   C28 2746   6.362   1.583   9.832 -0.5188 -0.1918  0.1369
   21SAPC   H8R 2747   6.272   1.619   9.883  0.2191  0.0226  1.3255
   21SAPC   C29 2748   6.402   1.635   9.716 -0.9739 -0.0021  0.5549
   21SAPC   H9R 2749   6.342   1.717   9.675 -2.1211  0.0211  2.1960
   21SAPC  C210 2750   6.510   1.591   9.613 -0.3717 -0.0913 -0.0196
   21SAPC  H10R 2751   6.606   1.615   9.663 -0.7879  1.3486  0.1375
   21SAPC  H10S 2752   6.504   1.650   9.519 -2.4491 -2.8995 -1.8277
   21SAPC  C211 2753   6.497   1.448   9.562 -0.3399  1.0123  0.0754
   21SAPC  H11R 2754   6.432   1.381   9.622  0.1092  1.1488  0.7304
   21SAPC  C212 2755   6.560   1.402   9.450  0.5496 -0.6277  0.0202
   21SAPC  H12R 2756   6.535   1.301   9.413 -1.5902  0.5140 -1.8740
   21SAPC  C213 2757   6.660   1.478   9.369 -0.3803  0.7628  0.1960
   21SAPC  H13R 2758   6.744   1.412   9.341 -1.7178  0.1712 -2.9200
   21SAPC  H13S 2759   6.710   1.560   9.425  1.1620 -0.6044  0.8701
   21SAPC  C214 2760   6.597   1.535   9.246  0.1818 -0.3698 -0.9949
   21SAPC  H14R 2761   6.489   1.522   9.235  0.0042 -0.4670  0.6112
   21SAPC  C215 2762   6.663   1.606   9.154 -0.2831 -0.2011  0.4922
   21SAPC  H15R 2763   6.608   1.637   9.065 -1.8387 -3.2332  0.2583
   21SAPC  C216 2764   6.812   1.644   9.156 -0.5980 -0.2742 -0.4445
   21SAPC  H16R 2765   6.856   1.628   9.257 -0.9579  0.3403 -0.1795
   21SAPC  H16S 2766   6.824   1.752   9.132 -1.9423 -0.2206 -0.9586
   21SAPC  C217 2767   6.889   1.545   9.065 -1.0608 -0.1074  0.3396
   21SAPC  H17R 2768   6.991   1.586   9.050 -0.3248 -2.2102 -0.7162
   21SAPC  H17S 2769   6.851   1.551   8.961  0.5053  0.3272 -0.2440
   21SAPC  C218 2770   6.894   1.401   9.112  0.8214  0.8337 -0.6019
   21SAPC  H18R 2771   6.789   1.364   9.105  0.1809  2.1496  1.3292
   21SAPC  H18S 2772   6.922   1.395   9.220 -2.5132 -1.9629  0.2766
   21SAPC  C219 2773   6.982   1.310   9.018  0.0874 -0.2056  0.0046
   21SAPC  H19R 2774   6.953   1.333   8.914  1.7101 -1.2461 -0.7113
   21SAPC  H19S 2775   6.942   1.207   9.030 -2.4707  0.5776 -1.0148
   21SAPC  C220 2776   7.133   1.308   9.040 -0.7454  0.6173  0.4776
   21SAPC  H20R 2777   7.169   1.259   9.134  2.3635 -0.8001 -1.2763
   21SAPC  H20S 2778   7.180   1.409   9.045 -0.5749  0.5834 -0.3031
   21SAPC  H20T 2779   7.167   1.239   8.959 -1.8275  0.9945 -0.3077
   21SAPC   C33 2780   6.843   1.752   9.996 -0.3677  0.0505  0.4541
   21SAPC   H3X 2781   6.885   1.720   9.899  0.3026  0.2346  0.6753
   21SAPC   H3Y 2782   6.934   1.760  10.060 -0.2600 -1.4692  0.5227
   21SAPC   C34 2783   6.794   1.891   9.968 -0.1226 -0.2002 -0.1990
   21SAPC   H4X 2784   6.869   1.957   9.918 -0.4896 -0.0912 -0.6166
   21SAPC   H4Y 2785   6.781   1.946  10.063  0.3372 -1.3627  0.5597
   21SAPC   C35 2786   6.671   1.899   9.870 -0.3054 -0.7308 -0.5987
   21SAPC   H5X 2787   6.580   1.880   9.930  2.1738 -3.1761  2.7532
   21SAPC   H5Y 2788   6.673   1.819   9.794  0.8019 -0.2882 -1.0581
   21SAPC   C36 2789   6.673   2.034   9.801 -0.1937 -0.4878  0.3105
   21SAPC   H6X 2790   6.773   2.041   9.754  0.1754 -1.8187  0.8680
   21SAPC   H6Y 2791   6.673   2.112   9.880 -0.9257  1.9274 -1.8902
   21SAPC   C37 2792   6.552   2.046   9.704 -0.6306  0.1540  0.2524
   21SAPC   H7X 2793   6.526   2.152   9.683  0.2630  0.7748  2.0823
   21SAPC   H7Y 2794   6.463   1.990   9.742  0.5726 -1.9433  0.1226
   21SAPC   C38 2795   6.586   1.979   9.575  0.5723 -0.2090  0.4171
   21SAPC   H8X 2796   6.548   1.875   9.586 -0.8385  0.0901 -1.1685
   21SAPC   H8Y 2797   6.692   1.995   9.543 -0.4664  1.4987 -2.5797
   21SAPC   C39 2798   6.498   2.038   9.459 -0.8587 -0.6242 -0.3581
   21SAPC   H9X 2799   6.487   2.147   9.473 -4.2929 -1.1934  3.3621
   21SAPC   H9Y 2800   6.392   2.006   9.473 -1.9651  2.2280 -1.4971
   21SAPC  C310 2801   6.549   1.988   9.325 -0.0704 -0.2220  0.2401
   21SAPC  H10X 2802   6.524   1.880   9.323  1.1931 -0.5272 -0.2636
   21SAPC  H10Y 2803   6.660   1.997   9.325 -0.2049  2.3619 -0.6904
   21SAPC  C311 2804   6.509   2.072   9.201 -0.2444  0.5949  0.3321
   21SAPC  H11X 2805   6.545   2.176   9.215 -1.1193  1.3654 -2.4362
   21SAPC  H11Y 2806   6.399   2.083   9.207 -0.1530  0.8498  2.5086
   21SAPC  C312 2807   6.563   1.998   9.075 -0.3855 -0.3077 -0.7243
   21SAPC  H12X 2808   6.551   1.889   9.094 -1.9677  0.2510  2.2135
   21SAPC  H12Y 2809   6.673   2.007   9.062 -0.4018 -0.2438 -0.8139
   21SAPC  C313 2810   6.489   2.031   8.943  0.0993  0.0508  0.6932
   21SAPC  H13X 2811   6.492   2.142   8.939  0.6756  0.0214 -0.0023
   21SAPC  H13Y 2812   6.380   2.013   8.955 -0.4341  1.7795 -1.0237
   21SAPC  C314 2813   6.550   1.961   8.824 -0.2194  0.4773 -0.4710
   21SAPC  H14X 2814   6.473   1.958   8.745 -0.3095  1.4266 -0.4325
   21SAPC  H14Y 2815   6.580   1.857   8.847 -0.6605  0.9892  3.1281
   21SAPC  C315 2816   6.673   2.032   8.765  0.2596 -0.6087 -0.4180
   21SAPC  H15X 2817   6.741   2.074   8.842  0.4037 -0.6966 -0.4961
   21SAPC  H15Y 2818   6.635   2.125   8.719 -2.4665  0.5621  3.6288
   21SAPC  C316 2819   6.768   1.948   8.675  0.3824 -0.0567  0.1987
   21SAPC  H16X 2820   6.713   1.902   8.590  2.4639 -3.2566  0.3991
   21SAPC  H16Y 2821   6.800   1.864   8.741 -1.8492 -0.4441  0.8941
   21SAPC  C317 2822   6.899   2.017   8.627  0.7042  0.1332  0.0611
   21SAPC  H17X 2823   6.987   1.951   8.638 -1.6683 -3.3368 -0.2332
   21SAPC  H17Y 2824   6.908   2.109   8.689  1.4419 -0.9197  1.5662
   21SAPC  C318 2825   6.895   2.053   8.481 -0.4031 -0.0761  0.7146
   21SAPC  H18X 2826   6.796   2.095   8.456  0.0504  1.6605  1.6763
   21SAPC  H18Y 2827   6.898   1.960   8.421 -0.1000  0.9408 -0.9127
   21SAPC  H18Z 2828   6.978   2.117   8.443 -2.3027  0.6806 -2.5156
   22SAPC     N 2829   1.084   5.682  10.593  0.2470 -0.1675 -0.6801
   22SAPC   C12 2830   1.081   5.540  10.648  0.3252  0.3526 -0.2310
   22SAPC  H12A 2831   1.141   5.535  10.738 -0.0750  1.7836  0.1402
   22SAPC  H12B 2832   1.112   5.463  10.580 -1.4480 -1.7116  1.1684
   22SAPC   C13 2833   1.016   5.782  10.686 -0.4164 -0.3201 -0.1283
   22SAPC  H13A 2834   0.997   5.876  10.636  1.6520  1.0493  1.4427
   22SAPC  H13B 2835   0.928   5.732  10.722 -0.3056 -0.2229  0.2837
   22SAPC  H13C 2836   1.066   5.803  10.780 -3.2230 -0.1507  1.4266
   22SAPC   C14 2837   1.221   5.724  10.582  0.1699  0.6875  0.5491
   22SAPC  H14A 2838   1.219   5.829  10.559 -2.6477  0.4757 -0.4582
   22SAPC  H14B 2839   1.280   5.707  10.672  1.4333  1.0021 -0.1913
   22SAPC  H14C 2840   1.279   5.675  10.505 -0.6139 -0.5267  0.7033
   22SAPC   C15 2841   1.018   5.689  10.461 -0.1419 -0.4235 -0.4297
   22SAPC  H15A 2842   1.016   5.785  10.411  0.1141  0.5378  1.3301
   22SAPC  H15B 2843   1.073   5.623  10.396  1.2507 -0.5018  0.7884
   22SAPC  H15C 2844   0.913   5.665  10.456 -0.3554  0.6492 -1.7739
   22SAPC   C11 2845   0.934   5.486  10.682 -0.0219  0.3649 -0.3811
   22SAPC  H11A 2846   0.892   5.553  10.760  0.0663 -0.6757  0.5821
   22SAPC  H11B 2847   0.946   5.386  10.728 -1.3132 -0.5399 -1.8900
   22SAPC     P 2848   0.812   5.338  10.501  0.4668 -0.3481  0.0572
   22SAPC   O13 2849   0.927   5.298  10.419 -0.2016  0.2469 -0.1111
   22SAPC   O14 2850   0.770   5.236  10.597  0.2625 -0.8095 -0.2364
   22SAPC   O12 2851   0.840   5.481  10.570 -0.0521  0.1539 -0.5603
   22SAPC   O11 2852   0.695   5.387  10.402 -0.2026 -0.8414  0.2428
   22SAPC    C1 2853   0.721   5.496  10.314  0.4437 -0.1193  1.0703
   22SAPC    HA 2854   0.630   5.559  10.314 -0.4220 -1.3282  1.7873
   22SAPC    HB 2855   0.806   5.564  10.336  0.3408  1.0510 -1.6904
   22SAPC    C2 2856   0.739   5.442  10.173 -0.4541  0.2234 -0.2864
   22SAPC    HS 2857   0.670   5.360  10.144 -0.9215  0.8927 -1.1154
   22SAPC   O21 2858   0.878   5.406  10.151 -0.1238 -0.9480 -0.0182
   22SAPC   C21 2859   0.905   5.289  10.101 -0.2887  0.3130  0.0001
   22SAPC   O22 2860   0.821   5.211  10.062  0.1626 -0.5944  0.0042
   22SAPC   C22 2861   1.056   5.275  10.090  0.5350  0.1230 -0.2933
   22SAPC   H2R 2862   1.109   5.275  10.187 -1.0419  1.4568  0.6308
   22SAPC   H2S 2863   1.072   5.172  10.053  1.6966  0.6593 -1.3639
   22SAPC    C3 2864   0.706   5.553  10.076 -0.9110 -0.6363 -0.7807
   22SAPC    HX 2865   0.786   5.627  10.098 -1.6678 -0.1465  0.4025
   22SAPC    HY 2866   0.609   5.600  10.101 -0.8908 -0.6523 -0.6700
   22SAPC   O31 2867   0.709   5.517   9.937 -0.2212 -0.0090  0.1317
   22SAPC   C31 2868   0.696   5.620   9.855  0.7929 -0.0455  0.7271
   22SAPC   O32 2869   0.686   5.735   9.889 -0.1037  0.2319  0.1479
   22SAPC   C32 2870   0.725   5.564   9.713  0.1429  0.3479  0.3649
   22SAPC   H2X 2871   0.836   5.568   9.714  0.1242  1.5640  1.9267
   22SAPC   H2Y 2872   0.677   5.637   9.645  0.7092  0.2611 -0.1342
   22SAPC   C23 2873   1.127   5.381   9.998  0.1145  0.0231 -0.4125
   22SAPC   H3R 2874   1.230   5.394  10.039 -0.2283  2.4253 -0.1984
   22SAPC   H3S 2875   1.076   5.475  10.027  0.6865 -0.3571  2.1031
   22SAPC   C24 2876   1.154   5.350   9.856  0.4268  0.0893  0.1314
   22SAPC   H4R 2877   1.240   5.281   9.859  0.0741 -0.3262  1.2357
   22SAPC   H4S 2878   1.185   5.442   9.802 -0.8330  0.7705  0.5138
   22SAPC   C25 2879   1.035   5.305   9.782 -0.1090 -0.0762  0.1390
   22SAPC   H5R 2880   0.950   5.374   9.781 -0.4974 -0.4349  2.6491
   22SAPC   C26 2881   1.019   5.185   9.725  0.1587  0.0976  0.9148
   22SAPC   H6R 2882   0.925   5.166   9.671 -0.4026  0.4811  1.7400
   22SAPC   C27 2883   1.119   5.072   9.734 -0.4258 -0.2047  0.4948
   22SAPC   H7R 2884   1.188   5.077   9.821 -2.4445  0.8002  2.1215
   22SAPC   H7S 2885   1.190   5.079   9.649 -2.3666  1.4234 -1.1155
   22SAPC   C28 2886   1.049   4.946   9.744  0.1450  0.6061  0.0249
   22SAPC   H8R 2887   1.000   4.933   9.841 -0.1506  1.0108 -0.0672
   22SAPC   C29 2888   1.042   4.854   9.645  0.5585 -0.4530 -0.4774
   22SAPC   H9R 2889   0.979   4.766   9.663  1.3907 -0.7778  0.9647
   22SAPC  C210 2890   1.092   4.863   9.505 -0.7424 -0.5337  0.1384
   22SAPC  H10R 2891   1.185   4.805   9.487 -0.6748  0.4275 -3.1085
   22SAPC  H10S 2892   1.122   4.966   9.477 -0.7836 -0.3318  0.8064
   22SAPC  C211 2893   0.983   4.830   9.401  0.4054 -0.3713  0.5311
   22SAPC  H11R 2894   0.884   4.794   9.432  0.0915 -0.5211 -0.6015
   22SAPC  C212 2895   0.998   4.840   9.265  0.5299 -0.1044  0.0326
   22SAPC  H12R 2896   0.922   4.790   9.203  1.8311 -1.7715 -0.2929
   22SAPC  C213 2897   1.127   4.885   9.190  0.6196 -0.4526  0.4330
   22SAPC  H13R 2898   1.158   4.982   9.233  0.0967  0.6083 -1.4783
   22SAPC  H13S 2899   1.106   4.921   9.087  1.2209  3.8614  1.6523
   22SAPC  C214 2900   1.254   4.805   9.190  0.5962  0.1300 -0.1419
   22SAPC  H14R 2901   1.281   4.756   9.285  1.3472  2.0037  0.6635
   22SAPC  C215 2902   1.330   4.769   9.087  0.8385 -0.4366 -1.1522
   22SAPC  H15R 2903   1.423   4.714   9.109  0.2702 -1.4534 -1.2409
   22SAPC  C216 2904   1.307   4.808   8.943  0.8188 -0.3865  0.5672
   22SAPC  H16R 2905   1.404   4.851   8.910  0.2582  1.6714  1.4452
   22SAPC  H16S 2906   1.235   4.891   8.927 -0.0849 -0.9884  1.3685
   22SAPC  C217 2907   1.274   4.686   8.851 -0.9354  0.2939 -0.6671
   22SAPC  H17R 2908   1.167   4.656   8.853 -1.4957  2.0246 -2.3219
   22SAPC  H17S 2909   1.336   4.599   8.882  0.0242  1.6200  1.3720
   22SAPC  C218 2910   1.311   4.717   8.707 -0.3194  0.7810 -0.1426
   22SAPC  H18R 2911   1.418   4.746   8.698 -0.6834  2.2920  0.2418
   22SAPC  H18S 2912   1.261   4.807   8.667 -2.3831 -0.3822 -0.3518
   22SAPC  C219 2913   1.304   4.585   8.623  0.6161  0.1276 -0.3134
   22SAPC  H19R 2914   1.200   4.546   8.619  0.4612  0.6139 -1.9178
   22SAPC  H19S 2915   1.371   4.509   8.670  0.0206 -1.3135 -1.6847
   22SAPC  C220 2916   1.354   4.597   8.479 -0.0447  0.0546 -0.4305
   22SAPC  H20R 2917   1.341   4.500   8.428  1.1212  0.3086 -1.2673
   22SAPC  H20S 2918   1.464   4.613   8.474  0.3318 -2.5407 -2.6525
   22SAPC  H20T 2919   1.316   4.687   8.426 -1.2813  1.1221  2.0952
   22SAPC   C33 2920   0.673   5.423   9.685 -0.3634 -0.0876  0.6439
   22SAPC   H3X 2921   0.571   5.414   9.728 -0.8345  1.6141 -0.0303
   22SAPC   H3Y 2922   0.736   5.350   9.740 -1.0274 -0.5050  0.8651
   22SAPC   C34 2923   0.641   5.394   9.540 -0.0657  0.4261 -0.1142
   22SAPC   H4X 2924   0.573   5.468   9.493 -1.1624  0.3350  1.2743
   22SAPC   H4Y 2925   0.576   5.305   9.524 -0.3756  1.0057 -2.4271
   22SAPC   C35 2926   0.773   5.377   9.459 -0.4058  0.0247  0.2685
   22SAPC   H5X 2927   0.822   5.289   9.505 -0.5193 -0.0589  0.2298
   22SAPC   H5Y 2928   0.853   5.454   9.470  2.4259 -2.8491  1.7049
   22SAPC   C36 2929   0.757   5.349   9.310 -0.4501  0.3023 -0.3395
   22SAPC   H6X 2930   0.711   5.437   9.260  2.0825  0.2189 -3.1413
   22SAPC   H6Y 2931   0.696   5.258   9.297 -2.5048  1.2838  1.7600
   22SAPC   C37 2932   0.894   5.326   9.249  0.4577  0.2517 -0.4441
   22SAPC   H7X 2933   0.913   5.217   9.244 -0.0292  0.2064 -2.6316
   22SAPC   H7Y 2934   0.961   5.400   9.299 -1.0684  0.8215  0.8580
   22SAPC   C38 2935   0.885   5.365   9.099  0.6529 -0.3622  1.2927
   22SAPC   H8X 2936   0.995   5.372   9.081  0.8109 -0.6798  2.0788
   22SAPC   H8Y 2937   0.836   5.463   9.080  3.1141  0.8909  0.8922
   22SAPC   C39 2938   0.818   5.252   9.015 -0.4793 -0.2541  0.0416
   22SAPC   H9X 2939   0.723   5.232   9.070  1.0761 -0.0372  3.0406
   22SAPC   H9Y 2940   0.870   5.155   9.034 -0.0478  0.0571  0.4642
   22SAPC  C310 2941   0.808   5.271   8.866 -0.0137 -0.3153 -0.3131
   22SAPC  H10X 2942   0.801   5.381   8.846 -2.3895 -0.2654  0.4302
   22SAPC  H10Y 2943   0.703   5.237   8.848 -0.4617  0.9902 -0.3240
   22SAPC  C311 2944   0.932   5.212   8.796  0.2262  0.4780  0.0915
   22SAPC  H11X 2945   0.951   5.103   8.802 -0.6226  0.3949  2.1202
   22SAPC  H11Y 2946   1.022   5.263   8.836 -0.2053  1.3926 -0.0739
   22SAPC  C312 2947   0.918   5.241   8.640 -0.3975 -0.0068 -0.2021
   22SAPC  H12X 2948   0.904   5.350   8.624 -1.9703 -0.1024  0.2801
   22SAPC  H12Y 2949   0.835   5.185   8.592 -0.5256 -0.9219  1.0298
   22SAPC  C313 2950   1.049   5.197   8.568 -0.3466 -0.2772 -0.0275
   22SAPC  H13X 2951   1.080   5.098   8.609 -1.6282 -0.6461  0.0886
   22SAPC  H13Y 2952   1.130   5.263   8.604 -1.4866 -0.2903  2.8584
   22SAPC  C314 2953   1.041   5.190   8.414 -0.6236  0.4715 -0.3354
   22SAPC  H14X 2954   1.014   5.290   8.373 -1.9912  0.1452 -0.2760
   22SAPC  H14Y 2955   0.955   5.125   8.386  1.7258 -1.6602 -3.2450
   22SAPC  C315 2956   1.174   5.144   8.343 -0.0147 -0.0962 -0.9939
   22SAPC  H15X 2957   1.256   5.203   8.389 -1.6430  0.9122  0.7855
   22SAPC  H15Y 2958   1.162   5.182   8.240 -1.6259  1.3535 -0.3286
   22SAPC  C316 2959   1.191   4.986   8.350 -0.0935 -0.1365  0.2670
   22SAPC  H16X 2960   1.179   4.944   8.452 -0.3418 -0.4309  0.1185
   22SAPC  H16Y 2961   1.296   4.967   8.320 -0.0877  2.1809 -1.4236
   22SAPC  C317 2962   1.085   4.916   8.258  0.0794 -0.0839 -0.8373
   22SAPC  H17X 2963   1.109   4.970   8.163 -0.8696 -1.1132 -1.6808
   22SAPC  H17Y 2964   0.976   4.928   8.272  0.2178  2.6869 -1.4282
   22SAPC  C318 2965   1.124   4.769   8.218  0.3066  0.3343  0.1059
   22SAPC  H18X 2966   1.224   4.769   8.170  0.5985 -1.2855  0.6317
   22SAPC  H18Y 2967   1.041   4.741   8.150  0.5568 -0.4455  0.1055
   22SAPC  H18Z 2968   1.122   4.696   8.302  1.1128 -0.3247 -0.4265
   23SAPC     N 2969   0.900   2.605  10.820 -0.7322 -0.0276  0.1213
   23SAPC   C12 2970   0.956   2.468  10.869  0.2206 -0.3468  0.2504
   23SAPC  H12A 2971   0.961   2.474  10.977  1.9092  1.3915  0.1258
   23SAPC  H12B 2972   1.057   2.447  10.839  0.3516  1.1090 -0.4219
   23SAPC   C13 2973   0.988   2.716  10.853 -0.0220 -0.6323 -0.2649
   23SAPC  H13A 2974   0.945   2.811  10.824 -0.3267 -0.7667 -0.2549
   23SAPC  H13B 2975   1.009   2.724  10.958  0.7540 -0.5600 -0.4199
   23SAPC  H13C 2976   1.082   2.716  10.799  1.0465  4.2357  1.0586
   23SAPC   C14 2977   0.883   2.600  10.670  0.0555 -0.2961 -0.1235
   23SAPC  H14A 2978   0.843   2.691  10.627 -1.6496 -1.1192 -0.3794
   23SAPC  H14B 2979   0.979   2.576  10.627  0.4169  0.9294 -0.0581
   23SAPC  H14C 2980   0.803   2.531  10.648  1.2136 -1.2043 -1.6612
   23SAPC   C15 2981   0.766   2.633  10.873 -0.0895 -0.2277  0.0546
   23SAPC  H15A 2982   0.728   2.725  10.831 -0.3344 -0.5605 -0.4654
   23SAPC  H15B 2983   0.698   2.552  10.853  0.0867 -0.7272  1.3759
   23SAPC  H15C 2984   0.771   2.651  10.980 -0.1763 -0.9066  0.1765
   23SAPC   C11 2985   0.877   2.344  10.826  0.2513  0.5475 -0.1570
   23SAPC  H11A 2986   0.770   2.354  10.857 -0.6273 -1.3978 -2.2792
   23SAPC  H11B 2987   0.923   2.268  10.892 -1.4494 -1.3361 -1.0127
   23SAPC     P 2988   0.993   2.221  10.627 -0.0652  0.0910 -0.3271
   23SAPC   O13 2989   1.119   2.223  10.705 -0.6069 -0.1325 -0.4556
   23SAPC   O14 2990   0.923   2.092  10.617 -0.2262  0.4487  0.4397
   23SAPC   O12 2991   0.892   2.319  10.685 -0.4132  1.0063  0.1226
   23SAPC   O11 2992   1.024   2.279  10.483  0.1318 -0.1476  0.1394
   23SAPC    C1 2993   0.919   2.262  10.386  1.0640 -0.2939 -0.3221
   23SAPC    HA 2994   0.853   2.174  10.403  1.1302 -0.7529 -2.2608
   23SAPC    HB 2995   0.860   2.356  10.386  1.1614 -0.2224 -1.2941
   23SAPC    C2 2996   0.974   2.234  10.240  0.0293 -0.1012  0.2923
   23SAPC    HS 2997   0.923   2.145  10.198  1.5494 -0.6881 -0.3821
   23SAPC   O21 2998   1.116   2.217  10.234 -0.6038 -0.4916 -0.7103
   23SAPC   C21 2999   1.171   2.142  10.148  0.1292  0.4494 -0.4930
   23SAPC   O22 3000   1.113   2.053  10.088  0.0548  0.3867  0.6402
   23SAPC   C22 3001   1.320   2.180  10.131  0.1401  0.0809 -0.1409
   23SAPC   H2R 3002   1.313   2.290  10.120 -1.9112 -0.0077 -0.1284
   23SAPC   H2S 3003   1.374   2.153  10.224 -2.9838  1.3354  2.2122
   23SAPC    C3 3004   0.945   2.355  10.148  0.0052 -0.2887  0.0692
   23SAPC    HX 3005   1.000   2.442  10.189 -2.1207  0.6275  1.0834
   23SAPC    HY 3006   0.835   2.366  10.157 -0.1800 -2.8780  2.6766
   23SAPC   O31 3007   0.990   2.342  10.012 -0.3105 -0.3887 -0.5187
   23SAPC   C31 3008   0.905   2.363   9.911  0.4016 -0.7705  0.0896
   23SAPC   O32 3009   0.784   2.369   9.924  0.0642  0.8622  1.0791
   23SAPC   C32 3010   0.980   2.387   9.776  0.0555  0.0162 -0.2301
   23SAPC   H2X 3011   1.002   2.284   9.741  0.1167  0.5152 -1.7187
   23SAPC   H2Y 3012   1.075   2.440   9.799  0.3504 -0.9177  0.7896
   23SAPC   C23 3013   1.380   2.109  10.009  0.4610 -0.0189  0.1750
   23SAPC   H3R 3014   1.383   1.998  10.021  1.5403 -0.1574 -1.1098
   23SAPC   H3S 3015   1.482   2.151  10.002 -0.3803  2.1499  0.0570
   23SAPC   C24 3016   1.320   2.138   9.876  0.5620 -0.7182  0.3316
   23SAPC   H4R 3017   1.212   2.111   9.877  0.4666 -0.4946 -1.2649
   23SAPC   H4S 3018   1.374   2.072   9.804  1.2183 -1.9795  1.9053
   23SAPC   C25 3019   1.319   2.282   9.833  0.1078 -0.3771  0.3930
   23SAPC   H5R 3020   1.273   2.350   9.905  0.5000  2.1161 -1.5866
   23SAPC   C26 3021   1.349   2.336   9.711 -0.4155 -0.5930 -0.4592
   23SAPC   H6R 3022   1.310   2.437   9.692 -3.6018 -0.9951  2.7371
   23SAPC   C27 3023   1.390   2.269   9.584  0.4742 -0.1444 -0.2676
   23SAPC   H7R 3024   1.443   2.174   9.607 -1.2107 -0.6948  1.6616
   23SAPC   H7S 3025   1.463   2.340   9.538 -0.1546  0.9581  0.3923
   23SAPC   C28 3026   1.272   2.246   9.493 -0.5237  0.4980  0.3331
   23SAPC   H8R 3027   1.181   2.209   9.541 -0.0460 -0.0975  0.7949
   23SAPC   C29 3028   1.288   2.252   9.356 -0.4097 -0.1259  0.3303
   23SAPC   H9R 3029   1.201   2.218   9.298 -0.4387 -0.8383  0.7796
   23SAPC  C210 3030   1.406   2.291   9.282  0.3214  0.0793  0.1884
   23SAPC  H10R 3031   1.503   2.271   9.332 -0.5504 -0.3456  1.7685
   23SAPC  H10S 3032   1.399   2.400   9.266 -1.4841 -0.0038  0.2654
   23SAPC  C211 3033   1.414   2.224   9.145  0.1912  0.1853 -0.2356
   23SAPC  H11R 3034   1.467   2.128   9.145 -0.1909 -0.0521 -1.6469
   23SAPC  C212 3035   1.351   2.258   9.030  0.7402  0.1668  0.2425
   23SAPC  H12R 3036   1.369   2.190   8.945  0.8754  0.1083  0.3176
   23SAPC  C213 3037   1.261   2.377   9.015 -0.7447 -0.1572  0.4766
   23SAPC  H13R 3038   1.309   2.457   9.076  1.2116 -0.8280 -0.1109
   23SAPC  H13S 3039   1.159   2.350   9.049 -0.5203 -2.1288 -0.3258
   23SAPC  C214 3040   1.230   2.411   8.868 -0.1361 -0.2900  0.0423
   23SAPC  H14R 3041   1.288   2.489   8.818 -0.1407 -0.5113 -0.3112
   23SAPC  C215 3042   1.137   2.349   8.790  0.8924 -1.0182 -0.8265
   23SAPC  H15R 3043   1.134   2.382   8.685  2.4437 -0.1538 -0.6279
   23SAPC  C216 3044   1.035   2.236   8.822 -0.9798  0.1523 -0.2622
   23SAPC  H16R 3045   0.938   2.291   8.824 -1.4989 -0.7124 -0.9342
   23SAPC  H16S 3046   1.043   2.195   8.925 -1.5760 -0.6583 -0.5252
   23SAPC  C217 3047   1.017   2.119   8.719 -0.1222  0.1324  0.1616
   23SAPC  H17R 3048   1.087   2.040   8.752  0.0890 -0.0968 -0.7978
   23SAPC  H17S 3049   1.067   2.148   8.624  3.7599 -0.5157  1.7999
   23SAPC  C218 3050   0.873   2.064   8.710  0.6216 -0.3138  0.5478
   23SAPC  H18R 3051   0.809   2.153   8.689  1.7954  0.1299 -1.4666
   23SAPC  H18S 3052   0.843   2.016   8.805  2.0172 -2.3377  0.0110
   23SAPC  C219 3053   0.856   1.965   8.592  0.0635  0.5161  0.4253
   23SAPC  H19R 3054   0.859   2.017   8.494  0.6283 -1.4436 -0.6554
   23SAPC  H19S 3055   0.758   1.913   8.599  0.7834 -1.0012 -0.4992
   23SAPC  C220 3056   0.955   1.848   8.596  0.2963 -0.1930 -0.8072
   23SAPC  H20R 3057   0.957   1.800   8.696  0.9155 -2.2709 -1.7749
   23SAPC  H20S 3058   1.057   1.883   8.571  0.0798  1.5729  0.5247
   23SAPC  H20T 3059   0.923   1.772   8.522 -1.4169  1.3131 -1.7121
   23SAPC   C33 3060   0.908   2.486   9.682  0.3435 -0.5755 -0.5714
   23SAPC   H3X 3061   0.897   2.579   9.741  0.2568 -2.5001  2.7213
   23SAPC   H3Y 3062   0.805   2.460   9.649  1.1385 -2.0690 -2.0380
   23SAPC   C34 3063   0.997   2.515   9.559  0.4236 -0.2653  0.6183
   23SAPC   H4X 3064   1.036   2.422   9.513  1.3165 -0.6949  2.1728
   23SAPC   H4Y 3065   1.086   2.570   9.597 -0.2520 -0.3058  2.3716
   23SAPC   C35 3066   0.913   2.594   9.458  0.7564 -0.4091  0.0126
   23SAPC   H5X 3067   0.885   2.691   9.504  0.7763 -0.1013 -0.6140
   23SAPC   H5Y 3068   0.813   2.546   9.459  1.6204 -2.2800 -0.1977
   23SAPC   C36 3069   0.974   2.610   9.311  0.4732  0.2015 -1.0830
   23SAPC   H6X 3070   0.904   2.679   9.259 -2.9706 -0.8200  1.7800
   23SAPC   H6Y 3071   0.975   2.512   9.260  0.0042  0.0557 -0.8208
   23SAPC   C37 3072   1.110   2.670   9.312 -0.7273 -0.1975  0.3999
   23SAPC   H7X 3073   1.182   2.588   9.336  0.3003  0.3917 -0.5539
   23SAPC   H7Y 3074   1.121   2.754   9.384 -0.5175 -0.4570  0.6719
   23SAPC   C38 3075   1.146   2.718   9.166 -0.0936 -0.2323 -0.4242
   23SAPC   H8X 3076   1.142   2.631   9.098  1.3723 -1.4799  1.0176
   23SAPC   H8Y 3077   1.253   2.749   9.167 -0.2287  0.2485 -0.5954
   23SAPC   C39 3078   1.069   2.839   9.106 -0.6725  0.0511  0.3869
   23SAPC   H9X 3079   1.101   2.934   9.154  1.2471 -0.2626 -0.1894
   23SAPC   H9Y 3080   0.960   2.820   9.116 -0.2763 -2.6059  0.3716
   23SAPC  C310 3081   1.103   2.852   8.958 -0.0260 -0.3236  0.1340
   23SAPC  H10X 3082   1.213   2.843   8.944 -0.1753  1.2364 -2.9522
   23SAPC  H10Y 3083   1.072   2.950   8.915 -1.7616  0.1283  2.2512
   23SAPC  C311 3084   1.045   2.749   8.861 -0.1568 -0.4119 -0.2796
   23SAPC  H11X 3085   0.935   2.743   8.864 -0.2676  0.9499 -1.0145
   23SAPC  H11Y 3086   1.096   2.655   8.892  1.2411  0.9485  1.7887
   23SAPC  C312 3087   1.075   2.761   8.711 -0.3305  0.0281 -0.1700
   23SAPC  H12X 3088   1.024   2.855   8.679  2.3002  1.2943 -0.8906
   23SAPC  H12Y 3089   1.031   2.666   8.673 -1.6438 -0.1181  1.5896
   23SAPC  C313 3090   1.225   2.761   8.674 -0.1605 -0.5150 -0.4231
   23SAPC  H13X 3091   1.277   2.680   8.729  0.3421  0.9150  1.3096
   23SAPC  H13Y 3092   1.283   2.851   8.703  0.8381 -0.8727 -1.2631
   23SAPC  C314 3093   1.240   2.736   8.526  0.7009  0.1891  0.1023
   23SAPC  H14X 3094   1.179   2.808   8.468  0.4294 -1.9291 -2.4423
   23SAPC  H14Y 3095   1.187   2.640   8.510  0.4137  0.3047  0.3493
   23SAPC  C315 3096   1.382   2.717   8.480 -0.6062 -1.0215 -0.2615
   23SAPC  H15X 3097   1.431   2.644   8.548  2.6190  0.5142 -0.7659
   23SAPC  H15Y 3098   1.440   2.811   8.488 -2.1235 -0.0875  0.3668
   23SAPC  C316 3099   1.415   2.665   8.344 -0.1039  0.4783 -0.3026
   23SAPC  H16X 3100   1.355   2.720   8.267 -2.2273  0.3809  1.2170
   23SAPC  H16Y 3101   1.375   2.562   8.346 -1.0662  0.8455  1.6679
   23SAPC  C317 3102   1.565   2.654   8.304  0.1009 -0.9108 -0.1736
   23SAPC  H17X 3103   1.629   2.614   8.385  0.8488  1.3107  0.3958
   23SAPC  H17Y 3104   1.608   2.754   8.284 -0.2534 -1.0105 -1.5613
   23SAPC  C318 3105   1.590   2.561   8.188 -0.7381  0.6478 -1.3142
   23SAPC  H18X 3106   1.594   2.455   8.221 -0.6072  1.7483  2.8232
   23SAPC  H18Y 3107   1.688   2.581   8.140 -1.1279  0.5221 -2.1678
   23SAPC  H18Z 3108   1.510   2.576   8.113 -0.5238  0.1075 -1.6510
   24SAPC     N 3109   4.860   6.622  10.912  0.4258 -0.4471 -0.4970
   24SAPC   C12 3110   4.828   6.728  10.809 -0.2976 -0.0476 -0.2823
   24SAPC  H12A 3111   4.798   6.811  10.871 -2.1279 -0.7914 -0.1060
   24SAPC  H12B 3112   4.736   6.701  10.759 -1.6892  0.0534  2.0574
   24SAPC   C13 3113   4.978   6.657  11.002 -0.2080  0.1992  0.2437
   24SAPC  H13A 3114   5.062   6.673  10.937 -0.1015 -1.4331 -0.0788
   24SAPC  H13B 3115   4.953   6.741  11.066 -4.0702 -1.8474  1.7912
   24SAPC  H13C 3116   4.998   6.577  11.072  0.1856  2.3013  2.6881
   24SAPC   C14 3117   4.745   6.609  11.007  0.1890 -0.3834  0.0185
   24SAPC  H14A 3118   4.765   6.548  11.094  0.4429 -0.7004 -0.2558
   24SAPC  H14B 3119   4.718   6.703  11.051 -1.0609 -0.6480 -0.1472
   24SAPC  H14C 3120   4.656   6.570  10.960 -0.1593 -0.6983  0.9185
   24SAPC   C15 3121   4.887   6.487  10.850 -0.2106 -0.5595  0.0878
   24SAPC  H15A 3122   4.806   6.449  10.790 -0.1930 -1.8711  0.8550
   24SAPC  H15B 3123   4.962   6.490  10.773 -2.2102 -0.3249 -1.9383
   24SAPC  H15C 3124   4.909   6.411  10.924  3.6333  0.2074 -0.0342
   24SAPC   C11 3125   4.940   6.769  10.710 -0.1003  0.1562  0.1533
   24SAPC  H11A 3126   4.896   6.826  10.626  0.5448  1.5895  0.7496
   24SAPC  H11B 3127   4.980   6.675  10.667  1.1778  1.7852 -2.4262
   24SAPC     P 3128   5.061   6.988  10.796  0.2669 -0.1883  0.0344
   24SAPC   O13 3129   5.040   7.030  10.939  0.1302 -0.3373  0.1371
   24SAPC   O14 3130   5.182   7.036  10.728  0.2021  0.3194 -0.0219
   24SAPC   O12 3131   5.048   6.826  10.782 -0.3003 -0.9383  0.4721
   24SAPC   O11 3132   4.933   7.038  10.711 -0.9644  0.1638 -0.6775
   24SAPC    C1 3133   4.933   7.177  10.670 -0.1457  0.2123  0.7784
   24SAPC    HA 3134   4.845   7.233  10.710 -0.4369  1.4253 -1.4464
   24SAPC    HB 3135   5.021   7.233  10.708  1.9119 -0.9969 -1.9139
   24SAPC    C2 3136   4.905   7.195  10.513  0.4235 -0.2798  0.0395
   24SAPC    HS 3137   4.796   7.175  10.506  0.6183 -0.9843 -1.2110
   24SAPC   O21 3138   4.975   7.099  10.422 -0.1085  0.1094 -0.2825
   24SAPC   C21 3139   4.907   6.991  10.394  0.4600 -0.3454 -1.1311
   24SAPC   O22 3140   4.806   6.945  10.448 -0.0890 -0.2711 -0.5652
   24SAPC   C22 3141   4.992   6.922  10.285 -0.3832  0.0551  0.1766
   24SAPC   H2R 3142   5.058   6.993  10.231 -2.1555  0.8369 -1.0610
   24SAPC   H2S 3143   5.059   6.845  10.330  0.9978  0.6136 -0.8222
   24SAPC    C3 3144   4.941   7.341  10.474 -0.2678  0.5644  0.5847
   24SAPC    HX 3145   5.048   7.354  10.501  0.0302 -2.8833  1.4844
   24SAPC    HY 3146   4.886   7.411  10.540 -0.9620  0.2491  0.3514
   24SAPC   O31 3147   4.915   7.371  10.329 -0.1872 -0.2291 -0.4953
   24SAPC   C31 3148   4.972   7.485  10.295 -0.6070 -0.4165  0.7281
   24SAPC   O32 3149   5.060   7.545  10.357  0.2140  0.2484 -0.0390
   24SAPC   C32 3150   4.919   7.537  10.157  0.3575 -0.2433  0.5317
   24SAPC   H2X 3151   4.808   7.536  10.161  0.3574 -0.2062  0.5274
   24SAPC   H2Y 3152   4.967   7.468  10.084 -0.1084 -1.2486  1.1417
   24SAPC   C23 3153   4.901   6.849  10.182 -0.3810  0.3102 -0.5521
   24SAPC   H3R 3154   4.955   6.789  10.105 -2.9784 -0.3660 -1.9708
   24SAPC   H3S 3155   4.834   6.922  10.133 -0.2469  0.5031 -0.4488
   24SAPC   C24 3156   4.804   6.737  10.241  0.6906 -0.5870  0.2222
   24SAPC   H4R 3157   4.764   6.684  10.152 -0.8301 -3.0281  2.2346
   24SAPC   H4S 3158   4.712   6.782  10.285 -0.5197 -2.9713  0.2800
   24SAPC   C25 3159   4.876   6.646  10.336  0.8332 -0.4214 -0.6347
   24SAPC   H5R 3160   4.848   6.668  10.440  1.0279  0.2919 -0.7265
   24SAPC   C26 3161   4.951   6.540  10.294  0.0310  0.2989  0.3199
   24SAPC   H6R 3162   4.995   6.479  10.374  0.3762  0.0109 -0.0857
   24SAPC   C27 3163   4.978   6.499  10.153 -0.4277  0.0330  0.2093
   24SAPC   H7R 3164   4.906   6.544  10.082 -0.7438  0.3932  0.7548
   24SAPC   H7S 3165   4.971   6.388  10.150  1.0884 -0.0689 -0.9364
   24SAPC   C28 3166   5.116   6.539  10.100  0.5731  0.5745 -0.0867
   24SAPC   H8R 3167   5.191   6.528  10.180  0.2985 -1.6298 -0.0524
   24SAPC   C29 3168   5.146   6.588   9.975 -0.0763 -0.1421 -0.4824
   24SAPC   H9R 3169   5.251   6.587   9.944 -0.0446  0.4158 -0.4041
   24SAPC  C210 3170   5.048   6.637   9.866  0.1595  0.3035  0.1686
   24SAPC  H10R 3171   5.098   6.700   9.789 -3.9829  0.6154 -2.5942
   24SAPC  H10S 3172   4.970   6.702   9.911  0.6778  0.8018  0.3745
   24SAPC  C211 3173   4.976   6.531   9.792  0.4072 -0.0600 -0.0867
   24SAPC  H11R 3174   4.966   6.435   9.846  0.3001 -0.3233 -0.5631
   24SAPC  C212 3175   4.935   6.530   9.664  0.4831 -0.1822 -0.6153
   24SAPC  H12R 3176   4.868   6.451   9.628  0.1707 -0.9287  1.4368
   24SAPC  C213 3177   4.950   6.653   9.582  0.2845 -0.4201 -0.1541
   24SAPC  H13R 3178   5.050   6.701   9.587  0.4012 -0.6130 -0.5584
   24SAPC  H13S 3179   4.870   6.729   9.598  1.1033  0.6317 -0.9556
   24SAPC  C214 3180   4.925   6.617   9.434  0.8995  0.0472  0.8914
   24SAPC  H14R 3181   4.926   6.509   9.416  1.8452 -0.2481  2.4887
   24SAPC  C215 3182   4.903   6.712   9.335  0.1867  0.1902 -0.6550
   24SAPC  H15R 3183   4.919   6.674   9.233 -0.5991 -0.2740 -0.6093
   24SAPC  C216 3184   4.899   6.862   9.352  0.0177  0.2410 -0.6866
   24SAPC  H16R 3185   4.897   6.902   9.456  1.8181  1.8486 -1.1905
   24SAPC  H16S 3186   4.802   6.892   9.308 -0.5391 -0.5205 -0.0072
   24SAPC  C217 3187   5.016   6.937   9.277  0.3606  0.2422  0.4019
   24SAPC  H17R 3188   5.027   6.905   9.172 -2.3677  0.8721 -0.1580
   24SAPC  H17S 3189   5.116   6.927   9.325  1.4522  2.1896 -1.2670
   24SAPC  C218 3190   4.996   7.092   9.274  0.1879 -0.4850 -0.1355
   24SAPC  H18R 3191   5.030   7.138   9.369 -0.2610 -0.9024  0.2244
   24SAPC  H18S 3192   4.887   7.107   9.265  0.0011 -0.2834  1.9942
   24SAPC  C219 3193   5.067   7.156   9.157  0.3238 -0.1724  0.0906
   24SAPC  H19R 3194   5.026   7.114   9.063 -0.1666 -2.4009  1.2275
   24SAPC  H19S 3195   5.175   7.129   9.148  0.3935 -0.1600  0.8193
   24SAPC  C220 3196   5.068   7.312   9.163 -0.7569 -0.3024 -0.2245
   24SAPC  H20R 3197   4.983   7.364   9.114  0.8842  1.4782 -1.2747
   24SAPC  H20S 3198   5.158   7.361   9.120 -0.1541 -0.2349  1.0731
   24SAPC  H20T 3199   5.064   7.330   9.273  0.7221 -0.4540 -0.1319
   24SAPC   C33 3200   4.968   7.675  10.122 -0.3444 -0.1697 -0.5128
   24SAPC   H3X 3201   5.079   7.671  10.123 -0.3363 -0.5848 -1.6989
   24SAPC   H3Y 3202   4.929   7.749  10.196 -1.4319 -2.2638  1.1278
   24SAPC   C34 3203   4.923   7.718   9.978 -0.9758  0.2296  0.0611
   24SAPC   H4X 3204   4.964   7.816   9.947  0.2601 -0.2554  0.1191
   24SAPC   H4Y 3205   4.815   7.743   9.970 -0.7592  1.2932  0.2933
   24SAPC   C35 3206   4.951   7.609   9.870 -0.2620  0.0586 -0.0887
   24SAPC   H5X 3207   4.896   7.519   9.906 -0.1149  0.8622  2.2874
   24SAPC   H5Y 3208   5.059   7.584   9.872 -0.1771  0.3559  2.4866
   24SAPC   C36 3209   4.922   7.652   9.728  0.1553 -0.1818  0.5688
   24SAPC   H6X 3210   4.986   7.740   9.707 -1.7320  1.4647  1.3814
   24SAPC   H6Y 3211   4.819   7.690   9.711  0.2570  0.7922  1.9210
   24SAPC   C37 3212   4.940   7.539   9.628  0.2575 -0.0126 -0.5389
   24SAPC   H7X 3213   4.872   7.457   9.658 -0.0604  0.8725  1.2641
   24SAPC   H7Y 3214   5.038   7.490   9.647  0.7099  1.6642  1.8532
   24SAPC   C38 3215   4.952   7.569   9.480  0.8356  0.0136 -0.4596
   24SAPC   H8X 3216   4.862   7.629   9.455 -0.9993 -2.0148  0.8594
   24SAPC   H8Y 3217   4.934   7.476   9.422  0.9931  0.2574 -0.9089
   24SAPC   C39 3218   5.071   7.645   9.436  0.2110  0.1315  0.2092
   24SAPC   H9X 3219   5.160   7.579   9.428  0.1986  0.2792 -1.3797
   24SAPC   H9Y 3220   5.091   7.720   9.516  0.5752  1.0097 -0.7003
   24SAPC  C310 3221   5.062   7.720   9.304 -0.4791  0.1750  0.8117
   24SAPC  H10X 3222   5.006   7.815   9.321 -1.7337 -0.6951  1.7869
   24SAPC  H10Y 3223   5.011   7.648   9.236 -1.0345 -0.9048  2.3252
   24SAPC  C311 3224   5.194   7.765   9.233  0.4542  0.5348  0.3947
   24SAPC  H11X 3225   5.261   7.676   9.230  1.6159  1.3986 -0.1503
   24SAPC  H11Y 3226   5.233   7.851   9.291 -1.3139  2.3159 -0.9008
   24SAPC  C312 3227   5.149   7.831   9.099  0.1724  0.4440  0.0982
   24SAPC  H12X 3228   5.147   7.942   9.101 -1.3255  0.5379 -2.2733
   24SAPC  H12Y 3229   5.049   7.802   9.060  0.6645 -0.2899 -0.6597
   24SAPC  C313 3230   5.234   7.790   8.967  0.2147 -0.6169  0.6018
   24SAPC  H13X 3231   5.219   7.680   8.959 -0.4128 -0.4697 -0.3154
   24SAPC  H13Y 3232   5.341   7.810   8.992  0.3486 -1.8694  1.1148
   24SAPC  C314 3233   5.192   7.866   8.841 -0.3942 -0.2013  0.7136
   24SAPC  H14X 3234   5.085   7.893   8.854 -0.9033 -2.2457  1.0701
   24SAPC  H14Y 3235   5.215   7.804   8.753  0.4726 -0.5299  1.1582
   24SAPC  C315 3236   5.272   8.004   8.832  0.1184 -0.1864 -0.3633
   24SAPC  H15X 3237   5.372   7.983   8.790  0.6893  2.4849 -0.5479
   24SAPC  H15Y 3238   5.276   8.044   8.936 -2.9543 -0.1753 -0.1510
   24SAPC  C316 3239   5.196   8.113   8.747 -0.1652  0.5564  0.7952
   24SAPC  H16X 3240   5.247   8.211   8.741 -1.6217  1.2902 -0.0212
   24SAPC  H16Y 3241   5.106   8.136   8.808 -0.4226  0.4013  0.4824
   24SAPC  C317 3242   5.165   8.074   8.613  0.7624 -0.3999  1.0933
   24SAPC  H17X 3243   5.089   7.993   8.605  1.1907 -0.7223  0.0662
   24SAPC  H17Y 3244   5.256   8.034   8.563  1.7984  0.1418  2.5012
   24SAPC  C318 3245   5.122   8.194   8.534  0.1192 -0.4404 -0.3148
   24SAPC  H18X 3246   5.161   8.198   8.430 -0.5904  1.4128 -0.5579
   24SAPC  H18Y 3247   5.163   8.289   8.574  1.2740  0.2625 -2.9775
   24SAPC  H18Z 3248   5.011   8.203   8.529  0.2034  1.0931  0.1079
   25SAPC     N 3249   5.303   6.153   5.943  0.2248  0.0229 -0.0975
   25SAPC   C12 3250   5.188   6.238   6.002  0.1645  0.3203  0.0478
   25SAPC  H12A 3251   5.193   6.213   6.107  1.5977  1.4609  0.2762
   25SAPC  H12B 3252   5.093   6.215   5.956 -0.2394  0.7546  0.6515
   25SAPC   C13 3253   5.262   6.010   5.951  0.1380 -0.4409 -0.3318
   25SAPC  H13A 3254   5.173   5.991   5.893 -1.0631  0.2176  1.2356
   25SAPC  H13B 3255   5.340   5.939   5.927  0.7967 -0.0284  0.5353
   25SAPC  H13C 3256   5.240   5.997   6.056  0.0981  1.5909 -0.0592
   25SAPC   C14 3257   5.309   6.177   5.799 -0.1339 -0.3943 -0.2744
   25SAPC  H14A 3258   5.323   6.284   5.788  0.4401 -0.2195  1.7815
   25SAPC  H14B 3259   5.390   6.119   5.758 -1.0875 -1.2415 -0.9954
   25SAPC  H14C 3260   5.209   6.163   5.759 -1.2340 -0.3273  2.2763
   25SAPC   C15 3261   5.434   6.175   6.009  0.2504 -0.3651  0.5142
   25SAPC  H15A 3262   5.429   6.161   6.116  0.0718  1.4647  0.7744
   25SAPC  H15B 3263   5.514   6.119   5.963  0.0309  0.6062 -1.1257
   25SAPC  H15C 3264   5.450   6.281   6.002 -0.7095 -0.2915 -0.8672
   25SAPC   C11 3265   5.188   6.393   5.990 -0.0666  0.1672  0.3642
   25SAPC  H11A 3266   5.115   6.429   6.066  1.3307  1.7385  1.0146
   25SAPC  H11B 3267   5.163   6.423   5.886  1.4170 -3.2727 -1.1506
   25SAPC     P 3268   5.334   6.572   6.103 -0.1685 -0.2423 -0.5198
   25SAPC   O13 3269   5.429   6.665   6.037 -0.0440  0.0348  0.0391
   25SAPC   O14 3270   5.204   6.628   6.131  0.0911  0.7103 -0.2382
   25SAPC   O12 3271   5.319   6.446   6.012  0.2909  0.2799  0.6815
   25SAPC   O11 3272   5.403   6.516   6.236 -0.3765 -1.0718 -0.2602
   25SAPC    C1 3273   5.340   6.439   6.333  0.8562  0.5726 -0.0559
   25SAPC    HA 3274   5.244   6.398   6.295  1.1956  0.2973 -0.6244
   25SAPC    HB 3275   5.409   6.356   6.358  0.5449 -0.8516 -3.3880
   25SAPC    C2 3276   5.286   6.532   6.449  0.9370 -0.0010 -0.3834
   25SAPC    HS 3277   5.204   6.594   6.408  0.1465 -1.1661 -0.6148
   25SAPC   O21 3278   5.396   6.615   6.498 -0.2939 -0.5662 -0.2350
   25SAPC   C21 3279   5.356   6.740   6.537 -0.0433 -0.0609 -0.3504
   25SAPC   O22 3280   5.240   6.776   6.553 -0.1955 -0.5111  0.7152
   25SAPC   C22 3281   5.475   6.826   6.554  0.0562  0.2265  0.0786
   25SAPC   H2R 3282   5.553   6.790   6.484 -0.9111 -2.3146  0.1880
   25SAPC   H2S 3283   5.465   6.931   6.518  1.2495  0.5678  0.6894
   25SAPC    C3 3284   5.219   6.440   6.554  0.0869 -0.0402 -0.2278
   25SAPC    HX 3285   5.300   6.370   6.583 -0.1044 -1.4150 -2.6727
   25SAPC    HY 3286   5.150   6.368   6.506 -1.0651  1.8283 -1.5169
   25SAPC   O31 3287   5.171   6.510   6.666  0.7537 -0.2194  0.7417
   25SAPC   C31 3288   5.057   6.567   6.648 -0.3050  0.7104 -0.6609
   25SAPC   O32 3289   4.990   6.562   6.548 -0.2475 -0.3423  0.0547
   25SAPC   C32 3290   5.021   6.657   6.773  0.1774  0.9440  0.7422
   25SAPC   H2X 3291   4.954   6.600   6.841  0.4622  0.4330  0.5969
   25SAPC   H2Y 3292   4.964   6.739   6.725 -0.3463 -0.1371 -0.5422
   25SAPC   C23 3293   5.526   6.824   6.697 -0.6656  0.3196 -0.1189
   25SAPC   H3R 3294   5.533   6.717   6.728 -1.4382  0.5966  1.0516
   25SAPC   H3S 3295   5.459   6.873   6.770 -0.7473  0.2528 -0.1474
   25SAPC   C24 3296   5.666   6.882   6.703  0.0278  0.4924 -0.3556
   25SAPC   H4R 3297   5.735   6.803   6.667  1.5286  2.9562 -3.2589
   25SAPC   H4S 3298   5.684   6.899   6.812  0.5728 -0.0531 -0.3581
   25SAPC   C25 3299   5.691   7.019   6.633 -0.0496  0.2255  0.3286
   25SAPC   H5R 3300   5.710   7.012   6.524 -0.2171  0.7653  0.2631
   25SAPC   C26 3301   5.685   7.136   6.697 -0.1606  0.5095 -0.0177
   25SAPC   H6R 3302   5.707   7.222   6.632  0.6505 -0.5789 -1.2302
   25SAPC   C27 3303   5.671   7.166   6.840 -0.2446 -0.3661  0.3612
   25SAPC   H7R 3304   5.722   7.084   6.896  2.8261 -0.5726 -2.3987
   25SAPC   H7S 3305   5.562   7.165   6.861 -0.3514  0.7872 -0.0937
   25SAPC   C28 3306   5.730   7.299   6.885  0.1984 -0.4751  0.5518
   25SAPC   H8R 3307   5.803   7.342   6.815 -0.8365  0.3001 -0.0707
   25SAPC   C29 3308   5.703   7.361   7.007 -0.0784  0.3773  0.0705
   25SAPC   H9R 3309   5.765   7.449   7.029 -1.5002  1.4175  0.0531
   25SAPC  C210 3310   5.606   7.309   7.112  0.2037  0.2611  0.3751
   25SAPC  H10R 3311   5.629   7.208   7.150 -1.7424 -0.8559 -1.2004
   25SAPC  H10S 3312   5.503   7.291   7.072 -0.7877 -1.1958  3.3401
   25SAPC  C211 3313   5.587   7.408   7.219  0.1134 -0.0959 -0.2197
   25SAPC  H11R 3314   5.525   7.497   7.202  0.8720  1.0032  2.3094
   25SAPC  C212 3315   5.613   7.398   7.349  0.0360 -0.7310  1.0198
   25SAPC  H12R 3316   5.602   7.487   7.412  0.7360  1.3264 -1.5616
   25SAPC  C213 3317   5.675   7.283   7.420 -0.0918 -0.0564 -0.4004
   25SAPC  H13R 3318   5.711   7.202   7.353  1.1836 -0.0767  0.2799
   25SAPC  H13S 3319   5.593   7.224   7.467  0.3132 -0.9328 -0.7759
   25SAPC  C214 3320   5.786   7.320   7.513 -0.0037  0.1475  0.1740
   25SAPC  H14R 3321   5.886   7.327   7.469  0.2415  0.4942  0.7817
   25SAPC  C215 3322   5.770   7.358   7.644  0.0732  0.7924  0.1022
   25SAPC  H15R 3323   5.861   7.374   7.704  0.7047 -2.6602  0.2629
   25SAPC  C216 3324   5.645   7.373   7.719  0.2096  0.5278  0.1764
   25SAPC  H16R 3325   5.613   7.275   7.760 -1.3479  1.5095  1.4088
   25SAPC  H16S 3326   5.562   7.392   7.648  0.8727 -4.6293 -2.4824
   25SAPC  C217 3327   5.647   7.468   7.844  0.3639  0.5802  0.4728
   25SAPC  H17R 3328   5.546   7.478   7.891  1.2327 -1.3719  2.9816
   25SAPC  H17S 3329   5.677   7.571   7.817  0.5647  0.3227 -0.3083
   25SAPC  C218 3330   5.752   7.426   7.947  0.2078 -0.4180 -0.1577
   25SAPC  H18R 3331   5.741   7.499   8.030  0.9482  1.2749 -1.4887
   25SAPC  H18S 3332   5.854   7.445   7.905  0.5977 -1.1547  0.4341
   25SAPC  C219 3333   5.744   7.284   7.998  0.5104 -0.7441 -0.2452
   25SAPC  H19R 3334   5.828   7.271   8.070  1.3330  3.9654 -0.0252
   25SAPC  H19S 3335   5.762   7.218   7.911  2.5521  0.6194 -0.9515
   25SAPC  C220 3336   5.612   7.253   8.069  0.4559 -0.4136 -0.2564
   25SAPC  H20R 3337   5.630   7.163   8.131  3.1602 -0.0802 -0.4365
   25SAPC  H20S 3338   5.534   7.240   7.992  0.3654 -2.1392  0.0977
   25SAPC  H20T 3339   5.591   7.346   8.126  3.1985 -1.1145  2.1642
   25SAPC   C33 3340   5.139   6.707   6.856 -0.3359 -0.4901  0.6081
   25SAPC   H3X 3341   5.115   6.810   6.891  1.9837 -0.0801  1.1558
   25SAPC   H3Y 3342   5.228   6.696   6.792 -0.7866  2.9704 -0.8281
   25SAPC   C34 3343   5.157   6.626   6.984  0.0531  0.5061  0.4021
   25SAPC   H4X 3344   5.188   6.522   6.957  2.8020  1.3900 -0.1736
   25SAPC   H4Y 3345   5.054   6.623   7.024  0.6112 -0.7114  1.8426
   25SAPC   C35 3346   5.251   6.696   7.084 -0.1041  0.5809  0.0991
   25SAPC   H5X 3347   5.196   6.788   7.116  0.6022  1.1246 -0.2048
   25SAPC   H5Y 3348   5.348   6.727   7.039  0.6248  0.3677  1.4537
   25SAPC   C36 3349   5.276   6.616   7.208 -0.3036  0.8175 -0.0175
   25SAPC   H6X 3350   5.375   6.633   7.253 -0.6755  1.1605  0.6817
   25SAPC   H6Y 3351   5.274   6.507   7.183  0.0780  0.0666  2.8879
   25SAPC   C37 3352   5.161   6.633   7.308 -0.0088 -0.1050 -0.2486
   25SAPC   H7X 3353   5.065   6.589   7.274  0.1398 -1.2235  0.7176
   25SAPC   H7Y 3354   5.151   6.742   7.331  1.5836 -0.1089  0.6019
   25SAPC   C38 3355   5.197   6.572   7.442  0.4795 -0.2407 -0.2897
   25SAPC   H8X 3356   5.277   6.626   7.496  1.9405 -2.7203  0.1947
   25SAPC   H8Y 3357   5.236   6.469   7.429  0.4380 -0.1203 -1.5717
   25SAPC   C39 3358   5.076   6.581   7.538 -0.7548  0.4683  0.4811
   25SAPC   H9X 3359   5.005   6.505   7.498 -1.5566  2.1563 -1.5345
   25SAPC   H9Y 3360   5.023   6.677   7.525  0.6150  1.1777 -0.0225
   25SAPC  C310 3361   5.097   6.537   7.686 -0.5110 -0.3349  0.5788
   25SAPC  H10X 3362   5.144   6.437   7.691 -0.3242 -0.1907  2.0432
   25SAPC  H10Y 3363   4.998   6.514   7.731 -0.3583 -1.1876  0.4945
   25SAPC  C311 3364   5.163   6.637   7.768 -0.1221 -0.3930  0.1032
   25SAPC  H11X 3365   5.135   6.741   7.743 -1.1313 -0.3061  1.4895
   25SAPC  H11Y 3366   5.274   6.633   7.762 -0.2165 -1.4073 -2.7744
   25SAPC  C312 3367   5.134   6.604   7.918  0.2975  0.3975 -0.1122
   25SAPC  H12X 3368   5.169   6.498   7.924 -0.2129  0.2428  0.2296
   25SAPC  H12Y 3369   5.027   6.596   7.946  0.5973 -1.1156  0.7073
   25SAPC  C313 3370   5.205   6.680   8.022 -0.3730  0.0060 -0.2250
   25SAPC  H13X 3371   5.200   6.791   8.014 -0.1043  0.0145 -0.2894
   25SAPC  H13Y 3372   5.312   6.651   8.012 -0.7280 -1.6273  0.4143
   25SAPC  C314 3373   5.168   6.648   8.169 -0.2452  0.7171  0.1235
   25SAPC  H14X 3374   5.059   6.667   8.177 -0.4046 -0.5667  1.3152
   25SAPC  H14Y 3375   5.215   6.718   8.242  2.5019 -1.0539  0.2039
   25SAPC  C315 3376   5.193   6.504   8.218  0.3212  0.7041 -0.0853
   25SAPC  H15X 3377   5.295   6.470   8.189 -0.0982 -1.0591  0.3385
   25SAPC  H15Y 3378   5.116   6.445   8.163 -0.4341  2.5848 -1.1389
   25SAPC  C316 3379   5.169   6.486   8.371 -0.3447 -0.7173  0.3253
   25SAPC  H16X 3380   5.239   6.554   8.425  0.1965 -0.3799 -0.7712
   25SAPC  H16Y 3381   5.201   6.381   8.388  0.3546 -0.4249  0.8777
   25SAPC  C317 3382   5.024   6.504   8.425 -1.0173  0.4490  0.0452
   25SAPC  H17X 3383   4.997   6.610   8.444 -2.2854  0.1269  0.1329
   25SAPC  H17Y 3384   5.036   6.458   8.525 -0.0563 -3.3883 -1.6492
   25SAPC  C318 3385   4.913   6.450   8.333 -0.3717  0.6287  0.1844
   25SAPC  H18X 3386   4.935   6.345   8.305  0.5430  0.5745  1.0692
   25SAPC  H18Y 3387   4.902   6.521   8.248  2.4200  2.1758  0.9875
   25SAPC  H18Z 3388   4.814   6.446   8.383 -0.8274 -1.6751 -0.7692
   26SAPC     N 3389   1.193   2.843   5.610 -0.2719  0.0906  1.0206
   26SAPC   C12 3390   1.334   2.902   5.604  0.5781  0.6491 -0.2298
   26SAPC  H12A 3391   1.322   3.000   5.561 -0.6518  1.0164  0.8686
   26SAPC  H12B 3392   1.396   2.843   5.538 -0.8881 -1.1205 -0.1237
   26SAPC   C13 3393   1.140   2.819   5.469 -0.1244 -0.3720  0.0884
   26SAPC  H13A 3394   1.191   2.737   5.421  2.2490  0.5410  0.9302
   26SAPC  H13B 3395   1.034   2.797   5.466 -0.4131  0.9734 -2.5382
   26SAPC  H13C 3396   1.150   2.903   5.402  0.3623  0.4588  1.1666
   26SAPC   C14 3397   1.195   2.722   5.682 -0.2739  0.0232 -0.3577
   26SAPC  H14A 3398   1.235   2.739   5.781 -1.4465 -0.3909  0.1997
   26SAPC  H14B 3399   1.096   2.681   5.695 -1.0149  2.4076  2.1773
   26SAPC  H14C 3400   1.257   2.651   5.628 -0.3306 -0.0505 -0.3269
   26SAPC   C15 3401   1.111   2.950   5.674  0.7535  0.6065 -0.5286
   26SAPC  H15A 3402   1.098   3.038   5.613 -1.9991 -0.5976 -1.8389
   26SAPC  H15B 3403   1.011   2.909   5.672  0.8794  0.3390 -1.9558
   26SAPC  H15C 3404   1.147   2.966   5.775 -1.3632  0.9179  0.2244
   26SAPC   C11 3405   1.406   2.925   5.741  0.1584  0.0232  0.3423
   26SAPC  H11A 3406   1.368   3.022   5.780 -1.0050 -0.1239 -0.3937
   26SAPC  H11B 3407   1.510   2.961   5.722 -0.8065  1.5230 -2.7670
   26SAPC     P 3408   1.513   2.718   5.858  0.5524  0.0989  0.1351
   26SAPC   O13 3409   1.453   2.596   5.910 -0.3754  0.4966 -0.2896
   26SAPC   O14 3410   1.575   2.708   5.726 -0.6649  0.0202  0.0689
   26SAPC   O12 3411   1.397   2.824   5.849 -0.1706 -0.0212 -0.5119
   26SAPC   O11 3412   1.616   2.759   5.960  0.2369  0.1973 -0.0334
   26SAPC    C1 3413   1.643   2.896   5.986  0.3192 -0.4603  0.1161
   26SAPC    HA 3414   1.728   2.928   5.923 -2.0110  1.7131 -2.1481
   26SAPC    HB 3415   1.561   2.963   5.955  0.8451  0.3706  0.4957
   26SAPC    C2 3416   1.673   2.921   6.137 -0.8404 -0.4765 -0.3654
   26SAPC    HS 3417   1.740   2.844   6.182 -1.5101  0.0283  1.5860
   26SAPC   O21 3418   1.546   2.912   6.205  0.1329  1.0041 -0.1179
   26SAPC   C21 3419   1.532   2.814   6.294  0.8891 -0.2147  0.3936
   26SAPC   O22 3420   1.622   2.761   6.353 -0.3274  0.5712  0.6919
   26SAPC   C22 3421   1.383   2.780   6.313 -0.3430  0.0330  0.3216
   26SAPC   H2R 3422   1.345   2.786   6.209 -0.6333 -0.4274  0.3986
   26SAPC   H2S 3423   1.367   2.679   6.357  1.1174 -0.6114 -0.5654
   26SAPC    C3 3424   1.738   3.057   6.171  1.0444  0.1096 -0.0537
   26SAPC    HX 3425   1.667   3.125   6.119 -1.3795 -2.6436 -0.6392
   26SAPC    HY 3426   1.835   3.059   6.117 -0.2090  1.1215 -2.4644
   26SAPC   O31 3427   1.758   3.076   6.314 -0.0364  0.0552 -0.7868
   26SAPC   C31 3428   1.704   3.184   6.369  0.2715  0.0444  0.1324
   26SAPC   O32 3429   1.623   3.254   6.314 -0.2139 -0.3738  0.2821
   26SAPC   C32 3430   1.736   3.180   6.514 -0.9053 -0.3474  0.1843
   26SAPC   H2X 3431   1.846   3.177   6.529 -0.9205  2.7095  1.5760
   26SAPC   H2Y 3432   1.686   3.085   6.545  1.5868 -1.9322 -0.3571
   26SAPC   C23 3433   1.316   2.895   6.389  0.4311 -0.2272 -0.9143
   26SAPC   H3R 3434   1.208   2.907   6.362  0.1611 -1.6832 -0.5378
   26SAPC   H3S 3435   1.352   2.998   6.367 -0.5818 -0.5081 -4.5582
   26SAPC   C24 3436   1.311   2.868   6.543  0.5337 -0.5265 -0.3856
   26SAPC   H4R 3437   1.283   2.761   6.555  2.0072 -1.1658 -2.1634
   26SAPC   H4S 3438   1.228   2.930   6.583  1.5730  0.1166  0.8795
   26SAPC   C25 3439   1.428   2.909   6.625  0.6459  0.1248  0.0955
   26SAPC   H5R 3440   1.458   3.011   6.596 -0.9296  0.7554  0.5866
   26SAPC   C26 3441   1.491   2.842   6.728 -0.2062  0.1251 -0.6370
   26SAPC   H6R 3442   1.569   2.892   6.788  0.6379  0.8214 -2.2517
   26SAPC   C27 3443   1.446   2.707   6.777 -0.0393  0.6232 -0.0617
   26SAPC   H7R 3444   1.365   2.662   6.715  0.1423 -1.0555  0.8672
   26SAPC   H7S 3445   1.414   2.728   6.881 -1.3108 -0.0554 -0.2956
   26SAPC   C28 3446   1.549   2.593   6.783  0.1680  0.1559  0.0982
   26SAPC   H8R 3447   1.527   2.526   6.698  0.0581  0.0129  0.2375
   26SAPC   C29 3448   1.651   2.570   6.873  0.0013 -0.0290  0.7022
   26SAPC   H9R 3449   1.704   2.473   6.873 -1.0695 -0.6309  1.5543
   26SAPC  C210 3450   1.692   2.650   6.990 -0.5733  0.1324 -0.7633
   26SAPC  H10R 3451   1.691   2.758   6.965 -2.8224  0.5610  0.8665
   26SAPC  H10S 3452   1.800   2.632   7.012 -0.6852  1.5394  1.2049
   26SAPC  C211 3453   1.613   2.627   7.111  0.0562  0.3599 -0.7307
   26SAPC  H11R 3454   1.524   2.689   7.121 -0.8988 -1.2359  1.6213
   26SAPC  C212 3455   1.662   2.552   7.211  0.3847  0.3334 -0.0854
   26SAPC  H12R 3456   1.600   2.528   7.298  0.4568  2.3771  0.5843
   26SAPC  C213 3457   1.793   2.479   7.211  0.2789  0.2261  0.0182
   26SAPC  H13R 3458   1.829   2.451   7.110  1.6642  3.0797 -0.3686
   26SAPC  H13S 3459   1.772   2.384   7.265  1.4145 -0.7198 -1.1337
   26SAPC  C214 3460   1.902   2.572   7.270 -0.3477 -0.3883  0.5454
   26SAPC  H14R 3461   1.926   2.661   7.210 -0.7286 -1.2399 -0.9369
   26SAPC  C215 3462   1.986   2.543   7.373  0.3156  0.7397  0.0612
   26SAPC  H15R 3463   2.042   2.626   7.418  0.7832 -0.7112  2.3411
   26SAPC  C216 3464   1.979   2.412   7.448 -0.1196 -0.9797  0.5239
   26SAPC  H16R 3465   2.079   2.386   7.489  0.1775  0.7428  0.9646
   26SAPC  H16S 3466   1.947   2.324   7.388  0.1234 -1.1065  0.5785
   26SAPC  C217 3467   1.883   2.419   7.569 -0.3993  0.0645  0.1696
   26SAPC  H17R 3468   1.778   2.410   7.537  0.2418 -0.3881 -1.9352
   26SAPC  H17S 3469   1.879   2.517   7.622 -1.5865 -0.7321  1.6200
   26SAPC  C218 3470   1.911   2.310   7.677  0.0269 -0.0963 -0.2585
   26SAPC  H18R 3471   2.009   2.317   7.727 -1.6583  0.8543  3.2119
   26SAPC  H18S 3472   1.912   2.211   7.627 -0.7961 -0.2167 -0.0618
   26SAPC  C219 3473   1.803   2.317   7.790 -0.5128  0.3368  0.1605
   26SAPC  H19R 3474   1.700   2.336   7.754 -1.4436  0.5169  2.6791
   26SAPC  H19S 3475   1.801   2.396   7.868 -0.3031  1.9110 -1.3856
   26SAPC  C220 3476   1.823   2.179   7.865  0.0194 -0.5053  0.7152
   26SAPC  H20R 3477   1.930   2.180   7.894  0.4683 -1.0229 -0.8226
   26SAPC  H20S 3478   1.806   2.098   7.791 -0.2078  0.7727 -0.6881
   26SAPC  H20T 3479   1.756   2.164   7.953 -0.4666 -4.3948 -0.1455
   26SAPC   C33 3480   1.663   3.293   6.601 -0.6095 -0.6473 -0.1530
   26SAPC   H3X 3481   1.553   3.282   6.598 -0.6389 -0.1958 -2.1994
   26SAPC   H3Y 3482   1.676   3.392   6.553  0.4691 -1.1637 -0.9735
   26SAPC   C34 3483   1.726   3.301   6.741 -0.5043 -0.3120  0.1206
   26SAPC   H4X 3484   1.706   3.395   6.795 -1.1938  0.9784 -2.2548
   26SAPC   H4Y 3485   1.836   3.311   6.732 -0.7579  1.5967 -1.8700
   26SAPC   C35 3486   1.703   3.169   6.816  0.7668 -0.4142 -0.0963
   26SAPC   H5X 3487   1.740   3.076   6.768 -0.4442 -1.3527  0.7343
   26SAPC   H5Y 3488   1.592   3.158   6.816  0.3526  2.6377  1.7221
   26SAPC   C36 3489   1.745   3.173   6.962  0.7269  0.1601 -0.1644
   26SAPC   H6X 3490   1.680   3.248   7.013  0.6656 -0.7886  1.1865
   26SAPC   H6Y 3491   1.842   3.228   6.964  1.8872 -1.8392  0.8923
   26SAPC   C37 3492   1.739   3.044   7.043  0.2377  0.5759 -0.0954
   26SAPC   H7X 3493   1.809   2.971   6.997  0.7764  0.0679  1.4858
   26SAPC   H7Y 3494   1.636   3.001   7.040  1.5176 -2.7948 -0.6464
   26SAPC   C38 3495   1.778   3.078   7.192 -0.0772 -0.4389  0.7031
   26SAPC   H8X 3496   1.712   3.162   7.222  1.5127  2.0453 -2.2464
   26SAPC   H8Y 3497   1.883   3.113   7.197 -1.0687  2.9083  0.3897
   26SAPC   C39 3498   1.767   2.964   7.291  0.9803 -0.7232  0.5883
   26SAPC   H9X 3499   1.772   2.862   7.247  0.0372 -1.6214  2.4490
   26SAPC   H9Y 3500   1.669   2.968   7.343  1.2332  0.7894  1.0055
   26SAPC  C310 3501   1.863   2.990   7.409 -0.3232 -0.1610 -0.2947
   26SAPC  H10X 3502   1.864   3.095   7.445 -0.0791 -0.0103 -0.7264
   26SAPC  H10Y 3503   1.964   2.958   7.376  0.5824  0.9136  1.3096
   26SAPC  C311 3504   1.818   2.907   7.534  0.4196  0.5020  0.1387
   26SAPC  H11X 3505   1.800   2.803   7.500 -0.2072  0.5672  0.2493
   26SAPC  H11Y 3506   1.719   2.947   7.566  1.1483  1.3363  1.4802
   26SAPC  C312 3507   1.901   2.919   7.652  0.9231 -0.1498  0.4529
   26SAPC  H12X 3508   1.887   3.018   7.699  1.8907 -0.8558  2.3342
   26SAPC  H12Y 3509   2.009   2.915   7.624  0.6800 -1.6401 -0.4158
   26SAPC  C313 3510   1.867   2.824   7.765  0.4246 -0.8404  0.1899
   26SAPC  H13X 3511   1.887   2.720   7.730  1.0362 -0.7820  0.3393
   26SAPC  H13Y 3512   1.762   2.827   7.800  0.5102 -1.0668  0.4781
   26SAPC  C314 3513   1.946   2.857   7.881 -1.0458 -0.7795  0.2430
   26SAPC  H14X 3514   1.903   2.954   7.915 -4.2514 -2.2787  0.8681
   26SAPC  H14Y 3515   2.053   2.872   7.854 -1.0241  1.0562  1.1996
   26SAPC  C315 3516   1.930   2.752   7.990  0.2120  0.1292  0.2105
   26SAPC  H15X 3517   1.828   2.708   7.999  0.0318  0.3167 -0.7445
   26SAPC  H15Y 3518   1.951   2.783   8.094 -0.4147 -1.2558  0.7790
   26SAPC  C316 3519   2.020   2.630   7.963 -0.3836  0.1781  0.1580
   26SAPC  H16X 3520   2.124   2.669   7.967 -0.7695  1.2252  3.3133
   26SAPC  H16Y 3521   1.998   2.589   7.862  1.8670  1.2761 -0.8468
   26SAPC  C317 3522   1.994   2.522   8.065 -0.3378 -0.7056 -0.1676
   26SAPC  H17X 3523   1.886   2.498   8.070 -0.6146 -0.0798 -2.2289
   26SAPC  H17Y 3524   2.016   2.551   8.170  2.2557 -2.5437 -0.0957
   26SAPC  C318 3525   2.068   2.392   8.040 -0.3170 -0.1934 -0.4555
   26SAPC  H18X 3526   2.025   2.310   8.102 -2.9483  0.4827 -1.2833
   26SAPC  H18Y 3527   2.175   2.408   8.064  0.2342 -0.2223 -2.7257
   26SAPC  H18Z 3528   2.069   2.364   7.933  0.5865  1.0337 -0.7944
   27SAPC     N 3529   4.467   3.460   6.391  0.3760 -0.0896  0.8358
   27SAPC   C12 3530   4.425   3.425   6.532  0.4594 -0.3029  0.0005
   27SAPC  H12A 3531   4.509   3.433   6.599 -0.7311 -0.1112  1.5176
   27SAPC  H12B 3532   4.411   3.318   6.537  1.8431 -0.4810  0.7368
   27SAPC   C13 3533   4.355   3.421   6.302 -0.2601 -0.1487 -0.1780
   27SAPC  H13A 3534   4.385   3.424   6.198  1.5536 -2.4062  0.1890
   27SAPC  H13B 3535   4.311   3.324   6.322 -0.1765  0.0697  1.1599
   27SAPC  H13C 3536   4.276   3.495   6.311 -0.3269  0.0881 -2.2241
   27SAPC   C14 3537   4.491   3.611   6.363  0.0882  0.1939 -0.9115
   27SAPC  H14A 3538   4.481   3.642   6.260 -2.4166 -0.4321 -0.9167
   27SAPC  H14B 3539   4.406   3.662   6.405 -0.0249  0.4479 -1.4309
   27SAPC  H14C 3540   4.583   3.641   6.409  1.8655 -3.7311 -1.4300
   27SAPC   C15 3541   4.594   3.384   6.352  0.5604 -0.1224  0.7668
   27SAPC  H15A 3542   4.671   3.409   6.423  0.1103  1.3479  0.7634
   27SAPC  H15B 3543   4.586   3.276   6.353 -0.1571 -0.2710 -3.1997
   27SAPC  H15C 3544   4.633   3.405   6.254 -2.6531 -1.4260 -0.9323
   27SAPC   C11 3545   4.305   3.499   6.604 -0.3229  0.6219  0.3968
   27SAPC  H11A 3546   4.332   3.606   6.591  0.1394  0.2641 -2.0179
   27SAPC  H11B 3547   4.317   3.472   6.711 -2.7994  1.0342  0.8329
   27SAPC     P 3548   4.085   3.346   6.609  0.5395 -0.1306 -0.1355
   27SAPC   O13 3549   3.976   3.321   6.511  0.1375  0.2348  0.3334
   27SAPC   O14 3550   4.168   3.226   6.644 -0.3749  0.3229 -0.1482
   27SAPC   O12 3551   4.177   3.467   6.555  0.4617 -0.2289  0.5027
   27SAPC   O11 3552   4.020   3.395   6.744 -0.6723 -0.4355 -0.0134
   27SAPC    C1 3553   3.911   3.490   6.746 -0.9329  1.3570 -0.4730
   27SAPC    HA 3554   3.920   3.563   6.663 -0.7253 -0.5414 -2.1976
   27SAPC    HB 3555   3.819   3.429   6.734 -1.4975  1.5898  2.1486
   27SAPC    C2 3556   3.902   3.566   6.876  0.0713  0.7658  0.0237
   27SAPC    HS 3557   3.823   3.643   6.866 -0.8441 -0.1650 -0.0667
   27SAPC   O21 3558   4.036   3.623   6.904  0.6402  0.2012  1.0704
   27SAPC   C21 3559   4.072   3.722   6.819  0.0737  0.4212  0.1671
   27SAPC   O22 3560   4.000   3.783   6.745  0.3727 -0.1092 -0.1708
   27SAPC   C22 3561   4.214   3.758   6.851 -0.2634  0.2426 -1.0016
   27SAPC   H2R 3562   4.248   3.707   6.944  1.1401  1.2410 -0.9246
   27SAPC   H2S 3563   4.286   3.732   6.770  0.7427  2.8855 -1.0483
   27SAPC    C3 3564   3.859   3.485   6.997 -0.5136 -0.0298  0.5948
   27SAPC    HX 3565   3.915   3.389   7.003 -1.8050 -0.9490 -1.1484
   27SAPC    HY 3566   3.759   3.445   6.970  0.1900 -1.6303  0.1940
   27SAPC   O31 3567   3.854   3.568   7.115  0.3687 -0.3580 -0.7531
   27SAPC   C31 3568   3.965   3.565   7.185 -0.0235 -0.5025 -0.1300
   27SAPC   O32 3569   4.063   3.499   7.168  0.2193  0.4608 -0.1263
   27SAPC   C32 3570   3.939   3.672   7.293  0.3775 -0.8075 -0.5478
   27SAPC   H2X 3571   3.844   3.642   7.343  0.3307  0.0196 -0.1329
   27SAPC   H2Y 3572   3.917   3.766   7.237  1.6137  0.0675  0.3978
   27SAPC   C23 3573   4.231   3.906   6.886 -0.9384 -0.0918  0.3698
   27SAPC   H3R 3574   4.227   3.966   6.792  2.1634  2.4727  1.7138
   27SAPC   H3S 3575   4.336   3.920   6.917 -0.6483 -1.7443  0.2468
   27SAPC   C24 3576   4.146   3.964   6.992  0.2979  1.0047 -0.2775
   27SAPC   H4R 3577   4.156   3.900   7.082  1.1453  3.2289  1.2942
   27SAPC   H4S 3578   4.040   3.970   6.960  0.7989  3.4619 -1.7119
   27SAPC   C25 3579   4.189   4.099   7.033  0.7223 -0.4769 -0.0483
   27SAPC   H5R 3580   4.142   4.185   6.984  0.8625 -0.4780 -0.1841
   27SAPC   C26 3581   4.271   4.123   7.137 -0.2803 -0.1739  0.3753
   27SAPC   H6R 3582   4.296   4.224   7.171  1.1462 -0.7446  1.1192
   27SAPC   C27 3583   4.351   4.022   7.212  0.7361  0.5168  0.0215
   27SAPC   H7R 3584   4.361   3.930   7.151  1.1410  2.0459 -2.3507
   27SAPC   H7S 3585   4.287   4.018   7.303 -1.7268  2.0711 -1.5493
   27SAPC   C28 3586   4.489   4.075   7.247  0.6325 -0.1930  0.8342
   27SAPC   H8R 3587   4.558   4.068   7.163  0.5729  0.3941  0.7338
   27SAPC   C29 3588   4.532   4.117   7.366 -0.2102 -0.4068  0.3918
   27SAPC   H9R 3589   4.635   4.155   7.372 -0.0064 -0.6394 -1.2049
   27SAPC  C210 3590   4.458   4.123   7.501  1.1635 -0.2130 -0.1565
   27SAPC  H10R 3591   4.357   4.167   7.490  1.5706  0.7736 -0.0408
   27SAPC  H10S 3592   4.506   4.189   7.576 -0.6905  0.4106  0.5338
   27SAPC  C211 3593   4.458   3.986   7.557 -0.5540 -0.1879 -0.3397
   27SAPC  H11R 3594   4.500   3.901   7.501 -1.4597 -0.8482 -0.0433
   27SAPC  C212 3595   4.432   3.968   7.691 -0.2315  0.4366  0.4839
   27SAPC  H12R 3596   4.436   3.863   7.722 -2.1944 -0.7286 -2.7286
   27SAPC  C213 3597   4.386   4.076   7.794  0.0816  0.6279 -0.3802
   27SAPC  H13R 3598   4.279   4.059   7.819 -0.4727  2.1080 -1.6345
   27SAPC  H13S 3599   4.387   4.184   7.766 -1.6111  0.4762 -1.1766
   27SAPC  C214 3600   4.472   4.060   7.916  0.6199 -0.1552 -0.4700
   27SAPC  H14R 3601   4.537   3.971   7.917 -1.6957 -1.9450 -0.1543
   27SAPC  C215 3602   4.482   4.146   8.013 -0.4178 -0.6305 -0.3977
   27SAPC  H15R 3603   4.539   4.114   8.101 -1.2763 -0.4515  0.2363
   27SAPC  C216 3604   4.405   4.276   8.034 -0.3323  0.1487  0.0381
   27SAPC  H16R 3605   4.411   4.320   7.932  1.6404 -2.2328 -0.9832
   27SAPC  H16S 3606   4.464   4.346   8.097 -0.5654 -1.7450  2.4767
   27SAPC  C217 3607   4.260   4.253   8.086 -0.2383  0.1809 -0.6062
   27SAPC  H17R 3608   4.261   4.180   8.171 -2.1035  1.7663  0.8697
   27SAPC  H17S 3609   4.195   4.218   8.003 -1.2526 -1.1632  0.6884
   27SAPC  C218 3610   4.191   4.373   8.145  0.3007 -0.7198  0.0203
   27SAPC  H18R 3611   4.189   4.452   8.067 -0.7009 -3.2400 -2.6988
   27SAPC  H18S 3612   4.244   4.421   8.230 -0.4000 -1.8377  1.1224
   27SAPC  C219 3613   4.042   4.344   8.179  0.2280 -0.4676 -0.6467
   27SAPC  H19R 3614   4.046   4.282   8.271 -1.0701  0.3577 -0.0177
   27SAPC  H19S 3615   3.990   4.292   8.096 -1.2024 -0.6446  0.3295
   27SAPC  C220 3616   3.958   4.464   8.217  0.4188 -0.6155  0.0320
   27SAPC  H20R 3617   4.008   4.550   8.266  1.8180  0.2224 -2.6661
   27SAPC  H20S 3618   3.883   4.438   8.295 -1.0749 -0.3092 -1.2429
   27SAPC  H20T 3619   3.903   4.508   8.131 -0.3231 -2.0144 -0.2530
   27SAPC   C33 3620   4.066   3.693   7.385  0.7212 -0.5360  0.0279
   27SAPC   H3X 3621   4.151   3.706   7.315  0.0549  4.0638 -0.1813
   27SAPC   H3Y 3622   4.091   3.607   7.451  2.4648  0.6901  1.0318
   27SAPC   C34 3623   4.045   3.816   7.473  0.2156  0.3509  0.4177
   27SAPC   H4X 3624   4.001   3.895   7.410 -1.8140 -0.3402  0.8688
   27SAPC   H4Y 3625   4.144   3.837   7.519  0.7881 -1.1875 -0.0267
   27SAPC   C35 3626   3.947   3.787   7.579  0.5352  0.1917  0.3490
   27SAPC   H5X 3627   3.962   3.682   7.613 -1.4803  0.0210  0.8849
   27SAPC   H5Y 3628   3.845   3.785   7.533  0.6068 -1.4517  0.1865
   27SAPC   C36 3629   3.954   3.879   7.700 -0.2206 -0.2359 -0.6969
   27SAPC   H6X 3630   3.968   3.980   7.655  0.2188 -1.0667 -2.5430
   27SAPC   H6Y 3631   4.036   3.846   7.767 -0.6017  0.0205 -0.0943
   27SAPC   C37 3632   3.827   3.901   7.789 -0.2994  0.6501 -0.1967
   27SAPC   H7X 3633   3.794   3.801   7.824 -1.0915  0.4713 -1.4270
   27SAPC   H7Y 3634   3.734   3.939   7.742 -0.9027 -0.9377 -0.3541
   27SAPC   C38 3635   3.860   3.990   7.905  0.6203  0.0374 -0.1647
   27SAPC   H8X 3636   3.880   4.086   7.854 -0.2692 -0.0976 -0.7893
   27SAPC   H8Y 3637   3.950   3.941   7.948  0.2976  0.2176  0.7385
   27SAPC   C39 3638   3.746   4.005   8.007 -0.0111 -0.0874  0.0774
   27SAPC   H9X 3639   3.729   3.903   8.047  0.4503 -0.8331 -1.5241
   27SAPC   H9Y 3640   3.657   4.047   7.954  1.5437  1.7515 -1.2232
   27SAPC  C310 3641   3.786   4.089   8.124 -1.1747 -1.3374  0.5937
   27SAPC  H10X 3642   3.756   4.193   8.100  0.1661 -1.2146 -0.7341
   27SAPC  H10Y 3643   3.897   4.089   8.133 -1.0300 -1.5136 -1.0147
   27SAPC  C311 3644   3.735   4.047   8.259 -0.0589 -0.0018 -0.0673
   27SAPC  H11X 3645   3.752   3.937   8.258 -2.2662 -0.3933 -0.7325
   27SAPC  H11Y 3646   3.626   4.071   8.261 -0.3081 -1.0548  1.1326
   27SAPC  C312 3647   3.802   4.107   8.388 -0.2270  0.4425  0.1247
   27SAPC  H12X 3648   3.730   4.124   8.471 -1.2583 -1.7611 -0.2249
   27SAPC  H12Y 3649   3.841   4.209   8.366 -1.1635  0.8028  0.0709
   27SAPC  C313 3650   3.914   4.016   8.451 -0.4725 -0.8289  0.2524
   27SAPC  H13X 3651   3.861   3.932   8.501  1.7137 -1.0428  2.3681
   27SAPC  H13Y 3652   3.968   4.084   8.520 -0.7338 -0.8152  0.4433
   27SAPC  C314 3653   4.036   3.969   8.356  0.7719  0.1338 -0.3927
   27SAPC  H14X 3654   4.126   4.033   8.360  0.3575  0.6562  1.5832
   27SAPC  H14Y 3655   3.997   3.972   8.252 -0.7946  0.2953  0.1731
   27SAPC  C315 3656   4.074   3.827   8.389  0.9014  0.6776 -1.1797
   27SAPC  H15X 3657   3.986   3.761   8.408  1.3751  0.2893 -0.2927
   27SAPC  H15Y 3658   4.147   3.837   8.472  3.0667 -0.7966 -2.7853
   27SAPC  C316 3659   4.153   3.752   8.277 -0.4827 -0.7427  0.0858
   27SAPC  H16X 3660   4.089   3.763   8.187 -0.3641 -0.0374  0.0816
   27SAPC  H16Y 3661   4.176   3.648   8.310  1.0177 -0.2157  0.8136
   27SAPC  C317 3662   4.289   3.813   8.241 -0.4355  0.3179  0.1170
   27SAPC  H17X 3663   4.360   3.801   8.326 -0.7900 -0.9956  0.2432
   27SAPC  H17Y 3664   4.282   3.920   8.211  1.8366  1.7761  4.0503
   27SAPC  C318 3665   4.347   3.740   8.114  0.3447 -0.2258 -0.7519
   27SAPC  H18X 3666   4.454   3.769   8.102  0.4092  0.0669  0.4036
   27SAPC  H18Y 3667   4.291   3.770   8.023 -1.1334  1.2188  0.5636
   27SAPC  H18Z 3668   4.343   3.630   8.124 -0.4920  0.0022  2.7839
   28SAPC     N 3669   3.030   2.263   6.265 -0.3706 -0.0903  0.4387
   28SAPC   C12 3670   3.097   2.135   6.299 -0.2491 -0.4404  0.1519
   28SAPC  H12A 3671   3.047   2.046   6.265 -0.1296  0.0904 -1.5296
   28SAPC  H12B 3672   3.087   2.129   6.406 -1.3062  2.7475  0.3533
   28SAPC   C13 3673   3.111   2.371   6.328  0.4922 -0.1838  0.0897
   28SAPC  H13A 3674   3.186   2.398   6.255 -2.8378  2.2956 -2.7864
   28SAPC  H13B 3675   3.047   2.451   6.362 -1.6900 -1.7686 -0.1281
   28SAPC  H13C 3676   3.152   2.336   6.421  0.1882 -0.4489  0.1228
   28SAPC   C14 3677   3.009   2.276   6.120  0.2389 -0.4023 -0.1601
   28SAPC  H14A 3678   3.100   2.291   6.064 -0.6252 -1.2927 -1.8769
   28SAPC  H14B 3679   2.957   2.200   6.064  1.7139 -0.8574 -0.9669
   28SAPC  H14C 3680   2.958   2.369   6.097  0.3282 -0.9018 -2.5520
   28SAPC   C15 3681   2.893   2.261   6.327 -0.0743  0.0598 -0.6014
   28SAPC  H15A 3682   2.913   2.269   6.433 -0.1962 -2.7677 -0.2875
   28SAPC  H15B 3683   2.829   2.345   6.307 -0.5103 -0.1818 -0.2241
   28SAPC  H15C 3684   2.833   2.174   6.309 -0.3814  0.1410  0.0263
   28SAPC   C11 3685   3.245   2.120   6.255 -0.5203 -0.4776 -0.2569
   28SAPC  H11A 3686   3.312   2.183   6.317  1.0320 -3.1654  1.0032
   28SAPC  H11B 3687   3.255   2.137   6.146 -0.0597 -2.2268 -0.5301
   28SAPC     P 3688   3.262   1.874   6.176 -0.1412  0.5280 -0.4946
   28SAPC   O13 3689   3.134   1.896   6.106  0.3803  0.2763 -0.3506
   28SAPC   O14 3690   3.391   1.857   6.103  0.2134  0.6501  0.1926
   28SAPC   O12 3691   3.280   1.983   6.290 -0.0338  0.2078  0.2372
   28SAPC   O11 3692   3.238   1.748   6.272 -0.0540 -0.5820  0.2755
   28SAPC    C1 3693   3.132   1.717   6.354  0.4530  0.3283  0.5969
   28SAPC    HA 3694   3.056   1.799   6.356 -1.6664 -1.4811 -0.7261
   28SAPC    HB 3695   3.078   1.639   6.297  0.7086  1.4868 -1.3069
   28SAPC    C2 3696   3.162   1.658   6.497 -0.3517  0.8800 -0.5674
   28SAPC    HS 3697   3.061   1.622   6.525  0.5859 -0.2554  1.5558
   28SAPC   O21 3698   3.212   1.760   6.596  0.1998 -0.1781  0.3916
   28SAPC   C21 3699   3.133   1.845   6.646 -0.2667  0.4155  0.3720
   28SAPC   O22 3700   3.020   1.876   6.606 -0.2568 -0.7937  0.3174
   28SAPC   C22 3701   3.208   1.925   6.760  0.2775  0.0304 -0.0654
   28SAPC   H2R 3702   3.300   1.869   6.785 -0.1215 -1.0455 -0.9071
   28SAPC   H2S 3703   3.243   2.023   6.723  1.2417  0.9618  2.9889
   28SAPC    C3 3704   3.253   1.527   6.492 -0.2868 -0.1587 -0.3015
   28SAPC    HX 3705   3.340   1.568   6.436 -1.3310  0.5538 -1.4698
   28SAPC    HY 3706   3.212   1.451   6.422  2.9578 -2.2333 -0.1704
   28SAPC   O31 3707   3.276   1.472   6.621 -0.5275  0.1465 -0.0746
   28SAPC   C31 3708   3.374   1.376   6.616  0.2563  0.5507 -0.3972
   28SAPC   O32 3709   3.428   1.347   6.513 -0.5399  0.4590 -0.5214
   28SAPC   C32 3710   3.388   1.291   6.742  0.0386  0.6952  0.5470
   28SAPC   H2X 3711   3.485   1.318   6.790  0.3711 -3.5317  2.7068
   28SAPC   H2Y 3712   3.386   1.188   6.699 -1.6428  0.3191  1.4327
   28SAPC   C23 3713   3.122   1.950   6.883  0.7463 -0.3508 -0.6451
   28SAPC   H3R 3714   3.104   1.861   6.948 -1.4102  1.4506  1.4437
   28SAPC   H3S 3715   3.027   1.991   6.843  0.3080 -1.3626 -0.6920
   28SAPC   C24 3716   3.179   2.063   6.967  0.0327 -0.7890 -0.1263
   28SAPC   H4R 3717   3.281   2.044   7.007  0.6002  0.2850 -1.0350
   28SAPC   H4S 3718   3.180   2.159   6.911  0.1552 -0.8922 -0.2991
   28SAPC   C25 3719   3.080   2.088   7.080  0.1411 -0.1647 -0.2509
   28SAPC   H5R 3720   2.980   2.125   7.053 -0.6211  1.6227  4.0666
   28SAPC   C26 3721   3.098   2.079   7.213  0.0600 -0.4416 -0.6083
   28SAPC   H6R 3722   3.022   2.110   7.286  1.2832 -4.7757  2.9506
   28SAPC   C27 3723   3.221   2.026   7.289 -0.2259  0.7487 -0.8000
   28SAPC   H7R 3724   3.234   1.930   7.236 -0.9317 -1.0180  1.9902
   28SAPC   H7S 3725   3.191   2.002   7.393  3.5847  0.7300  0.4463
   28SAPC   C28 3726   3.348   2.115   7.291  0.7115  0.6540 -0.4864
   28SAPC   H8R 3727   3.374   2.150   7.190 -0.7593 -1.8924 -1.8561
   28SAPC   C29 3728   3.421   2.147   7.397 -0.2992 -0.1534  0.5063
   28SAPC   H9R 3729   3.522   2.188   7.377 -0.7306  1.2816  1.1224
   28SAPC  C210 3730   3.397   2.115   7.538 -0.3064 -0.1460 -0.2440
   28SAPC  H10R 3731   3.478   2.171   7.590 -0.5610 -0.5367  0.5903
   28SAPC  H10S 3732   3.416   2.008   7.560 -0.3425 -0.1439 -0.2010
   28SAPC  C211 3733   3.285   2.167   7.629  1.1171  0.0067  0.4111
   28SAPC  H11R 3734   3.215   2.238   7.583 -0.5571 -0.1430  2.5729
   28SAPC  C212 3735   3.253   2.119   7.750  0.6776  0.4214 -0.2777
   28SAPC  H12R 3736   3.161   2.159   7.794 -0.3195 -0.6202 -1.3463
   28SAPC  C213 3737   3.337   2.013   7.819 -0.2288 -0.0684  0.2612
   28SAPC  H13R 3738   3.417   1.967   7.758 -0.9829 -0.8778 -0.1335
   28SAPC  H13S 3739   3.267   1.930   7.843  0.7087 -0.5988  1.2181
   28SAPC  C214 3740   3.407   2.071   7.941  0.7690  0.5174  0.1059
   28SAPC  H14R 3741   3.499   2.129   7.924 -0.1256  1.7204 -0.9065
   28SAPC  C215 3742   3.374   2.050   8.070  0.6961  0.2449  0.2138
   28SAPC  H15R 3743   3.438   2.088   8.152 -1.1354  1.3045  1.2173
   28SAPC  C216 3744   3.257   1.981   8.139 -0.3717 -0.0763  0.3352
   28SAPC  H16R 3745   3.167   1.983   8.074 -1.3343 -0.9637  1.5873
   28SAPC  H16S 3746   3.247   2.020   8.243  0.3242 -2.1619  1.2350
   28SAPC  C217 3747   3.286   1.832   8.140 -0.1703  0.0562 -0.4085
   28SAPC  H17R 3748   3.371   1.808   8.207  1.4344  2.3400 -1.4890
   28SAPC  H17S 3749   3.337   1.796   8.048 -1.4216 -0.8047 -0.8020
   28SAPC  C218 3750   3.159   1.738   8.171 -0.1562 -0.4936 -0.1033
   28SAPC  H18R 3751   3.190   1.634   8.149 -0.6492 -0.9013  1.0324
   28SAPC  H18S 3752   3.065   1.759   8.114 -2.1358  0.2636  3.1890
   28SAPC  C219 3753   3.125   1.749   8.322  0.4638  0.0262 -0.2927
   28SAPC  H19R 3754   3.099   1.854   8.347 -1.1365 -0.7795  1.6998
   28SAPC  H19S 3755   3.209   1.718   8.387 -0.0339 -1.1383 -0.1931
   28SAPC  C220 3756   3.008   1.651   8.350 -0.2998  0.2661 -0.5683
   28SAPC  H20R 3757   2.920   1.672   8.286  0.5711  0.1021 -1.8406
   28SAPC  H20S 3758   2.994   1.670   8.459 -0.6687  4.7251 -1.2081
   28SAPC  H20T 3759   3.037   1.548   8.320  0.6997  0.2177  0.5126
   28SAPC   C33 3760   3.279   1.303   6.846  0.5457  0.1089  0.3685
   28SAPC   H3X 3761   3.178   1.312   6.800  0.1182 -2.6486  0.5976
   28SAPC   H3Y 3762   3.300   1.394   6.906 -1.0082  0.5021  0.3714
   28SAPC   C34 3763   3.282   1.181   6.946  0.0545 -0.4110 -0.9161
   28SAPC   H4X 3764   3.384   1.173   6.990 -0.6826  1.0901  1.2426
   28SAPC   H4Y 3765   3.255   1.091   6.887 -3.6447 -0.6568  0.8824
   28SAPC   C35 3766   3.169   1.197   7.050 -0.1230 -0.3713  0.8096
   28SAPC   H5X 3767   3.075   1.230   7.001 -1.2905 -1.7293  2.0343
   28SAPC   H5Y 3768   3.189   1.282   7.118 -1.6577  1.3654 -0.7976
   28SAPC   C36 3769   3.133   1.077   7.138 -0.7817 -0.9569  0.2503
   28SAPC   H6X 3770   3.138   0.980   7.084  1.0328  0.4173 -2.2799
   28SAPC   H6Y 3771   3.040   1.095   7.197 -0.4871  2.7646 -0.2050
   28SAPC   C37 3772   3.240   1.069   7.255 -0.0034  0.3294 -0.7462
   28SAPC   H7X 3773   3.340   1.099   7.216  1.5210 -0.1320  2.4380
   28SAPC   H7Y 3774   3.247   0.960   7.275  1.2644  0.1069 -2.1863
   28SAPC   C38 3775   3.211   1.148   7.385  0.4689 -0.4114  0.7457
   28SAPC   H8X 3776   3.103   1.156   7.409  0.3827 -0.3860  0.3519
   28SAPC   H8Y 3777   3.254   1.249   7.368  4.9318 -2.4808 -2.1582
   28SAPC   C39 3778   3.276   1.093   7.512 -0.8193  0.5258  0.1398
   28SAPC   H9X 3779   3.378   1.056   7.488 -1.3027 -1.1815  0.5865
   28SAPC   H9Y 3780   3.226   1.004   7.555  1.4214 -0.3242  1.1427
   28SAPC  C310 3781   3.272   1.191   7.634  0.4750 -0.8033  0.1800
   28SAPC  H10X 3782   3.166   1.216   7.657  1.0804  2.2043  0.1493
   28SAPC  H10Y 3783   3.329   1.282   7.604  1.5019 -0.5680  2.6321
   28SAPC  C311 3784   3.341   1.126   7.747  0.7451  0.4626 -0.7424
   28SAPC  H11X 3785   3.381   1.216   7.799  0.5923 -0.1524  0.4862
   28SAPC  H11Y 3786   3.426   1.072   7.701 -0.3751 -2.3529  0.2707
   28SAPC  C312 3787   3.259   1.021   7.818 -0.7820  0.4558  0.0521
   28SAPC  H12X 3788   3.322   0.957   7.883 -2.5231 -0.0049  1.3717
   28SAPC  H12Y 3789   3.200   0.953   7.752 -1.7810 -1.3941  2.6672
   28SAPC  C313 3790   3.160   1.074   7.923 -0.4141 -0.4755 -0.1201
   28SAPC  H13X 3791   3.126   0.990   7.987 -0.0529 -0.4278  0.1386
   28SAPC  H13Y 3792   3.070   1.101   7.863  0.4778 -0.7618 -1.6428
   28SAPC  C314 3793   3.212   1.194   8.006  0.1757  1.0996 -1.0569
   28SAPC  H14X 3794   3.202   1.290   7.949  0.1871  2.6583  1.4132
   28SAPC  H14Y 3795   3.321   1.187   8.025  0.0567  1.8372 -0.0426
   28SAPC  C315 3796   3.134   1.219   8.141 -0.2638 -0.0217 -0.2388
   28SAPC  H15X 3797   3.136   1.124   8.198  2.2198  1.2306  1.9103
   28SAPC  H15Y 3798   3.025   1.233   8.120 -0.6546 -1.8597  0.3340
   28SAPC  C316 3799   3.194   1.333   8.221  0.7304 -0.8108  0.0316
   28SAPC  H16X 3800   3.110   1.366   8.286  0.2538  2.0677 -1.8470
   28SAPC  H16Y 3801   3.210   1.422   8.157  2.0781  0.0503  1.4796
   28SAPC  C317 3802   3.315   1.296   8.303  0.2391 -0.1892 -0.3846
   28SAPC  H17X 3803   3.349   1.395   8.341  0.3761  0.0155 -1.0301
   28SAPC  H17Y 3804   3.391   1.256   8.233 -0.6748  0.7434 -1.9678
   28SAPC  C318 3805   3.301   1.220   8.434  0.9352  1.0233 -0.0150
   28SAPC  H18X 3806   3.243   1.129   8.410  1.2918  1.2428 -1.8491
   28SAPC  H18Y 3807   3.259   1.275   8.521  1.4592 -1.7570  2.1599
   28SAPC  H18Z 3808   3.397   1.194   8.483 -0.4946 -1.3556  1.7096
   29SAPC     N 3809   5.517   1.241   6.066 -0.1645 -0.4157  0.4624
   29SAPC   C12 3810   5.615   1.259   6.178 -0.2393  0.1896 -0.1953
   29SAPC  H12A 3811   5.693   1.186   6.161  2.6826  2.2918  3.0254
   29SAPC  H12B 3812   5.573   1.220   6.269 -0.8980  0.7613 -0.2441
   29SAPC   C13 3813   5.384   1.307   6.095  0.2193 -0.6252 -0.6930
   29SAPC  H13A 3814   5.399   1.410   6.125 -0.4979 -0.7514  0.1466
   29SAPC  H13B 3815   5.313   1.294   6.015 -1.0799 -0.0826  0.3282
   29SAPC  H13C 3816   5.339   1.277   6.189 -1.1338  0.1523 -1.0700
   29SAPC   C14 3817   5.577   1.294   5.949 -0.4203 -0.4430  0.5850
   29SAPC  H14A 3818   5.576   1.402   5.955 -0.7615 -0.4855  1.4309
   29SAPC  H14B 3819   5.680   1.265   5.935  0.1048  0.9811  1.3017
   29SAPC  H14C 3820   5.526   1.269   5.857  1.0201  0.4201 -0.4792
   29SAPC   C15 3821   5.485   1.097   6.061 -0.2353 -0.7181 -0.7239
   29SAPC  H15A 3822   5.436   1.075   5.967 -2.0371 -1.1892  0.2932
   29SAPC  H15B 3823   5.575   1.037   6.068 -0.2780 -0.8663 -1.3819
   29SAPC  H15C 3824   5.415   1.067   6.137  0.9735 -3.3305 -0.5288
   29SAPC   C11 3825   5.679   1.398   6.208  0.4277 -0.5377  0.2338
   29SAPC  H11A 3826   5.746   1.418   6.121  1.4013 -1.2292  0.8026
   29SAPC  H11B 3827   5.739   1.392   6.301  2.0656  1.2621 -0.6297
   29SAPC     P 3828   5.592   1.638   6.265 -0.6094  0.6180  0.5441
   29SAPC   O13 3829   5.689   1.694   6.172 -0.7459  0.2087  0.4188
   29SAPC   O14 3830   5.463   1.700   6.275  0.1801  0.7541  0.0028
   29SAPC   O12 3831   5.567   1.482   6.240 -0.0958 -0.1542 -0.2552
   29SAPC   O11 3832   5.653   1.639   6.406 -0.5004  0.3538 -0.3483
   29SAPC    C1 3833   5.606   1.557   6.514  0.0376 -0.0360  0.1324
   29SAPC    HA 3834   5.543   1.473   6.478 -2.0623  0.7974  1.7000
   29SAPC    HB 3835   5.694   1.522   6.574  0.0563  0.6432  0.5116
   29SAPC    C2 3836   5.526   1.629   6.624  0.1673 -0.5117  0.9346
   29SAPC    HS 3837   5.455   1.697   6.572  1.3009  0.7413  0.9767
   29SAPC   O21 3838   5.620   1.697   6.707 -0.1994 -0.3465  0.2343
   29SAPC   C21 3839   5.599   1.826   6.718 -0.8532 -0.4277 -0.3122
   29SAPC   O22 3840   5.493   1.882   6.701 -0.2610  0.8897 -0.1278
   29SAPC   C22 3841   5.732   1.893   6.762  0.3433  0.0911  0.8297
   29SAPC   H2R 3842   5.761   1.840   6.855  2.5488  1.5066  1.0199
   29SAPC   H2S 3843   5.820   1.893   6.693 -0.6538 -1.3886 -0.5027
   29SAPC    C3 3844   5.446   1.530   6.714 -0.4550  0.4243 -0.6367
   29SAPC    HX 3845   5.516   1.462   6.767 -0.9940 -1.8253 -2.6487
   29SAPC    HY 3846   5.370   1.474   6.657  0.5941  0.9956 -2.6730
   29SAPC   O31 3847   5.374   1.610   6.819 -0.0036 -0.0657 -0.2395
   29SAPC   C31 3848   5.310   1.528   6.902 -0.1896 -0.8132  0.1074
   29SAPC   O32 3849   5.269   1.422   6.870 -0.1390  0.4714 -0.3249
   29SAPC   C32 3850   5.302   1.593   7.042  0.0699 -0.2292 -0.4950
   29SAPC   H2X 3851   5.330   1.700   7.037 -1.0625  0.0184 -4.0664
   29SAPC   H2Y 3852   5.374   1.532   7.101 -1.3670 -1.6906 -0.1774
   29SAPC   C23 3853   5.703   2.048   6.785  0.1333 -0.2237  0.3937
   29SAPC   H3R 3854   5.600   2.087   6.769 -0.7490 -2.0929  1.2957
   29SAPC   H3S 3855   5.769   2.111   6.722  0.1542 -0.0249  0.6100
   29SAPC   C24 3856   5.739   2.091   6.931 -0.0374 -0.4482  0.2826
   29SAPC   H4R 3857   5.694   2.017   7.000 -0.5060 -0.0796  0.3780
   29SAPC   H4S 3858   5.697   2.194   6.944  2.9961  0.8702  0.4902
   29SAPC   C25 3859   5.890   2.104   6.943 -0.3786 -0.4100 -0.2472
   29SAPC   H5R 3860   5.937   2.169   6.867  3.2545 -0.8718  1.3964
   29SAPC   C26 3861   5.966   2.030   7.021  0.2044 -0.2222  0.1880
   29SAPC   H6R 3862   6.074   2.048   7.016  0.8712 -3.7979 -2.6503
   29SAPC   C27 3863   5.925   1.923   7.114  0.7350 -0.4657  0.5927
   29SAPC   H7R 3864   5.994   1.836   7.112 -0.7308 -1.6618 -1.4979
   29SAPC   H7S 3865   5.834   1.881   7.066 -0.9297  2.2768  1.0976
   29SAPC   C28 3866   5.888   1.976   7.257  0.9044 -0.7441  0.0550
   29SAPC   H8R 3867   5.818   2.060   7.268 -1.8936 -2.8784 -0.1060
   29SAPC   C29 3868   5.952   1.931   7.368  0.6054 -0.0600 -0.2595
   29SAPC   H9R 3869   5.935   1.991   7.458  0.2106  2.5528 -1.9828
   29SAPC  C210 3870   6.059   1.824   7.377  0.0347  0.7131 -0.0128
   29SAPC  H10R 3871   6.135   1.850   7.453  1.5295 -1.2962 -0.7398
   29SAPC  H10S 3872   6.111   1.820   7.279 -1.3863  0.5358 -0.7952
   29SAPC  C211 3873   5.983   1.702   7.401 -0.1063 -0.0795 -0.0488
   29SAPC  H11R 3874   5.955   1.664   7.301 -0.3423  0.0022 -0.0133
   29SAPC  C212 3875   5.966   1.634   7.520 -0.0718 -0.3590 -0.0792
   29SAPC  H12R 3876   5.909   1.541   7.527 -0.5532 -0.0722 -0.1283
   29SAPC  C213 3877   6.018   1.686   7.652 -0.1335  0.0929  0.4748
   29SAPC  H13R 3878   6.085   1.771   7.629  0.9188 -0.5461  1.1213
   29SAPC  H13S 3879   6.080   1.608   7.702  1.2876  0.8605 -0.0531
   29SAPC  C214 3880   5.907   1.718   7.738  0.0641 -0.0752 -0.1433
   29SAPC  H14R 3881   5.817   1.656   7.725  0.9675 -1.3019 -0.6935
   29SAPC  C215 3882   5.896   1.809   7.837  0.2032  0.1337 -0.7744
   29SAPC  H15R 3883   5.801   1.821   7.890  0.6053 -0.1066  0.0191
   29SAPC  C216 3884   6.004   1.898   7.883  0.4578 -0.8264 -0.3493
   29SAPC  H16R 3885   5.959   1.998   7.902  0.7865 -0.8756  0.7860
   29SAPC  H16S 3886   6.081   1.913   7.804 -0.0606 -0.1399 -0.7279
   29SAPC  C217 3887   6.055   1.859   8.017 -0.9867 -0.1258 -0.2871
   29SAPC  H17R 3888   6.135   1.789   7.986 -0.0366  0.5404  0.5932
   29SAPC  H17S 3889   5.975   1.805   8.072 -0.0583  0.3621  1.6165
   29SAPC  C218 3890   6.124   1.974   8.105  0.7837 -0.0648 -0.3860
   29SAPC  H18R 3891   6.047   2.053   8.113 -1.8926 -2.2833 -2.2318
   29SAPC  H18S 3892   6.215   1.992   8.044 -1.3641 -1.5658 -4.3930
   29SAPC  C219 3893   6.173   1.923   8.247 -0.0081 -0.4313  0.0963
   29SAPC  H19R 3894   6.249   1.844   8.231  3.0729  2.3805 -0.2177
   29SAPC  H19S 3895   6.085   1.881   8.301 -0.9319 -0.8241 -1.6534
   29SAPC  C220 3896   6.241   2.025   8.330 -0.0382 -0.5861 -0.7815
   29SAPC  H20R 3897   6.192   2.124   8.346  2.5862  0.8673 -1.1202
   29SAPC  H20S 3898   6.345   2.052   8.303 -1.2000  4.9435 -0.9998
   29SAPC  H20T 3899   6.248   1.993   8.436 -1.1845  1.0785 -0.1685
   29SAPC   C33 3900   5.164   1.579   7.113 -1.3364  0.5687 -0.1326
   29SAPC   H3X 3901   5.132   1.472   7.121 -1.4581  0.4185 -2.1620
   29SAPC   H3Y 3902   5.086   1.634   7.056 -2.4008  2.2052  2.6637
   29SAPC   C34 3903   5.162   1.620   7.256  0.1706  0.6890 -0.5805
   29SAPC   H4X 3904   5.185   1.729   7.263 -2.3089  1.2177  0.7678
   29SAPC   H4Y 3905   5.239   1.558   7.305 -0.3817  0.7156  0.3648
   29SAPC   C35 3906   5.018   1.615   7.317  0.0603 -0.4256 -0.0638
   29SAPC   H5X 3907   4.974   1.517   7.291 -0.3772  0.0646 -1.2565
   29SAPC   H5Y 3908   4.946   1.688   7.273  0.6519  1.5649  2.0709
   29SAPC   C36 3909   5.017   1.638   7.465 -0.1707 -0.0040  0.7384
   29SAPC   H6X 3910   5.110   1.689   7.498  1.0488 -1.5755 -0.1194
   29SAPC   H6Y 3911   5.021   1.539   7.514  0.1733  0.3159  1.3626
   29SAPC   C37 3912   4.890   1.688   7.535  0.4477 -0.1875 -0.2816
   29SAPC   H7X 3913   4.815   1.611   7.508  0.8903 -0.2128 -1.5209
   29SAPC   H7Y 3914   4.846   1.781   7.493  0.7897  0.3519  0.5244
   29SAPC   C38 3915   4.902   1.720   7.683  0.0100  0.2620 -0.6393
   29SAPC   H8X 3916   4.799   1.743   7.716 -0.8725 -3.2899 -0.5671
   29SAPC   H8Y 3917   4.969   1.806   7.708  0.1691  0.8392 -2.8100
   29SAPC   C39 3918   4.947   1.598   7.769 -1.0043  0.2919  0.0331
   29SAPC   H9X 3919   5.057   1.616   7.770 -0.9754  0.1141  0.3225
   29SAPC   H9Y 3920   4.922   1.508   7.710 -1.4372 -0.8592  1.8995
   29SAPC  C310 3921   4.896   1.571   7.907 -0.3699  0.2723  0.2049
   29SAPC  H10X 3922   4.786   1.565   7.892 -0.2087 -0.6736 -0.7470
   29SAPC  H10Y 3923   4.913   1.665   7.964  0.1346  0.8298 -0.8405
   29SAPC  C311 3924   4.955   1.438   7.968 -0.1947 -0.2984 -0.5906
   29SAPC  H11X 3925   5.060   1.457   7.999 -1.0735  1.2046  1.7934
   29SAPC  H11Y 3926   4.955   1.362   7.887  0.0984 -2.0548  0.9888
   29SAPC  C312 3927   4.872   1.399   8.089 -0.3240  0.1576 -0.0444
   29SAPC  H12X 3928   4.768   1.387   8.052  0.3436  0.2912 -2.0724
   29SAPC  H12Y 3929   4.866   1.476   8.169 -1.2587 -0.1946  0.2475
   29SAPC  C313 3930   4.911   1.266   8.153 -0.3212  0.2954  0.6912
   29SAPC  H13X 3931   5.019   1.266   8.179 -0.2123  2.9242  0.5311
   29SAPC  H13Y 3932   4.902   1.183   8.080  2.2961  0.7692 -0.2995
   29SAPC  C314 3933   4.838   1.255   8.288 -0.1333 -0.6001  0.2401
   29SAPC  H14X 3934   4.728   1.260   8.275 -0.2723 -0.5214  1.3493
   29SAPC  H14Y 3935   4.873   1.341   8.349  0.7985 -0.5349 -0.3654
   29SAPC  C315 3936   4.865   1.123   8.365  0.5981 -0.6879  0.5547
   29SAPC  H15X 3937   4.971   1.113   8.397  0.7302 -1.3793 -0.0537
   29SAPC  H15Y 3938   4.843   1.036   8.300 -3.7845  1.5508 -1.3648
   29SAPC  C316 3939   4.768   1.115   8.486 -0.1787  0.2959  0.1701
   29SAPC  H16X 3940   4.662   1.102   8.455 -0.8651  3.7952  0.5638
   29SAPC  H16Y 3941   4.772   1.218   8.527  1.8148  0.7394 -0.9964
   29SAPC  C317 3942   4.815   1.014   8.593  0.0480  0.1430  0.5591
   29SAPC  H17X 3943   4.924   0.996   8.609 -0.2082 -3.1918 -0.7601
   29SAPC  H17Y 3944   4.784   0.913   8.559  1.0491 -0.5676  1.6711
   29SAPC  C318 3945   4.754   1.050   8.728  0.0929  0.2982 -0.0578
   29SAPC  H18X 3946   4.784   1.149   8.768  2.0890  0.1725 -1.1298
   29SAPC  H18Y 3947   4.799   0.983   8.805  2.1736  0.7683 -0.7854
   29SAPC  H18Z 3948   4.644   1.058   8.718  0.2176  2.1805 -0.3337
   30SAPC     N 3949   0.009   2.319   5.862 -0.2716  0.2682 -0.2497
   30SAPC   C12 3950  -0.070   2.411   5.955  0.0209 -0.2516 -0.6565
   30SAPC  H12A 3951  -0.134   2.354   6.021  0.3712  0.3003  0.1903
   30SAPC  H12B 3952  -0.135   2.470   5.892  0.9238 -0.2699 -1.6374
   30SAPC   C13 3953  -0.086   2.231   5.794 -0.0135  0.6881  0.1999
   30SAPC  H13A 3954  -0.148   2.282   5.722  0.1007  0.4479 -0.0743
   30SAPC  H13B 3955  -0.026   2.165   5.732 -0.3425 -0.6230  1.2340
   30SAPC  H13C 3956  -0.143   2.159   5.849 -0.9688  0.3407 -1.1948
   30SAPC   C14 3957   0.085   2.406   5.761  0.2331  0.1785  0.0958
   30SAPC  H14A 3958   0.152   2.478   5.806 -1.1052  1.0115  0.8714
   30SAPC  H14B 3959   0.148   2.344   5.700  0.2878 -0.3758  0.7073
   30SAPC  H14C 3960   0.019   2.459   5.694 -2.2786 -0.2459  2.0708
   30SAPC   C15 3961   0.109   2.249   5.946  0.9088 -0.7833  0.0797
   30SAPC  H15A 3962   0.178   2.314   5.999 -0.7221  1.1474 -0.0438
   30SAPC  H15B 3963   0.064   2.194   6.027 -0.5263  1.2248  0.7135
   30SAPC  H15C 3964   0.159   2.176   5.884 -2.1129 -2.0723 -1.0430
   30SAPC   C11 3965  -0.004   2.517   6.051  0.5549 -0.6574  0.1243
   30SAPC  H11A 3966  -0.086   2.583   6.087  1.2554 -0.3363  1.1753
   30SAPC  H11B 3967   0.070   2.588   6.008 -0.6378  1.8961  1.9788
   30SAPC     P 3968  -0.003   2.436   6.298  0.1344 -0.2091 -0.6544
   30SAPC   O13 3969  -0.074   2.562   6.321  0.0289 -0.0744 -0.8688
   30SAPC   O14 3970  -0.085   2.313   6.306 -0.1090  0.3826 -0.0980
   30SAPC   O12 3971   0.064   2.446   6.153 -0.0258  0.7712 -0.8448
   30SAPC   O11 3972   0.124   2.421   6.392  0.0199 -0.4762 -0.0500
   30SAPC    C1 3973   0.203   2.303   6.388 -0.3580  0.1169  0.7668
   30SAPC    HA 3974   0.195   2.254   6.289 -2.2385 -0.6420  1.2469
   30SAPC    HB 3975   0.308   2.338   6.397 -0.4806  0.8056 -0.2936
   30SAPC    C2 3976   0.153   2.198   6.487  0.1015  0.2233 -0.7862
   30SAPC    HS 3977   0.044   2.204   6.469  0.1623 -1.2789 -1.8671
   30SAPC   O21 3978   0.180   2.242   6.620  0.3659  0.2019  0.8706
   30SAPC   C21 3979   0.102   2.224   6.721  0.2259 -0.1552 -0.3411
   30SAPC   O22 3980  -0.010   2.169   6.719 -0.0617  0.0728 -0.2104
   30SAPC   C22 3981   0.158   2.292   6.840 -0.4068  0.7985 -0.4724
   30SAPC   H2R 3982   0.230   2.222   6.887 -1.9836 -2.0358 -2.0031
   30SAPC   H2S 3983   0.207   2.390   6.821  1.2883  0.6826  2.5801
   30SAPC    C3 3984   0.213   2.055   6.464 -0.3545 -0.4233  0.1659
   30SAPC    HX 3985   0.322   2.073   6.478 -0.8975  1.8351  2.1449
   30SAPC    HY 3986   0.178   2.018   6.365 -1.9352  1.3191  0.0203
   30SAPC   O31 3987   0.178   1.973   6.575 -0.1208 -0.0591  0.2782
   30SAPC   C31 3988   0.079   1.892   6.568  1.1055  0.6913  0.1813
   30SAPC   O32 3989  -0.008   1.898   6.478 -0.1449 -0.0591  0.0411
   30SAPC   C32 3990   0.074   1.789   6.684  0.0468  0.0102 -0.2420
   30SAPC   H2X 3991   0.154   1.712   6.676 -1.0500 -0.9456 -3.3303
   30SAPC   H2Y 3992  -0.022   1.733   6.675 -0.0428  0.0769  0.2488
   30SAPC   C23 3993   0.045   2.320   6.949 -0.9769 -0.3870 -0.4770
   30SAPC   H3R 3994  -0.035   2.377   6.898 -0.9874 -1.3391 -1.5561
   30SAPC   H3S 3995   0.086   2.389   7.026 -1.2646  0.8181 -1.3625
   30SAPC   C24 3996  -0.013   2.192   7.013  0.5187 -0.0926 -0.6496
   30SAPC   H4R 3997   0.081   2.136   7.032 -0.0948 -1.6023 -1.9049
   30SAPC   H4S 3998  -0.069   2.128   6.942  0.3955 -1.5094  0.6836
   30SAPC   C25 3999  -0.093   2.211   7.139  0.5263 -0.1547 -0.1083
   30SAPC   H5R 4000  -0.199   2.242   7.133 -0.3666 -3.1007 -1.2884
   30SAPC   C26 4001  -0.032   2.221   7.263 -0.9671  0.4111 -0.0871
   30SAPC   H6R 4002  -0.092   2.226   7.356 -0.7504  0.3997  0.0527
   30SAPC   C27 4003   0.113   2.211   7.292 -0.4287 -0.1412 -0.1016
   30SAPC   H7R 4004   0.173   2.165   7.211 -0.1823 -1.3754  0.7460
   30SAPC   H7S 4005   0.139   2.127   7.361  0.5424 -1.2830 -1.7702
   30SAPC   C28 4006   0.184   2.337   7.326 -0.0632  0.2896 -0.1251
   30SAPC   H8R 4007   0.211   2.397   7.237 -0.5067 -0.4596 -0.7809
   30SAPC   C29 4008   0.207   2.379   7.449  0.2652  0.2272 -0.5611
   30SAPC   H9R 4009   0.259   2.475   7.461 -0.9499  0.9167 -0.5862
   30SAPC  C210 4010   0.157   2.312   7.576 -0.0118 -0.0891  0.5753
   30SAPC  H10R 4011   0.238   2.272   7.640 -0.3843 -1.9335 -0.0324
   30SAPC  H10S 4012   0.099   2.220   7.551 -0.0135 -0.0705  0.5071
   30SAPC  C211 4013   0.081   2.414   7.661 -0.5172 -0.6291 -0.2713
   30SAPC  H11R 4014  -0.017   2.445   7.622  0.9705  3.3442 -1.2500
   30SAPC  C212 4015   0.133   2.487   7.761  0.0422 -0.2532  0.2120
   30SAPC  H12R 4016   0.065   2.540   7.828  0.0965  0.4751 -0.2934
   30SAPC  C213 4017   0.277   2.467   7.815 -0.2098  0.2810 -1.0015
   30SAPC  H13R 4018   0.328   2.564   7.835  4.4661 -1.9515 -0.6020
   30SAPC  H13S 4019   0.346   2.425   7.738  0.3540  3.6996 -2.5660
   30SAPC  C214 4020   0.281   2.378   7.935  0.0808  0.1881  0.2551
   30SAPC  H14R 4021   0.252   2.272   7.931 -0.1049  0.2707 -0.5757
   30SAPC  C215 4022   0.307   2.415   8.066 -0.0858  0.1063  0.2753
   30SAPC  H15R 4023   0.302   2.350   8.154  0.1266  1.2293  1.1357
   30SAPC  C216 4024   0.339   2.561   8.095 -0.7356  0.5277 -0.0771
   30SAPC  H16R 4025   0.412   2.596   8.020  0.1851 -2.1197 -0.5309
   30SAPC  H16S 4026   0.399   2.558   8.189 -0.6404 -0.7352 -0.1591
   30SAPC  C217 4027   0.222   2.656   8.101 -0.1450  0.5015  0.1263
   30SAPC  H17R 4028   0.167   2.651   8.005  1.4987  0.8063 -0.8508
   30SAPC  H17S 4029   0.261   2.758   8.120 -1.1916  0.7967  0.8505
   30SAPC  C218 4030   0.122   2.630   8.215 -0.8380  0.6732 -0.1594
   30SAPC  H18R 4031   0.095   2.522   8.219 -1.0900  0.7437  0.0221
   30SAPC  H18S 4032   0.028   2.685   8.195 -0.2505  1.7603  0.0187
   30SAPC  C219 4033   0.176   2.673   8.361  0.4826 -0.2561 -0.6028
   30SAPC  H19R 4034   0.168   2.783   8.368 -0.5913 -0.1307 -2.7672
   30SAPC  H19S 4035   0.276   2.631   8.385 -0.1830 -1.1200  0.7751
   30SAPC  C220 4036   0.084   2.614   8.469 -0.8887  0.5035  0.8524
   30SAPC  H20R 4037   0.099   2.505   8.463  1.1548  0.7630  0.6048
   30SAPC  H20S 4038  -0.025   2.634   8.456 -1.0648 -1.6812 -2.0180
   30SAPC  H20T 4039   0.118   2.650   8.569 -0.6801 -0.0606  0.9844
   30SAPC   C33 4040   0.077   1.865   6.817  0.3956  0.0540 -0.3996
   30SAPC   H3X 4041  -0.014   1.930   6.821  2.0916  2.5081  1.7471
   30SAPC   H3Y 4042   0.176   1.913   6.828  1.1244 -1.1178 -1.5940
   30SAPC   C34 4043   0.064   1.764   6.932 -0.1978 -0.4140  0.2486
   30SAPC   H4X 4044   0.152   1.698   6.925  0.1192 -0.0166  0.4572
   30SAPC   H4Y 4045  -0.022   1.694   6.933 -0.9211  0.4341 -0.3613
   30SAPC   C35 4046   0.070   1.838   7.071  0.1050  0.3893  0.2290
   30SAPC   H5X 4047  -0.026   1.889   7.095  1.1979  3.2485 -0.9476
   30SAPC   H5Y 4048   0.154   1.911   7.070 -0.3462  0.9320  0.6477
   30SAPC   C36 4049   0.083   1.732   7.183  0.0917 -0.3657 -0.7716
   30SAPC   H6X 4050   0.165   1.658   7.169  0.8846  0.3458 -0.0172
   30SAPC   H6Y 4051  -0.017   1.684   7.189  0.5278 -1.2014  0.2367
   30SAPC   C37 4052   0.103   1.808   7.319  0.0250 -0.7750  0.1015
   30SAPC   H7X 4053   0.028   1.889   7.331  1.7582  1.0510 -0.7987
   30SAPC   H7Y 4054   0.198   1.865   7.309 -0.3701 -0.0657  0.3806
   30SAPC   C38 4055   0.101   1.717   7.437 -0.1339 -0.5268  0.4206
   30SAPC   H8X 4056   0.205   1.683   7.456  0.2016  0.2243 -0.0052
   30SAPC   H8Y 4057   0.046   1.623   7.417 -1.0342 -0.0365  0.5301
   30SAPC   C39 4058   0.055   1.781   7.565 -0.1205 -0.7774 -0.1064
   30SAPC   H9X 4059  -0.048   1.822   7.556  0.1805 -0.1166 -0.7096
   30SAPC   H9Y 4060   0.131   1.852   7.605  2.5208 -4.0384  1.1213
   30SAPC  C310 4061   0.046   1.674   7.679  0.7811 -0.2031  0.8545
   30SAPC  H10X 4062   0.143   1.620   7.678  0.3739 -0.9366  0.5665
   30SAPC  H10Y 4063  -0.041   1.609   7.654  0.5566  0.6115 -0.6399
   30SAPC  C311 4064   0.030   1.752   7.807 -0.3276 -0.3814 -0.0302
   30SAPC  H11X 4065  -0.062   1.814   7.815  0.7272  1.4278 -1.1917
   30SAPC  H11Y 4066   0.118   1.818   7.827  1.3024 -2.2909 -0.5654
   30SAPC  C312 4067   0.042   1.655   7.918  0.3046  0.0260  0.1711
   30SAPC  H12X 4068   0.133   1.594   7.895  0.2989 -0.5618  1.6150
   30SAPC  H12Y 4069  -0.040   1.581   7.927  0.2125  0.1617  0.4216
   30SAPC  C313 4070   0.076   1.730   8.044  0.4006 -0.0924 -0.8688
   30SAPC  H13X 4071  -0.010   1.798   8.063  1.0801  0.3657  0.7025
   30SAPC  H13Y 4072   0.170   1.787   8.035  0.1206  0.1344 -2.8768
   30SAPC  C314 4073   0.081   1.628   8.157  0.4835  0.3249  0.1327
   30SAPC  H14X 4074   0.154   1.546   8.138 -0.2801 -0.3400 -0.0289
   30SAPC  H14Y 4075  -0.022   1.589   8.174  0.5827 -1.8129 -3.2083
   30SAPC  C315 4076   0.114   1.698   8.276  0.7165 -0.6469 -0.8395
   30SAPC  H15X 4077   0.046   1.780   8.307  1.3215 -0.4603  0.0218
   30SAPC  H15Y 4078   0.213   1.749   8.283  0.5337 -0.5147  1.8184
   30SAPC  C316 4079   0.104   1.604   8.395  0.3214 -0.2446  0.2553
   30SAPC  H16X 4080   0.157   1.512   8.363  0.3187 -1.0299  2.4130
   30SAPC  H16Y 4081  -0.002   1.573   8.411 -0.0309 -0.2711 -1.8284
   30SAPC  C317 4082   0.165   1.663   8.526  0.1739 -0.2465 -0.3285
   30SAPC  H17X 4083   0.096   1.743   8.561 -0.5030  0.2283 -2.5582
   30SAPC  H17Y 4084   0.263   1.709   8.501  1.3898 -2.6000 -0.2414
   30SAPC  C318 4085   0.173   1.552   8.636  0.5472 -0.0181  0.4141
   30SAPC  H18X 4086   0.165   1.601   8.735  0.9904 -2.7754  1.9066
   30SAPC  H18Y 4087   0.268   1.494   8.631  0.6212  0.1317  0.0657
   30SAPC  H18Z 4088   0.079   1.493   8.623  1.4524 -1.2382 -0.9703
   31SAPC     N 4089   3.254   4.857   5.780 -0.0727  0.2818 -0.2959
   31SAPC   C12 4090   3.267   4.982   5.862 -0.4056  0.1315 -0.5111
   31SAPC  H12A 4091   3.180   5.047   5.858  0.7342  1.6361 -2.5033
   31SAPC  H12B 4092   3.344   5.038   5.812 -0.8024 -0.2291 -1.5538
   31SAPC   C13 4093   3.161   4.759   5.850  0.3985  0.1622  0.5949
   31SAPC  H13A 4094   3.069   4.807   5.878  0.1469  0.8838 -1.2648
   31SAPC  H13B 4095   3.116   4.696   5.775 -1.4098  2.3149 -0.2240
   31SAPC  H13C 4096   3.203   4.698   5.928 -0.2789  1.8674  2.3534
   31SAPC   C14 4097   3.191   4.894   5.650  0.1178 -0.8918  0.0438
   31SAPC  H14A 4098   3.247   4.973   5.601 -1.5434  2.0655  2.5431
   31SAPC  H14B 4099   3.187   4.812   5.580 -0.9545 -0.6762 -0.1592
   31SAPC  H14C 4100   3.089   4.923   5.668 -0.3146 -1.1364 -1.8531
   31SAPC   C15 4101   3.391   4.798   5.746 -0.0139  0.7881  0.1330
   31SAPC  H15A 4102   3.451   4.761   5.828  0.4327  1.3509  0.0697
   31SAPC  H15B 4103   3.381   4.731   5.662 -2.3803  0.2080  0.8059
   31SAPC  H15C 4104   3.456   4.876   5.708 -0.2296  0.0832 -1.8209
   31SAPC   C11 4105   3.319   4.964   6.011  0.4191  0.3794  0.0362
   31SAPC  H11A 4106   3.346   5.062   6.054 -1.7075 -0.1834  3.0286
   31SAPC  H11B 4107   3.413   4.905   6.015  1.1086  1.3936 -0.9395
   31SAPC     P 4108   3.103   4.979   6.143  0.3571 -0.2104 -0.1659
   31SAPC   O13 4109   3.024   5.015   6.027  0.2144  0.5624  0.4123
   31SAPC   O14 4110   3.026   4.907   6.246 -0.0351 -0.5039 -0.4314
   31SAPC   O12 4111   3.225   4.896   6.100 -0.3915 -0.1458 -0.0975
   31SAPC   O11 4112   3.155   5.114   6.209  0.8540 -0.0944  0.1420
   31SAPC    C1 4113   3.262   5.126   6.299 -0.5525 -0.2076  0.3969
   31SAPC    HA 4114   3.326   5.036   6.311 -0.4149 -0.1563  0.0589
   31SAPC    HB 4115   3.334   5.202   6.260 -0.3806 -0.2301  0.6685
   31SAPC    C2 4116   3.228   5.166   6.447 -0.0913 -0.9196 -0.7117
   31SAPC    HS 4117   3.320   5.212   6.488 -0.7061 -1.6996  1.7228
   31SAPC   O21 4118   3.203   5.050   6.532 -0.0770 -0.6145 -0.0635
   31SAPC   C21 4119   3.313   4.982   6.571 -0.5255  0.1708 -0.0751
   31SAPC   O22 4120   3.426   5.014   6.545 -0.2868  0.4986  0.8503
   31SAPC   C22 4121   3.279   4.853   6.652  0.2505  0.0255 -0.4893
   31SAPC   H2R 4122   3.173   4.833   6.623  0.4502 -0.7043 -0.7488
   31SAPC   H2S 4123   3.340   4.770   6.610  0.8642  1.5151 -2.7267
   31SAPC    C3 4124   3.111   5.269   6.455  0.0886 -0.4543 -0.7055
   31SAPC    HX 4125   3.015   5.225   6.420 -0.1142 -1.8358  1.3877
   31SAPC    HY 4126   3.138   5.359   6.397  1.1286  0.7082  1.4525
   31SAPC   O31 4127   3.105   5.306   6.594  0.5453 -0.5015  0.0133
   31SAPC   C31 4128   3.012   5.252   6.670 -0.0275  0.6795 -0.2272
   31SAPC   O32 4129   2.916   5.179   6.633 -0.4103  0.1617 -0.0341
   31SAPC   C32 4130   3.030   5.315   6.809 -0.3904  0.2526  0.4768
   31SAPC   H2X 4131   2.987   5.417   6.802  0.1004  0.4657  0.5091
   31SAPC   H2Y 4132   3.140   5.331   6.822 -0.1247  0.0892 -1.3687
   31SAPC   C23 4133   3.303   4.847   6.804 -0.2784 -0.4463  0.6179
   31SAPC   H3R 4134   3.409   4.879   6.809  0.1874  0.4249 -5.8987
   31SAPC   H3S 4135   3.297   4.746   6.850 -2.8897 -1.8567 -2.4023
   31SAPC   C24 4136   3.204   4.936   6.876 -0.2174  0.2036  0.2678
   31SAPC   H4R 4137   3.107   4.882   6.881  1.9209 -4.0425  0.3995
   31SAPC   H4S 4138   3.182   5.026   6.814  0.7151  0.3790  0.1751
   31SAPC   C25 4139   3.241   4.970   7.014  0.4919  0.1574 -0.4782
   31SAPC   H5R 4140   3.299   5.062   7.032  1.0632 -0.7455  3.1492
   31SAPC   C26 4141   3.221   4.887   7.120  0.1970 -0.1013  0.4023
   31SAPC   H6R 4142   3.254   4.921   7.219 -0.1608 -1.1270  0.8884
   31SAPC   C27 4143   3.143   4.757   7.122 -0.0740  0.1954  0.5627
   31SAPC   H7R 4144   3.204   4.672   7.160 -1.5367 -0.9035  0.5532
   31SAPC   H7S 4145   3.109   4.720   7.023 -0.5414 -1.6108  1.3542
   31SAPC   C28 4146   3.018   4.769   7.206 -0.1763  0.5561  0.1836
   31SAPC   H8R 4147   2.944   4.840   7.166  1.9599  2.7786 -0.0378
   31SAPC   C29 4148   3.002   4.714   7.326  0.0639 -0.3937 -0.4575
   31SAPC   H9R 4149   2.908   4.735   7.379  0.1775  1.0309 -0.7709
   31SAPC  C210 4150   3.101   4.638   7.412 -0.0877 -0.0456 -0.4359
   31SAPC  H10R 4151   3.176   4.574   7.360  0.4013  0.8563 -0.8587
   31SAPC  H10S 4152   3.036   4.575   7.477  1.2614  1.1456  2.1845
   31SAPC  C211 4153   3.174   4.735   7.498 -0.2361 -0.1319 -0.0538
   31SAPC  H11R 4154   3.270   4.763   7.452  0.1264  1.0699  1.3519
   31SAPC  C212 4155   3.146   4.796   7.613 -0.3698 -0.5084  0.2778
   31SAPC  H12R 4156   3.228   4.853   7.659 -1.1103  0.6422  0.2269
   31SAPC  C213 4157   3.014   4.776   7.692 -0.2716 -0.4430 -0.0026
   31SAPC  H13R 4158   3.029   4.709   7.780 -0.4009  0.5791  0.8084
   31SAPC  H13S 4159   2.939   4.728   7.625 -1.7402  0.0977  1.1949
   31SAPC  C214 4160   2.958   4.913   7.718  0.5678  0.3588  1.1140
   31SAPC  H14R 4161   2.895   4.951   7.637  0.8071  1.6633  1.5285
   31SAPC  C215 4162   2.981   4.992   7.827  0.0734  0.3848 -0.3161
   31SAPC  H15R 4163   2.920   5.084   7.828 -0.7061 -0.0920  1.6274
   31SAPC  C216 4164   3.064   4.958   7.951 -0.2783  0.0674 -0.0025
   31SAPC  H16R 4165   3.116   4.860   7.944  2.0383  1.2252  0.0662
   31SAPC  H16S 4166   2.997   4.940   8.038  2.1307 -1.3857  1.6730
   31SAPC  C217 4167   3.178   5.061   7.984 -0.3191  0.4100 -0.6810
   31SAPC  H17R 4168   3.126   5.158   7.999 -0.6159  0.7416 -3.2526
   31SAPC  H17S 4169   3.249   5.069   7.899  1.8224 -0.4666  0.9472
   31SAPC  C218 4170   3.260   5.012   8.103 -0.6670  0.3004 -0.6459
   31SAPC  H18R 4171   3.319   4.923   8.074 -1.1937 -0.4482  0.5226
   31SAPC  H18S 4172   3.195   4.979   8.187  1.0450 -1.5376  0.0321
   31SAPC  C219 4173   3.364   5.114   8.158  0.9388 -0.3759  1.0115
   31SAPC  H19R 4174   3.420   5.165   8.077  0.0881 -1.4335 -0.2746
   31SAPC  H19S 4175   3.443   5.049   8.200  1.3425 -0.8204 -0.4121
   31SAPC  C220 4176   3.306   5.209   8.265  0.3727  0.4144 -0.3272
   31SAPC  H20R 4177   3.353   5.309   8.273 -1.0855  1.0138  1.2495
   31SAPC  H20S 4178   3.308   5.161   8.365  0.0089  2.0320  0.4823
   31SAPC  H20T 4179   3.198   5.227   8.247  0.4625 -0.6086 -2.0866
   31SAPC   C33 4180   2.953   5.236   6.921 -0.0700  0.1879 -0.3907
   31SAPC   H3X 4181   2.989   5.131   6.916  1.6852  0.6754  0.9600
   31SAPC   H3Y 4182   2.843   5.244   6.910  0.0824  1.4248 -1.2691
   31SAPC   C34 4183   3.000   5.282   7.061 -0.4231 -0.7255 -0.1517
   31SAPC   H4X 4184   3.016   5.392   7.054  0.9131 -0.8259  0.8196
   31SAPC   H4Y 4185   3.098   5.231   7.075  0.3808 -0.2567 -3.2834
   31SAPC   C35 4186   2.898   5.242   7.176 -0.3749  0.0267 -0.5386
   31SAPC   H5X 4187   2.890   5.134   7.153 -1.8359 -0.2354  0.9939
   31SAPC   H5Y 4188   2.802   5.293   7.153 -0.5067  1.0112  1.9367
   31SAPC   C36 4189   2.953   5.268   7.312  0.3458 -0.4251  0.1115
   31SAPC   H6X 4190   2.873   5.257   7.388  0.4921 -0.2676  0.2863
   31SAPC   H6Y 4191   2.998   5.369   7.320 -0.4543 -0.1562  1.5052
   31SAPC   C37 4192   3.057   5.160   7.351 -0.0949 -0.2004 -0.2171
   31SAPC   H7X 4193   3.142   5.170   7.280 -0.8470  3.0980 -0.8333
   31SAPC   H7Y 4194   3.010   5.060   7.344 -0.7019  0.0741 -0.1026
   31SAPC   C38 4195   3.111   5.171   7.499  0.2808 -0.0112  0.4346
   31SAPC   H8X 4196   3.185   5.088   7.505  0.4242 -0.1137 -1.8652
   31SAPC   H8Y 4197   3.028   5.150   7.569  0.4403  1.8246  1.2262
   31SAPC   C39 4198   3.173   5.303   7.551 -0.6663 -0.0266 -0.1767
   31SAPC   H9X 4199   3.107   5.388   7.525  0.0802  0.3959 -0.7284
   31SAPC   H9Y 4200   3.275   5.312   7.509  0.0358 -0.8459  1.2778
   31SAPC  C310 4201   3.183   5.308   7.709 -0.2348  0.2984 -0.2006
   31SAPC  H10X 4202   3.251   5.223   7.735 -1.6449 -0.3597  1.4810
   31SAPC  H10Y 4203   3.082   5.293   7.751  0.0871 -3.0313 -0.3476
   31SAPC  C311 4204   3.227   5.439   7.763 -0.0710 -0.0181  0.9489
   31SAPC  H11X 4205   3.137   5.504   7.760 -1.4211 -1.7935  1.3925
   31SAPC  H11Y 4206   3.298   5.483   7.690 -2.1033  0.2819 -0.9449
   31SAPC  C312 4207   3.296   5.446   7.905  0.4847  0.4849  0.1242
   31SAPC  H12X 4208   3.395   5.402   7.882  0.3187 -0.0682  0.4539
   31SAPC  H12Y 4209   3.228   5.380   7.963 -1.2442  0.3411 -1.9258
   31SAPC  C313 4210   3.320   5.587   7.955  0.5617  0.1329  0.4691
   31SAPC  H13X 4211   3.364   5.647   7.873  1.2111 -0.7266  0.1811
   31SAPC  H13Y 4212   3.397   5.582   8.034  0.7021 -0.6016  0.2872
   31SAPC  C314 4213   3.196   5.641   8.028 -0.3619  0.2922 -0.2877
   31SAPC  H14X 4214   3.173   5.564   8.105 -1.7731 -1.5209 -2.4171
   31SAPC  H14Y 4215   3.115   5.657   7.953 -0.6628  2.3530  0.4193
   31SAPC  C315 4216   3.222   5.774   8.090  0.4745  0.7743 -0.6494
   31SAPC  H15X 4217   3.324   5.769   8.132 -0.0312  2.4304  0.8728
   31SAPC  H15Y 4218   3.161   5.782   8.182  2.1387 -1.8614  0.8306
   31SAPC  C316 4219   3.199   5.890   7.995  0.1878 -0.3818 -0.8221
   31SAPC  H16X 4220   3.092   5.893   7.969  0.0030 -0.8244 -0.1377
   31SAPC  H16Y 4221   3.259   5.863   7.905 -1.2963 -1.4223 -1.5363
   31SAPC  C317 4222   3.261   6.025   8.048 -0.2724 -0.2727 -0.2066
   31SAPC  H17X 4223   3.276   6.095   7.963 -0.1565 -0.4679 -0.3483
   31SAPC  H17Y 4224   3.360   5.993   8.087 -0.4247 -0.8253 -0.2740
   31SAPC  C318 4225   3.191   6.084   8.168 -1.0279  0.2483 -0.1384
   31SAPC  H18X 4226   3.080   6.073   8.160 -0.9578 -0.3227 -0.3413
   31SAPC  H18Y 4227   3.219   6.191   8.167 -0.2994  0.0696 -1.9889
   31SAPC  H18Z 4228   3.220   6.038   8.265 -0.3731  0.7247 -0.1061
   32SAPC     N 4229   4.241   4.225   5.717  0.1591  0.1138  0.3358
   32SAPC   C12 4230   4.303   4.131   5.817 -0.3139  0.1734 -0.5372
   32SAPC  H12A 4231   4.407   4.157   5.828 -0.5950  1.0316  0.2470
   32SAPC  H12B 4232   4.291   4.028   5.786 -3.4810 -0.2310  1.5057
   32SAPC   C13 4233   4.273   4.366   5.740 -0.9623  0.4688  0.0365
   32SAPC  H13A 4234   4.379   4.373   5.759 -0.9602  0.5465 -0.0053
   32SAPC  H13B 4235   4.256   4.417   5.646  0.2620 -3.2296 -2.3945
   32SAPC  H13C 4236   4.224   4.405   5.828 -0.7734  1.4695 -0.2851
   32SAPC   C14 4237   4.292   4.185   5.580  0.2491  0.6616  0.1725
   32SAPC  H14A 4238   4.399   4.185   5.567  0.5450 -1.8679  1.8727
   32SAPC  H14B 4239   4.271   4.081   5.559  3.0097 -0.2176  1.3702
   32SAPC  H14C 4240   4.237   4.241   5.505  3.4965  0.5345 -2.5381
   32SAPC   C15 4241   4.090   4.206   5.704  0.2420  0.1365  0.1174
   32SAPC  H15A 4242   4.026   4.222   5.790 -0.8067 -4.1776  0.3787
   32SAPC  H15B 4243   4.057   4.264   5.620  2.8342 -1.9596 -2.5457
   32SAPC  H15C 4244   4.070   4.103   5.680  1.6923 -0.1600  0.0920
   32SAPC   C11 4245   4.254   4.145   5.961 -0.0689  0.5765  0.4210
   32SAPC  H11A 4246   4.307   4.070   6.024  1.5267  0.5726 -0.8741
   32SAPC  H11B 4247   4.145   4.123   5.966  0.0446  0.0336  0.5996
   32SAPC     P 4248   4.404   4.318   6.073  0.0550  0.1639 -0.2779
   32SAPC   O13 4249   4.509   4.253   5.995  0.0823 -0.1773  0.3164
   32SAPC   O14 4250   4.409   4.468   6.092 -0.0525  0.7075 -0.6281
   32SAPC   O12 4251   4.262   4.280   6.011  0.3344 -0.5012  0.5469
   32SAPC   O11 4252   4.402   4.242   6.213 -0.0793 -0.1212  0.7258
   32SAPC    C1 4253   4.305   4.269   6.308 -0.1144 -0.4288 -0.4724
   32SAPC    HA 4254   4.249   4.366   6.306 -0.9073 -0.8341  0.8280
   32SAPC    HB 4255   4.222   4.195   6.308 -1.9954  1.5574  0.1921
   32SAPC    C2 4256   4.365   4.267   6.452  0.0950  0.5441 -0.2461
   32SAPC    HS 4257   4.376   4.160   6.480  1.4242  0.6843 -0.1904
   32SAPC   O21 4258   4.287   4.335   6.547  0.1063 -0.4224 -0.0493
   32SAPC   C21 4259   4.172   4.274   6.577  0.2452  0.2207  0.6939
   32SAPC   O22 4260   4.144   4.156   6.556  0.0303 -0.1811 -0.0370
   32SAPC   C22 4261   4.081   4.372   6.653 -0.1773 -0.2766  0.2321
   32SAPC   H2R 4262   4.128   4.392   6.752 -2.1248 -0.8075  1.3282
   32SAPC   H2S 4263   4.079   4.467   6.595 -0.1061 -1.0058 -0.9963
   32SAPC    C3 4264   4.509   4.327   6.446  0.1632  0.8632  0.0575
   32SAPC    HX 4265   4.501   4.431   6.407  0.0632  0.4550 -1.0589
   32SAPC    HY 4266   4.566   4.269   6.370  1.0294  1.2023  0.4386
   32SAPC   O31 4267   4.579   4.325   6.569 -0.7617 -0.0596  0.3276
   32SAPC   C31 4268   4.619   4.199   6.611 -0.2900 -0.3780  0.1361
   32SAPC   O32 4269   4.582   4.091   6.569 -0.7220 -0.1020  0.0685
   32SAPC   C32 4270   4.714   4.220   6.731  0.6548  0.2980 -0.2591
   32SAPC   H2X 4271   4.631   4.244   6.801 -0.8265 -3.0728 -0.6623
   32SAPC   H2Y 4272   4.774   4.314   6.729  1.6758 -0.3272  0.0532
   32SAPC   C23 4273   3.925   4.335   6.675  0.6243  0.0033  0.0335
   32SAPC   H3R 4274   3.879   4.277   6.592 -1.7925 -0.7335  1.7578
   32SAPC   H3S 4275   3.861   4.424   6.689 -0.8230 -1.1001  0.6729
   32SAPC   C24 4276   3.914   4.249   6.804 -0.5202  0.7014  0.7199
   32SAPC   H4R 4277   3.945   4.314   6.888 -2.0024  1.9158  0.3759
   32SAPC   H4S 4278   3.965   4.151   6.790  0.2874  1.3248 -0.9325
   32SAPC   C25 4279   3.768   4.222   6.830  0.4311  0.0432  0.2904
   32SAPC   H5R 4280   3.728   4.148   6.758 -0.5303  1.6428 -0.8987
   32SAPC   C26 4281   3.678   4.280   6.917 -0.6054 -0.9440 -0.4766
   32SAPC   H6R 4282   3.572   4.252   6.909 -0.9829  0.3940 -0.3674
   32SAPC   C27 4283   3.706   4.396   7.011 -0.7521 -0.4302  0.2235
   32SAPC   H7R 4284   3.813   4.422   6.996 -1.1587  1.0882 -0.2268
   32SAPC   H7S 4285   3.681   4.364   7.114 -0.4349 -2.9030 -0.4051
   32SAPC   C28 4286   3.621   4.515   6.967  0.0243 -0.0361 -0.2772
   32SAPC   H8R 4287   3.599   4.516   6.859 -0.4682 -0.6819 -0.1948
   32SAPC   C29 4288   3.572   4.609   7.052  0.2675  0.6475 -0.6959
   32SAPC   H9R 4289   3.513   4.697   7.021 -1.0506 -0.0151 -0.1666
   32SAPC  C210 4290   3.599   4.606   7.202  0.0466 -0.3418 -0.5187
   32SAPC  H10R 4291   3.615   4.713   7.226  0.7401 -0.2729 -1.2473
   32SAPC  H10S 4292   3.688   4.546   7.231 -0.9753 -0.5057  2.6077
   32SAPC  C211 4293   3.480   4.565   7.289 -0.0976 -0.0002  0.3538
   32SAPC  H11R 4294   3.400   4.506   7.242  0.9596 -0.2219 -1.2562
   32SAPC  C212 4295   3.476   4.598   7.419  0.4384 -0.1458  0.9674
   32SAPC  H12R 4296   3.405   4.545   7.484  0.7504  0.2647  1.6508
   32SAPC  C213 4297   3.579   4.671   7.498  0.6369 -0.0060 -0.5276
   32SAPC  H13R 4298   3.663   4.706   7.435 -0.8962  2.8652 -1.1515
   32SAPC  H13S 4299   3.630   4.608   7.575  1.9131 -1.0173 -2.1338
   32SAPC  C214 4300   3.509   4.785   7.574  0.4530 -0.0695 -0.1407
   32SAPC  H14R 4301   3.446   4.748   7.656  0.9454  1.6092  1.0462
   32SAPC  C215 4302   3.517   4.919   7.561  0.3134  0.1499 -0.3334
   32SAPC  H15R 4303   3.452   4.987   7.618 -0.8750 -0.6351 -0.7075
   32SAPC  C216 4304   3.616   4.989   7.466  0.3852 -1.1417 -1.0284
   32SAPC  H16R 4305   3.711   4.932   7.462  0.8179 -0.7699  1.7701
   32SAPC  H16S 4306   3.637   5.087   7.514 -3.6654 -0.6928  0.1549
   32SAPC  C217 4307   3.558   5.010   7.326  0.3612 -0.6670 -0.2023
   32SAPC  H17R 4308   3.493   5.099   7.332  3.0402  1.3564  1.1044
   32SAPC  H17S 4309   3.507   4.920   7.287 -1.7811  0.5026 -0.2202
   32SAPC  C218 4310   3.670   5.044   7.230  0.2008 -0.4390  0.5194
   32SAPC  H18R 4311   3.758   4.977   7.235  0.8402  0.3383 -0.0590
   32SAPC  H18S 4312   3.713   5.144   7.253 -0.0169 -0.0614 -0.6402
   32SAPC  C219 4313   3.628   5.040   7.082  0.1380 -0.1673 -0.2872
   32SAPC  H19R 4314   3.547   5.115   7.070  1.7736  2.4024  2.9540
   32SAPC  H19S 4315   3.586   4.939   7.063 -0.9041  0.4820 -1.5980
   32SAPC  C220 4316   3.739   5.073   6.974  0.5876  0.0800  0.1688
   32SAPC  H20R 4317   3.698   5.073   6.871  1.4483 -1.4114 -0.2055
   32SAPC  H20S 4318   3.816   4.992   6.975 -0.4655 -0.9679  2.3203
   32SAPC  H20T 4319   3.795   5.166   7.001  0.9457  0.3871 -1.4868
   32SAPC   C33 4320   4.787   4.088   6.782  0.1705  0.1940  0.1017
   32SAPC   H3X 4321   4.858   4.047   6.708 -2.1980 -3.3667 -0.4408
   32SAPC   H3Y 4322   4.712   4.008   6.796 -1.4711  1.8697  1.4930
   32SAPC   C34 4323   4.851   4.110   6.916 -0.2256 -0.1334 -0.2365
   32SAPC   H4X 4324   4.769   4.143   6.984  0.4631  1.4701 -0.1377
   32SAPC   H4Y 4325   4.925   4.193   6.920 -0.4978  0.0733  1.6532
   32SAPC   C35 4326   4.920   3.987   6.982 -0.6335 -1.0558 -0.8938
   32SAPC   H5X 4327   5.011   3.960   6.925  0.7902  5.2490 -2.3030
   32SAPC   H5Y 4328   4.858   3.895   6.980 -0.0659 -1.7008  3.1012
   32SAPC   C36 4329   4.948   4.001   7.130 -0.7109 -0.3540  0.0579
   32SAPC   H6X 4330   4.977   3.902   7.173  1.4449 -0.7431 -2.1220
   32SAPC   H6Y 4331   4.872   4.052   7.193 -0.5330  0.9599 -0.7674
   32SAPC   C37 4332   5.074   4.091   7.151  0.8277 -0.2102  0.0542
   32SAPC   H7X 4333   5.065   4.182   7.088  2.4932 -1.2280 -1.7478
   32SAPC   H7Y 4334   5.166   4.043   7.111  1.0087 -0.3245  0.5966
   32SAPC   C38 4335   5.101   4.124   7.304  0.1326 -0.0664 -0.0575
   32SAPC   H8X 4336   5.013   4.169   7.355 -0.2272  0.6043 -1.2335
   32SAPC   H8Y 4337   5.180   4.203   7.310 -0.1138  0.0636  2.7005
   32SAPC   C39 4338   5.149   3.995   7.378 -0.1487 -0.0550 -0.0233
   32SAPC   H9X 4339   5.259   4.004   7.394 -0.3177 -1.6589  2.4868
   32SAPC   H9Y 4340   5.134   3.911   7.306 -0.0310 -1.9236  2.0350
   32SAPC  C310 4341   5.074   3.964   7.510 -0.5924 -0.5481  0.5548
   32SAPC  H10X 4342   5.069   4.052   7.579  2.7752  0.1698  0.0938
   32SAPC  H10Y 4343   5.134   3.887   7.564  1.2528  1.3284  1.3378
   32SAPC  C311 4344   4.924   3.913   7.494 -0.2243 -0.6397  0.2618
   32SAPC  H11X 4345   4.911   3.815   7.444 -1.9075  0.3207 -1.2838
   32SAPC  H11Y 4346   4.878   3.985   7.424 -1.2850 -0.4953  1.0891
   32SAPC  C312 4347   4.846   3.917   7.631 -0.4725  0.1185 -0.8376
   32SAPC  H12X 4348   4.741   3.950   7.618 -1.1600 -0.7945  1.7077
   32SAPC  H12Y 4349   4.909   3.977   7.700  0.2399  2.0423 -3.0134
   32SAPC  C313 4350   4.842   3.779   7.701  0.2923 -0.1194  0.0051
   32SAPC  H13X 4351   4.942   3.733   7.717  0.0226 -0.2081  1.5652
   32SAPC  H13Y 4352   4.778   3.718   7.633 -0.1076  0.5501 -0.2197
   32SAPC  C314 4353   4.783   3.794   7.843 -0.0117  0.6526  0.2009
   32SAPC  H14X 4354   4.721   3.884   7.862 -0.7252 -0.2738  2.6103
   32SAPC  H14Y 4355   4.875   3.799   7.905  1.2538 -1.0684 -1.3894
   32SAPC  C315 4356   4.693   3.679   7.888 -0.4401 -0.8761 -0.2049
   32SAPC  H15X 4357   4.601   3.667   7.827  1.4684 -2.6860 -3.0066
   32SAPC  H15Y 4358   4.676   3.710   7.993 -0.6341  1.9853 -1.0077
   32SAPC  C316 4359   4.777   3.554   7.885 -0.6921  0.2430  0.1696
   32SAPC  H16X 4360   4.865   3.556   7.953  0.1373  1.7847 -0.8895
   32SAPC  H16Y 4361   4.822   3.558   7.784 -1.1847  1.4928 -0.0190
   32SAPC  C317 4362   4.695   3.424   7.902 -0.3009 -0.0318  0.4368
   32SAPC  H17X 4363   4.757   3.340   7.863  0.1296  0.0955  0.8393
   32SAPC  H17Y 4364   4.606   3.423   7.835  1.2563  1.7306 -1.7544
   32SAPC  C318 4365   4.651   3.390   8.045 -0.7929  0.3426  0.8723
   32SAPC  H18X 4366   4.747   3.393   8.101 -0.0083  2.4006 -0.4631
   32SAPC  H18Y 4367   4.614   3.286   8.060 -0.6687  0.3455  1.2090
   32SAPC  H18Z 4368   4.575   3.460   8.087 -0.8512 -0.9360  3.0494
   33POPC     N 4369   0.505   6.374  10.606 -0.7811 -0.3410  1.0021
   33POPC   C12 4370   0.517   6.233  10.570 -0.8587  0.1490  0.1862
   33POPC  H12A 4371   0.420   6.188  10.555 -1.5799  1.8112 -0.4549
   33POPC  H12B 4372   0.550   6.178  10.657 -0.6308  0.4742  0.3106
   33POPC   C13 4373   0.648   6.425  10.644 -0.1406  0.1094  0.0674
   33POPC  H13A 4374   0.646   6.518  10.699  0.5353 -0.6974  1.5176
   33POPC  H13B 4375   0.699   6.358  10.712  0.0142  1.2769  1.1454
   33POPC  H13C 4376   0.712   6.432  10.557  2.2887  0.1297  1.7457
   33POPC   C14 4377   0.455   6.458  10.488  0.4601  0.8881  0.1005
   33POPC  H14A 4378   0.437   6.563  10.509  0.3121  1.0791 -0.9321
   33POPC  H14B 4379   0.523   6.453  10.404  0.5305 -2.3527  0.2364
   33POPC  H14C 4380   0.366   6.407  10.454  1.4748  0.6294 -2.4090
   33POPC   C15 4381   0.411   6.412  10.718  0.0495  0.2765  0.6052
   33POPC  H15A 4382   0.404   6.520  10.725 -0.8868  0.1403  2.3820
   33POPC  H15B 4383   0.442   6.379  10.816 -1.0453  0.2700  0.9676
   33POPC  H15C 4384   0.310   6.381  10.695 -0.5896  0.0412  3.3983
   33POPC   C11 4385   0.619   6.198  10.447  0.2611  0.5928 -1.3805
   33POPC  H11A 4386   0.603   6.265  10.360  0.2520  2.1856 -0.1747
   33POPC  H11B 4387   0.597   6.093  10.417  0.1971  0.5950 -1.3419
   33POPC     P 4388   0.844   6.094  10.541 -0.3055 -0.2321  0.0323
   33POPC   O13 4389   0.759   6.017  10.634  0.0363 -0.3104 -0.5606
   33POPC   O14 4390   0.956   6.168  10.600 -0.4127  0.1816 -0.0921
   33POPC   O12 4391   0.753   6.209  10.489 -0.0117 -0.0897  0.3267
   33POPC   O11 4392   0.879   6.011  10.411 -0.4967 -0.6736 -0.5514
   33POPC    C1 4393   0.890   6.074  10.282 -0.1402 -0.0977  0.3786
   33POPC    HA 4394   0.878   5.996  10.203 -0.5327  1.9658 -1.7113
   33POPC    HB 4395   0.807   6.147  10.266 -1.0081 -1.1291  0.0503
   33POPC    C2 4396   1.028   6.144  10.249  0.4337  0.4542 -0.3434
   33POPC    HS 4397   1.066   6.193  10.341  0.6738  1.0205 -0.7375
   33POPC   O21 4398   1.003   6.243  10.146  0.0759 -0.4738  0.7004
   33POPC   C21 4399   1.085   6.347  10.135  0.7083  0.0165 -0.6077
   33POPC   O22 4400   1.192   6.362  10.188 -0.3124 -0.1290  0.1134
   33POPC   C22 4401   1.014   6.443  10.037 -0.4737  0.5793  0.1506
   33POPC   H2R 4402   0.906   6.447  10.061 -0.9134  0.0742 -1.6270
   33POPC   H2S 4403   1.029   6.389   9.941  0.0870  0.6703  0.1859
   33POPC    C3 4404   1.132   6.038  10.201 -0.1136 -0.1481 -0.3548
   33POPC    HX 4405   1.146   5.965  10.284 -1.2044  0.1378  0.0999
   33POPC    HY 4406   1.227   6.094  10.192 -0.9050  1.2526 -0.2750
   33POPC   O31 4407   1.086   5.961  10.082 -0.0304 -0.1511  0.3848
   33POPC   C31 4408   1.100   5.830  10.082 -0.0787  0.6952  0.0502
   33POPC   O32 4409   1.154   5.769  10.178  0.7664 -0.1354 -0.0617
   33POPC   C32 4410   1.049   5.765   9.950  0.3510  0.5186 -0.6077
   33POPC   H2X 4411   0.950   5.812   9.930 -0.2276 -0.5207 -0.2414
   33POPC   H2Y 4412   1.021   5.660   9.971  0.7829  0.4105 -0.5726
   33POPC   C23 4413   1.064   6.594  10.035 -0.0692  0.0199  0.2286
   33POPC   H3R 4414   1.026   6.658  10.118 -0.8387 -0.7560  0.4897
   33POPC   H3S 4415   1.008   6.644   9.953 -0.3978 -0.2706  0.2702
   33POPC   C24 4416   1.213   6.611  10.000  0.5668  0.6317 -0.2537
   33POPC   H4R 4417   1.278   6.567  10.079  0.1213  0.7932  0.2048
   33POPC   H4S 4418   1.245   6.716   9.978  1.4761  0.4096 -0.0356
   33POPC   C25 4419   1.252   6.536   9.874 -0.0128 -0.3038  0.2001
   33POPC   H5R 4420   1.225   6.428   9.882  0.9428 -0.5628  0.0473
   33POPC   H5S 4421   1.360   6.536   9.849  0.2109 -2.9385  0.9182
   33POPC   C26 4422   1.186   6.607   9.756 -0.0990 -0.5372 -0.1606
   33POPC   H6R 4423   1.215   6.714   9.750 -1.2165 -0.2483 -0.7417
   33POPC   H6S 4424   1.075   6.609   9.760 -0.0772  2.1570  2.5985
   33POPC   C27 4425   1.222   6.544   9.615  0.1917  0.1853 -0.4239
   33POPC   H7R 4426   1.210   6.434   9.632 -1.0479  0.4109  0.2881
   33POPC   H7S 4427   1.326   6.572   9.592 -0.4930  4.4406  0.8946
   33POPC   C28 4428   1.140   6.599   9.500 -0.3709  0.9706  0.0570
   33POPC   H8R 4429   1.032   6.592   9.523 -0.2999  0.5198  0.2665
   33POPC   H8S 4430   1.149   6.541   9.406 -0.8127 -0.0983  0.6631
   33POPC   C29 4431   1.173   6.749   9.476 -0.0835 -0.2098  0.3108
   33POPC   H91 4432   1.108   6.821   9.528 -2.1014 -1.4428 -0.3880
   33POPC  C210 4433   1.270   6.793   9.398 -0.1604 -0.1904  0.1611
   33POPC  H101 4434   1.288   6.902   9.394  0.0981 -0.2104  0.6920
   33POPC  C211 4435   1.362   6.704   9.312 -0.2174  0.4220  0.3687
   33POPC  H11R 4436   1.314   6.604   9.304 -0.4027  0.5455 -0.1090
   33POPC  H11S 4437   1.459   6.693   9.365  0.0218 -1.7731 -0.4135
   33POPC  C212 4438   1.391   6.747   9.166  0.5974  0.7001 -0.2677
   33POPC  H12R 4439   1.429   6.851   9.171  0.2916  0.8492 -0.8753
   33POPC  H12S 4440   1.295   6.759   9.111 -0.5201  4.0165  2.0779
   33POPC  C213 4441   1.484   6.647   9.110 -0.0870 -0.7824  0.9114
   33POPC  H13R 4442   1.422   6.557   9.096  1.2278 -1.6564  0.4813
   33POPC  H13S 4443   1.566   6.614   9.178 -0.1079  0.1042  1.3795
   33POPC  C214 4444   1.537   6.712   8.972  0.1816  0.0728 -0.0450
   33POPC  H14R 4445   1.599   6.803   8.989  2.5641 -0.4806 -4.1269
   33POPC  H14S 4446   1.453   6.750   8.910  1.5560  1.1519 -1.3375
   33POPC  C215 4447   1.620   6.608   8.893  0.0802 -0.0857 -0.0505
   33POPC  H15R 4448   1.643   6.658   8.797  1.1439 -1.5022 -0.5796
   33POPC  H15S 4449   1.555   6.522   8.868  2.4346 -1.9595 -0.1797
   33POPC  C216 4450   1.756   6.560   8.949 -0.0801 -0.8037  0.5407
   33POPC  H16R 4451   1.732   6.517   9.049 -1.1705  0.5651  0.8997
   33POPC  H16S 4452   1.821   6.645   8.979 -0.7555  0.2337 -0.8395
   33POPC  C217 4453   1.823   6.454   8.862 -0.5375  0.1208 -0.5275
   33POPC  H17R 4454   1.765   6.362   8.883  1.6744 -0.9477  1.3060
   33POPC  H17S 4455   1.924   6.433   8.904  0.2048 -0.9952 -2.6954
   33POPC  C218 4456   1.851   6.491   8.720 -0.4069  0.4522  0.3144
   33POPC  H18R 4457   1.907   6.588   8.724  3.0801 -1.3762 -0.0824
   33POPC  H18S 4458   1.756   6.513   8.666  1.2067  2.1715 -2.0344
   33POPC  H18T 4459   1.906   6.417   8.659  0.7835  1.4689  0.1097
   33POPC   C33 4460   1.136   5.765   9.828  0.5379  0.4564  0.1750
   33POPC   H3X 4461   1.225   5.700   9.836  0.4826  0.4121  0.4537
   33POPC   H3Y 4462   1.183   5.862   9.802  3.8868 -0.8506  0.9466
   33POPC   C34 4463   1.073   5.722   9.691  0.2037  0.6028 -0.6206
   33POPC   H4X 4464   0.972   5.768   9.687  0.6293  1.5081 -1.2499
   33POPC   H4Y 4465   1.052   5.613   9.687  0.6357  0.5446 -1.6685
   33POPC   C35 4466   1.154   5.765   9.577 -0.5288 -0.3780 -0.2244
   33POPC   H5X 4467   1.257   5.733   9.603 -0.0817  0.5259 -0.8329
   33POPC   H5Y 4468   1.163   5.876   9.577  0.2405 -0.4298 -0.6057
   33POPC   C36 4469   1.104   5.710   9.447  0.5108  0.2078  0.2808
   33POPC   H6X 4470   0.996   5.732   9.434  1.0599  2.6121 -0.6814
   33POPC   H6Y 4471   1.094   5.599   9.443 -0.2175  0.2989 -2.9306
   33POPC   C37 4472   1.196   5.750   9.324  0.1465  0.3677  0.7896
   33POPC   H7X 4473   1.299   5.721   9.354 -0.3623 -0.3964  1.8595
   33POPC   H7Y 4474   1.191   5.860   9.314 -0.2980  0.2802  0.0057
   33POPC   C38 4475   1.159   5.681   9.192 -0.2301 -0.2944 -0.2748
   33POPC   H8X 4476   1.133   5.576   9.216 -0.9122 -0.1763 -0.4610
   33POPC   H8Y 4477   1.251   5.675   9.130  0.0971 -1.0074  0.2711
   33POPC   C39 4478   1.055   5.751   9.106  0.2971 -0.6708  0.4526
   33POPC   H9X 4479   1.074   5.860   9.114 -1.8031 -0.1065 -1.2672
   33POPC   H9Y 4480   0.955   5.748   9.155  0.9615 -2.4639  1.8498
   33POPC  C310 4481   1.037   5.710   8.959 -0.6138 -0.2848  0.3461
   33POPC  H10X 4482   0.966   5.775   8.903  0.4951  0.3363 -0.3744
   33POPC  H10Y 4483   0.971   5.621   8.973 -0.5907 -0.4346 -0.4366
   33POPC  C311 4484   1.157   5.668   8.871  0.2908 -0.4101 -0.1751
   33POPC  H11X 4485   1.199   5.579   8.922 -0.4310 -1.8273 -1.9589
   33POPC  H11Y 4486   1.236   5.745   8.858  0.5158 -0.6415 -0.1701
   33POPC  C312 4487   1.137   5.616   8.723  0.5309  0.5631 -1.1918
   33POPC  H12X 4488   1.080   5.693   8.667 -0.2835 -0.4660 -1.8276
   33POPC  H12Y 4489   1.071   5.527   8.725  0.1827  0.8239 -0.9093
   33POPC  C313 4490   1.263   5.578   8.652 -1.0215 -0.1843 -0.4185
   33POPC  H13X 4491   1.302   5.480   8.687 -3.3255 -0.2418  2.3672
   33POPC  H13Y 4492   1.344   5.646   8.687  1.4066 -2.6141 -1.0483
   33POPC  C314 4493   1.242   5.575   8.500  0.3731 -0.2304  0.6442
   33POPC  H14X 4494   1.189   5.662   8.456  0.1443 -0.8524 -0.3282
   33POPC  H14Y 4495   1.179   5.486   8.483  0.0621 -0.1209  1.2057
   33POPC  C315 4496   1.374   5.552   8.423 -0.6233 -0.1494 -0.5694
   33POPC  H15X 4497   1.415   5.454   8.453  1.4390  0.8480  0.0185
   33POPC  H15Y 4498   1.444   5.627   8.465 -0.0828 -1.3227  0.7032
   33POPC  C316 4499   1.363   5.562   8.272  1.0185 -0.1443  1.0387
   33POPC  H16X 4500   1.335   5.660   8.227 -1.0342 -2.1558 -2.5373
   33POPC  H16Y 4501   1.283   5.495   8.234  0.5826  0.8529  0.1569
   33POPC  H16Z 4502   1.461   5.532   8.229  0.6247 -0.9889  0.7121
   34POPC     N 4503   6.813   3.587  10.991 -0.6098 -0.2299 -0.3419
   34POPC   C12 4504   6.934   3.499  10.972  1.0105  0.0645  0.1721
   34POPC  H12A 4505   6.895   3.424  10.904  1.7686  0.6685 -0.9549
   34POPC  H12B 4506   6.963   3.451  11.064 -1.0817  2.1543  2.0702
   34POPC   C13 4507   6.721   3.520  11.080  0.2355  0.6198  0.1262
   34POPC  H13A 4508   6.642   3.588  11.106  0.0807  0.1396  0.9887
   34POPC  H13B 4509   6.682   3.430  11.034  1.1252  0.3093 -0.0553
   34POPC  H13C 4510   6.769   3.492  11.173 -0.1314 -0.8318 -0.0946
   34POPC   C14 4511   6.856   3.719  11.053 -0.0428  0.0424 -0.1132
   34POPC  H14A 4512   6.914   3.696  11.141  0.4384  0.3253 -0.3501
   34POPC  H14B 4513   6.921   3.772  10.984 -0.6599 -1.4387 -1.9044
   34POPC  H14C 4514   6.769   3.782  11.064  1.1814  1.7331  0.3676
   34POPC   C15 4515   6.745   3.626  10.861  0.4876  0.2085  0.1955
   34POPC  H15A 4516   6.823   3.636  10.787  2.3652 -1.5400  1.8050
   34POPC  H15B 4517   6.686   3.716  10.866 -2.2696 -1.4984  1.5572
   34POPC  H15C 4518   6.678   3.547  10.830 -1.6904  2.4609 -1.1945
   34POPC   C11 4519   7.052   3.558  10.891  0.1699  0.2554  1.1969
   34POPC  H11A 4520   7.136   3.486  10.905  2.3007  2.1608 -0.9110
   34POPC  H11B 4521   7.088   3.658  10.924 -0.5769  1.2015 -0.7272
   34POPC     P 4522   7.103   3.534  10.630 -0.3830 -0.3142 -0.3278
   34POPC   O13 4523   7.206   3.434  10.667  0.8721 -0.0446 -0.6795
   34POPC   O14 4524   7.149   3.660  10.573  0.2425  0.4524 -0.3403
   34POPC   O12 4525   7.007   3.567  10.753 -0.0689 -0.2947 -0.2917
   34POPC   O11 4526   7.016   3.455  10.520  0.2511 -0.8465 -0.1224
   34POPC    C1 4527   6.876   3.482  10.511 -0.6743  0.1605  0.5915
   34POPC    HA 4528   6.845   3.587  10.530 -1.1102  0.0018  0.7810
   34POPC    HB 4529   6.822   3.411  10.577  0.2546  1.6378  3.0772
   34POPC    C2 4530   6.829   3.452  10.370 -0.7931 -0.9252  0.4547
   34POPC    HS 4531   6.732   3.506  10.373 -0.1490  0.2290  2.2920
   34POPC   O21 4532   6.805   3.312  10.346 -0.1588  0.2829 -0.1888
   34POPC   C21 4533   6.717   3.279  10.256  0.2382  0.3744  0.4799
   34POPC   O22 4534   6.643   3.356  10.204 -0.2841  0.1548  0.2684
   34POPC   C22 4535   6.742   3.139  10.207 -0.1965  0.7029  0.1760
   34POPC   H2R 4536   6.804   3.078  10.277 -1.0077 -1.0900 -0.6048
   34POPC   H2S 4537   6.808   3.146  10.117 -0.3015  1.0134  0.1219
   34POPC    C3 4538   6.924   3.519  10.268  0.0160  0.1360 -0.4085
   34POPC    HX 4539   7.030   3.488  10.282 -1.1797 -3.1068  3.5017
   34POPC    HY 4540   6.934   3.629  10.281  1.3617  0.4297 -3.1986
   34POPC   O31 4541   6.889   3.502  10.133 -0.6624  0.9903 -0.5569
   34POPC   C31 4542   6.800   3.579  10.083  0.2461 -0.0182  0.0140
   34POPC   O32 4543   6.748   3.674  10.141 -0.2944  0.1462 -0.3080
   34POPC   C32 4544   6.748   3.523   9.955  0.0402 -0.2331 -0.2462
   34POPC   H2X 4545   6.682   3.439   9.986  1.3157 -0.8094  1.0449
   34POPC   H2Y 4546   6.837   3.481   9.904  1.5032  1.9406  0.3804
   34POPC   C23 4547   6.610   3.056  10.194 -0.1075 -0.3142 -0.2556
   34POPC   H3R 4548   6.542   3.077  10.280 -3.3815 -2.2743 -2.1528
   34POPC   H3S 4549   6.638   2.948  10.195 -1.3027 -0.6454  1.1687
   34POPC   C24 4550   6.536   3.084  10.060 -0.7405 -0.8395  0.1975
   34POPC   H4R 4551   6.609   3.073   9.978  0.3678  0.0651  1.0300
   34POPC   H4S 4552   6.508   3.191  10.054  0.2506 -0.6242 -0.9920
   34POPC   C25 4553   6.419   2.989  10.033  0.5040 -0.4039 -0.9326
   34POPC   H5R 4554   6.355   3.015  10.120  0.8299  1.4189 -1.1936
   34POPC   H5S 4555   6.453   2.885  10.047  1.8040  0.1296  0.0769
   34POPC   C26 4556   6.353   3.011   9.898 -0.0738 -0.3140  0.4898
   34POPC   H6R 4557   6.340   3.120   9.882 -0.0881 -0.5507 -1.2861
   34POPC   H6S 4558   6.256   2.958   9.892 -1.3679  1.9252  0.6510
   34POPC   C27 4559   6.430   2.934   9.788  0.8094  0.3739 -0.0813
   34POPC   H7R 4560   6.426   2.826   9.812 -2.3720  0.4961  0.4668
   34POPC   H7S 4561   6.535   2.970   9.780  2.1310 -3.0699  0.2777
   34POPC   C28 4562   6.367   2.951   9.651 -0.7109 -0.4518  0.0293
   34POPC   H8R 4563   6.257   2.934   9.655 -0.5924 -1.3456 -0.2890
   34POPC   H8S 4564   6.411   2.880   9.578  0.7625  0.1565  0.2992
   34POPC   C29 4565   6.388   3.095   9.602  0.5385  0.5418 -0.8682
   34POPC   H91 4566   6.384   3.166   9.686  0.5768 -0.5362  0.0759
   34POPC  C210 4567   6.402   3.132   9.473  0.0097 -0.4127 -0.1052
   34POPC  H101 4568   6.417   3.236   9.442  0.5779 -1.1145 -2.3857
   34POPC  C211 4569   6.405   3.036   9.352  0.6922 -0.5502  0.3773
   34POPC  H11R 4570   6.355   2.936   9.359  0.3229 -0.3751  0.2898
   34POPC  H11S 4571   6.511   3.010   9.335  1.3298  1.8194  0.3970
   34POPC  C212 4572   6.341   3.093   9.229  0.7384  0.2192  0.4083
   34POPC  H12R 4573   6.235   3.118   9.251  0.2786 -1.7115  0.5199
   34POPC  H12S 4574   6.324   3.013   9.155  1.7431  0.4102 -0.0526
   34POPC  C213 4575   6.410   3.207   9.156  0.2570 -0.2163 -0.1760
   34POPC  H13R 4576   6.514   3.179   9.129 -0.4090 -1.0223 -2.0253
   34POPC  H13S 4577   6.415   3.292   9.228  0.7171  0.0432 -0.5118
   34POPC  C214 4578   6.324   3.248   9.033 -0.2291 -0.0103 -0.4561
   34POPC  H14R 4579   6.370   3.341   8.992 -1.4006 -0.1734 -2.2916
   34POPC  H14S 4580   6.224   3.281   9.069 -1.0212 -0.2442 -2.2759
   34POPC  C215 4581   6.329   3.141   8.922  0.7506  0.0551 -0.8879
   34POPC  H15R 4582   6.296   3.041   8.958 -1.9655  1.3510  0.5052
   34POPC  H15S 4583   6.435   3.122   8.896  0.6967 -3.0764  0.7099
   34POPC  C216 4584   6.245   3.177   8.804  0.2450  0.0659  0.5357
   34POPC  H16R 4585   6.143   3.216   8.826 -0.0857  1.5646 -2.9842
   34POPC  H16S 4586   6.218   3.080   8.755 -0.9943  1.7839 -2.4504
   34POPC  C217 4587   6.317   3.274   8.704 -0.2172  0.0957 -0.1974
   34POPC  H17R 4588   6.382   3.337   8.767  0.1014  1.6397 -1.9696
   34POPC  H17S 4589   6.241   3.342   8.658  0.9670  2.7207  1.5077
   34POPC  C218 4590   6.401   3.187   8.602 -0.6342 -0.3454  0.3664
   34POPC  H18R 4591   6.462   3.113   8.658  0.9575  0.0459 -0.7658
   34POPC  H18S 4592   6.472   3.248   8.542  1.1870 -0.4388  2.2628
   34POPC  H18T 4593   6.329   3.132   8.539 -0.8108  0.8649 -0.5221
   34POPC   C33 4594   6.678   3.631   9.874  0.2712 -0.4395 -0.2221
   34POPC   H3X 4595   6.747   3.713   9.846 -0.2055  1.2044  3.0010
   34POPC   H3Y 4596   6.596   3.681   9.930  0.1512  0.1715 -0.9285
   34POPC   C34 4597   6.636   3.561   9.741  0.3586 -0.2820  0.4934
   34POPC   H4X 4598   6.577   3.634   9.682  2.9659  0.9768 -0.7438
   34POPC   H4Y 4599   6.580   3.465   9.746  0.7122 -0.4354  3.1395
   34POPC   C35 4600   6.756   3.552   9.644  0.8329 -0.0514  0.2716
   34POPC   H5X 4601   6.803   3.456   9.672  1.6751 -0.5929 -2.6497
   34POPC   H5Y 4602   6.824   3.640   9.650  3.0215 -1.5625 -1.1853
   34POPC   C36 4603   6.708   3.526   9.498 -0.3094  0.4679 -0.3435
   34POPC   H6X 4604   6.726   3.622   9.445 -1.7844  0.8585 -0.1636
   34POPC   H6Y 4605   6.598   3.510   9.495 -0.1610 -0.5100 -1.4868
   34POPC   C37 4606   6.763   3.395   9.439  1.0199  0.5857  0.2209
   34POPC   H7X 4607   6.745   3.305   9.502 -1.6238  1.6499  1.1095
   34POPC   H7Y 4608   6.874   3.393   9.443  1.0317  0.4667 -0.1231
   34POPC   C38 4609   6.717   3.361   9.298  0.3084 -0.1025 -0.3409
   34POPC   H8X 4610   6.605   3.362   9.298  0.2403  3.6187 -0.7621
   34POPC   H8Y 4611   6.748   3.262   9.258 -2.7322 -0.2207 -2.8688
   34POPC   C39 4612   6.741   3.467   9.193  0.1050 -0.2809  0.1628
   34POPC   H9X 4613   6.850   3.490   9.194 -0.0004  0.3295  2.2229
   34POPC   H9Y 4614   6.690   3.557   9.233  2.1363 -0.1007  2.6179
   34POPC  C310 4615   6.698   3.440   9.053 -0.5482 -0.0830  0.2733
   34POPC  H10X 4616   6.590   3.411   9.058 -0.9697  1.4708  0.5584
   34POPC  H10Y 4617   6.764   3.360   9.013  0.4818  1.3294 -0.9317
   34POPC  C311 4618   6.709   3.559   8.956  0.3304  0.1641 -0.3719
   34POPC  H11X 4619   6.810   3.603   8.969 -0.0542  1.5556 -1.7514
   34POPC  H11Y 4620   6.646   3.635   9.008  2.8297  1.3726  1.1255
   34POPC  C312 4621   6.677   3.535   8.805  0.3594  0.4045  0.2662
   34POPC  H12X 4622   6.567   3.527   8.792  0.2940  2.0451 -0.5746
   34POPC  H12Y 4623   6.736   3.449   8.766  0.9691  1.7550 -2.0276
   34POPC  C313 4624   6.721   3.659   8.723  0.1156  0.3754  0.5001
   34POPC  H13X 4625   6.823   3.684   8.762  0.0110 -0.7262  1.5507
   34POPC  H13Y 4626   6.648   3.736   8.758  0.7801  1.3975 -0.3014
   34POPC  C314 4627   6.731   3.632   8.575 -0.8637  0.3151 -0.5836
   34POPC  H14X 4628   6.627   3.610   8.543 -1.7740  2.7457  0.4480
   34POPC  H14Y 4629   6.793   3.541   8.563  0.1010  1.1149 -1.8710
   34POPC  C315 4630   6.796   3.752   8.497  0.6453 -0.9975  0.2151
   34POPC  H15X 4631   6.901   3.775   8.525  0.3039  2.8151 -1.0551
   34POPC  H15Y 4632   6.729   3.834   8.528  0.4819 -0.8281 -0.5630
   34POPC  C316 4633   6.778   3.740   8.344  0.4372  0.0673 -0.2402
   34POPC  H16X 4634   6.802   3.638   8.306  1.2227 -0.7959  2.3741
   34POPC  H16Y 4635   6.838   3.823   8.299  1.3758 -1.1448 -1.3259
   34POPC  H16Z 4636   6.667   3.744   8.342  0.4223  0.2778  0.6953
   35POPC     N 4637   6.763   2.685  11.096  0.5206  0.1454 -0.3928
   35POPC   C12 4638   6.793   2.563  11.018  0.4356  0.2796 -0.0710
   35POPC  H12A 4639   6.764   2.574  10.915 -2.1249 -0.7432  0.4566
   35POPC  H12B 4640   6.739   2.473  11.045  1.3885 -0.5027 -0.6799
   35POPC   C13 4641   6.812   2.812  11.027 -0.5417  0.1736  0.4442
   35POPC  H13A 4642   6.818   2.888  11.103  0.4576 -0.9030  1.4860
   35POPC  H13B 4643   6.913   2.791  10.994 -0.1435  1.2249  0.9465
   35POPC  H13C 4644   6.753   2.849  10.944  1.8939  1.4803 -0.8326
   35POPC   C14 4645   6.610   2.704  11.103 -0.1130 -0.1817 -0.5105
   35POPC  H14A 4646   6.571   2.630  11.170 -0.7424  0.6940  0.1176
   35POPC  H14B 4647   6.598   2.803  11.146  1.7231 -0.2398  0.2370
   35POPC  H14C 4648   6.555   2.694  11.010 -0.2583  0.9500 -0.5686
   35POPC   C15 4649   6.819   2.663  11.240  0.7184 -0.2271  0.0182
   35POPC  H15A 4650   6.776   2.743  11.298  2.1491  0.7125 -0.1951
   35POPC  H15B 4651   6.926   2.668  11.250  1.1642 -3.6325 -1.5236
   35POPC  H15C 4652   6.788   2.567  11.280 -0.1178 -0.2599 -0.6641
   35POPC   C11 4653   6.942   2.520  11.019 -0.6658 -0.4983  0.1440
   35POPC  H11A 4654   6.953   2.433  10.952 -0.2424 -0.4019  0.0848
   35POPC  H11B 4655   6.983   2.503  11.121  1.8249  1.5573 -0.3964
   35POPC     P 4656   7.173   2.615  10.934 -0.1409  0.3047  0.1744
   35POPC   O13 4657   7.238   2.581  11.061 -0.5046 -0.1948  0.1406
   35POPC   O14 4658   7.219   2.741  10.860  0.3475 -0.5301 -0.0736
   35POPC   O12 4659   7.012   2.625  10.955  0.0543 -0.6494 -0.1640
   35POPC   O11 4660   7.182   2.491  10.838  0.5240  0.2775 -0.3313
   35POPC    C1 4661   7.157   2.499  10.699  0.8180 -0.0250 -0.1398
   35POPC    HA 4662   7.086   2.580  10.671 -3.1993 -2.9126  0.8406
   35POPC    HB 4663   7.111   2.404  10.666 -2.2996  1.0552  0.8056
   35POPC    C2 4664   7.292   2.507  10.622  0.1715 -0.3729 -0.5005
   35POPC    HS 4665   7.373   2.526  10.696 -1.4800  0.7944  1.0959
   35POPC   O21 4666   7.289   2.620  10.538 -0.7817 -0.7921 -0.4060
   35POPC   C21 4667   7.399   2.640  10.468  0.1648 -0.1807  0.4263
   35POPC   O22 4668   7.508   2.605  10.503 -0.2079 -1.0397 -0.3609
   35POPC   C22 4669   7.359   2.701  10.331 -0.5430 -0.4242 -0.0474
   35POPC   H2R 4670   7.368   2.811  10.346 -2.0107 -0.5692  2.5215
   35POPC   H2S 4671   7.251   2.678  10.317 -0.2759 -0.9493 -1.4247
   35POPC    C3 4672   7.330   2.374  10.541  0.2208 -0.4565 -0.6139
   35POPC    HX 4673   7.320   2.291  10.615  1.2009  0.8612  1.0738
   35POPC    HY 4674   7.431   2.371  10.496  0.0652 -0.7730 -0.9428
   35POPC   O31 4675   7.247   2.358  10.429  0.0980 -0.3668  0.9173
   35POPC   C31 4676   7.170   2.254  10.421  0.7091  0.6158 -0.3544
   35POPC   O32 4677   7.151   2.167  10.509 -0.0320  0.1219  0.4839
   35POPC   C32 4678   7.115   2.235  10.279 -0.8107 -0.5842 -0.5205
   35POPC   H2X 4679   7.058   2.140  10.282 -0.4322 -0.8181 -0.6704
   35POPC   H2Y 4680   7.196   2.233  10.203  0.2888  0.2425  0.5815
   35POPC   C23 4681   7.432   2.655  10.208 -0.2124  0.0146  1.0394
   35POPC   H3R 4682   7.395   2.554  10.181 -0.4910 -0.0151  1.5203
   35POPC   H3S 4683   7.540   2.645  10.233  0.5330  0.3628 -1.7000
   35POPC   C24 4684   7.407   2.756  10.090 -0.0402  0.8322  0.0858
   35POPC   H4R 4685   7.438   2.859  10.117  1.2291  0.5511 -0.2222
   35POPC   H4S 4686   7.299   2.768  10.070  0.1709  1.2440 -0.8583
   35POPC   C25 4687   7.474   2.709   9.964  0.0206  0.2169  0.1015
   35POPC   H5R 4688   7.431   2.611   9.933 -0.0340  0.0994  0.5507
   35POPC   H5S 4689   7.583   2.697   9.985  0.0062  1.2550  0.8232
   35POPC   C26 4690   7.456   2.812   9.844  0.1904  0.1479  0.3971
   35POPC   H6R 4691   7.525   2.898   9.857  0.5516  0.3706 -2.3470
   35POPC   H6S 4692   7.357   2.860   9.835  0.7320  1.6355  1.8565
   35POPC   C27 4693   7.493   2.766   9.709  0.6269  0.6286  0.4499
   35POPC   H7R 4694   7.590   2.712   9.709  0.3162  0.0604  0.9147
   35POPC   H7S 4695   7.503   2.859   9.650  4.1292  0.6306  0.8230
   35POPC   C28 4696   7.380   2.689   9.639 -0.3558 -0.1574  0.0995
   35POPC   H8R 4697   7.344   2.606   9.703  0.9935 -0.5533  0.3863
   35POPC   H8S 4698   7.413   2.635   9.548  1.2886  0.3282  0.3615
   35POPC   C29 4699   7.257   2.774   9.602 -0.5664  0.5798 -0.5649
   35POPC   H91 4700   7.186   2.794   9.684  2.5104  0.8830  2.2622
   35POPC  C210 4701   7.245   2.831   9.478  0.0214  0.3317 -0.0093
   35POPC  H101 4702   7.147   2.871   9.451  0.8500  0.3981 -3.2479
   35POPC  C211 4703   7.327   2.823   9.353 -0.5266 -0.1921 -0.7261
   35POPC  H11R 4704   7.421   2.766   9.372 -0.2762  0.6205  0.6390
   35POPC  H11S 4705   7.364   2.926   9.333 -3.3769  1.7956  3.0764
   35POPC  C212 4706   7.263   2.785   9.225 -0.7676  0.2080  0.6499
   35POPC  H12R 4707   7.184   2.862   9.217  0.2885  1.0858 -2.4888
   35POPC  H12S 4708   7.217   2.683   9.227 -0.2382 -0.1009 -1.3766
   35POPC  C213 4709   7.354   2.792   9.095 -0.8028 -0.8519 -0.0794
   35POPC  H13R 4710   7.279   2.774   9.015 -0.7304 -0.2017 -0.2985
   35POPC  H13S 4711   7.418   2.701   9.098  0.7767  0.2384  0.3360
   35POPC  C214 4712   7.445   2.915   9.078  0.4911 -0.2480 -0.8530
   35POPC  H14R 4713   7.522   2.918   9.158 -0.2436 -1.0370 -0.0983
   35POPC  H14S 4714   7.384   3.004   9.104  0.9802  0.5354 -2.2611
   35POPC  C215 4715   7.505   2.943   8.938 -0.7217  0.3160 -0.5892
   35POPC  H15R 4716   7.571   2.855   8.924  0.7412  1.2787 -0.0815
   35POPC  H15S 4717   7.572   3.032   8.941 -1.5120  0.9028 -0.1606
   35POPC  C216 4718   7.414   2.943   8.814  0.4983 -0.2708  0.1126
   35POPC  H16R 4719   7.339   2.864   8.833 -1.0227  0.6354 -1.7930
   35POPC  H16S 4720   7.468   2.914   8.721 -1.7143  0.0588 -1.3400
   35POPC  C217 4721   7.345   3.074   8.798 -0.3868  0.0495  0.1763
   35POPC  H17R 4722   7.414   3.161   8.791 -2.8060  1.9691 -1.3938
   35POPC  H17S 4723   7.279   3.093   8.885  0.0589  0.1641  0.4980
   35POPC  C218 4724   7.265   3.091   8.670 -0.1801  0.8046  0.2904
   35POPC  H18R 4725   7.230   3.191   8.637 -3.5087 -0.8565 -1.8326
   35POPC  H18S 4726   7.180   3.021   8.651  0.0793  0.5523  0.0452
   35POPC  H18T 4727   7.343   3.060   8.597 -0.5370  0.3172  0.1099
   35POPC   C33 4728   7.015   2.348  10.234  0.9384  0.3193  0.8147
   35POPC   H3X 4729   7.078   2.421  10.181  1.0919  0.0307  0.5981
   35POPC   H3Y 4730   6.970   2.401  10.321 -1.6273 -0.6977  0.2136
   35POPC   C34 4731   6.909   2.283  10.141  0.3930  0.1448  0.0485
   35POPC   H4X 4732   6.830   2.352  10.104 -0.6078 -1.7054 -1.3872
   35POPC   H4Y 4733   6.857   2.206  10.201  1.2859  0.2152  0.9334
   35POPC   C35 4734   6.971   2.219  10.010 -0.2650 -0.3272 -0.8822
   35POPC   H5X 4735   6.894   2.166   9.949  0.3583 -3.2144  0.6539
   35POPC   H5Y 4736   7.047   2.142  10.036 -1.1307 -1.1033 -0.5781
   35POPC   C36 4737   7.042   2.319   9.918  0.7370  0.3951  0.1303
   35POPC   H6X 4738   7.150   2.298   9.932  0.1867 -1.6208  1.7816
   35POPC   H6Y 4739   7.035   2.422   9.960  2.4382  0.8275 -0.5749
   35POPC   C37 4740   6.999   2.324   9.768 -0.1609 -0.0060 -0.1104
   35POPC   H7X 4741   6.888   2.327   9.761 -0.2449 -0.5776  0.8543
   35POPC   H7Y 4742   7.039   2.231   9.722  0.5714 -0.1097  0.7181
   35POPC   C38 4743   7.052   2.451   9.703 -0.0853 -0.6038  0.0446
   35POPC   H8X 4744   7.162   2.450   9.722  0.0824 -4.0131 -0.3425
   35POPC   H8Y 4745   7.005   2.543   9.741  0.8943  0.6720 -1.6855
   35POPC   C39 4746   7.060   2.432   9.547  0.0586  0.0648  0.3329
   35POPC   H9X 4747   7.146   2.368   9.517  0.9186  1.4443 -0.2162
   35POPC   H9Y 4748   7.088   2.535   9.518  0.8494  0.5771  2.6795
   35POPC  C310 4749   6.923   2.395   9.495 -0.1604 -0.1138  0.4141
   35POPC  H10X 4750   6.852   2.480   9.507  0.8494  1.4476 -3.2351
   35POPC  H10Y 4751   6.880   2.304   9.541 -0.1878 -0.3601 -0.0864
   35POPC  C311 4752   6.926   2.382   9.340  0.4383 -0.1914 -0.3868
   35POPC  H11X 4753   6.972   2.285   9.311 -1.4648 -1.3120  0.1467
   35POPC  H11Y 4754   6.976   2.464   9.285 -0.1374  1.6979  1.7396
   35POPC  C312 4755   6.790   2.381   9.267  0.7864  0.2884  0.5009
   35POPC  H12X 4756   6.734   2.475   9.288  0.8714  0.4742 -0.0737
   35POPC  H12Y 4757   6.729   2.295   9.300 -0.2251  0.7283 -0.1704
   35POPC  C313 4758   6.805   2.365   9.118 -0.3336  0.0891  0.7890
   35POPC  H13X 4759   6.710   2.345   9.065  0.3358 -0.7961 -0.1256
   35POPC  H13Y 4760   6.866   2.275   9.091  0.5083  0.4250  1.5288
   35POPC  C314 4761   6.875   2.477   9.042  0.5466 -0.3223  0.0311
   35POPC  H14X 4762   6.902   2.549   9.123 -2.6906  0.3885  0.6358
   35POPC  H14Y 4763   6.795   2.532   8.989 -1.0905 -0.5084  2.1772
   35POPC  C315 4764   6.989   2.426   8.945  0.0872  0.7123 -0.2716
   35POPC  H15X 4765   6.946   2.353   8.873 -2.3539  0.6993  1.0785
   35POPC  H15Y 4766   7.065   2.378   9.010 -1.4622  2.1840  2.8148
   35POPC  C316 4767   7.052   2.542   8.872 -0.2031 -0.0449 -0.4491
   35POPC  H16X 4768   7.116   2.503   8.790  2.2948  0.3750  1.1884
   35POPC  H16Y 4769   7.116   2.602   8.940 -0.6989  1.4911 -1.2958
   35POPC  H16Z 4770   6.978   2.616   8.835 -1.0687 -0.2192  0.8474
   36POPC     N 4771   4.245   5.844  11.062  0.0689  0.3048 -0.1205
   36POPC   C12 4772   4.135   5.934  11.012 -0.6726  0.2580 -0.0396
   36POPC  H12A 4773   4.105   5.992  11.098 -0.7772 -1.2727  1.0183
   36POPC  H12B 4774   4.045   5.875  11.001 -0.6811  0.2462  0.0901
   36POPC   C13 4775   4.261   5.730  10.968 -0.8706  0.2528 -0.2670
   36POPC  H13A 4776   4.290   5.779  10.876 -0.4364  0.1797 -0.1690
   36POPC  H13B 4777   4.341   5.670  11.009 -1.3374  1.3211  2.4452
   36POPC  H13C 4778   4.167   5.679  10.952 -2.3372  1.5251  3.2675
   36POPC   C14 4779   4.365   5.929  11.085  0.2925  0.5103 -0.1177
   36POPC  H14A 4780   4.385   5.974  10.989  0.9629 -0.8051 -0.6293
   36POPC  H14B 4781   4.350   6.009  11.156  3.5272 -0.4725  1.8751
   36POPC  H14C 4782   4.448   5.867  11.115  0.5710  0.6693 -0.5500
   36POPC   C15 4783   4.205   5.781  11.194 -0.9515  0.5365 -0.3732
   36POPC  H15A 4784   4.182   5.859  11.266 -0.6845  1.9032 -1.7163
   36POPC  H15B 4785   4.278   5.710  11.230 -0.4476  1.3126  0.1807
   36POPC  H15C 4786   4.120   5.721  11.165 -0.6939 -0.5424  0.9980
   36POPC   C11 4787   4.158   6.002  10.878 -0.7539  0.5695 -0.6422
   36POPC  H11A 4788   4.064   6.039  10.834 -0.9250  0.0471 -0.7250
   36POPC  H11B 4789   4.197   5.928  10.805 -1.2494  0.2814 -0.6166
   36POPC     P 4790   4.236   6.248  10.919 -0.0724  0.0489  0.3955
   36POPC   O13 4791   4.358   6.317  10.959 -0.4372 -0.0225  0.6021
   36POPC   O14 4792   4.129   6.246  11.014 -0.5352 -0.5231  0.1445
   36POPC   O12 4793   4.265   6.098  10.881 -0.8395 -0.1500 -0.1239
   36POPC   O11 4794   4.180   6.321  10.788  0.0839  0.0051  0.2608
   36POPC    C1 4795   4.223   6.255  10.668  0.0352  0.2564  0.0416
   36POPC    HA 4796   4.141   6.196  10.622  0.0461  0.1433  0.1652
   36POPC    HB 4797   4.304   6.180  10.682 -1.3320 -1.1541  0.7696
   36POPC    C2 4798   4.267   6.345  10.553  0.1043  0.3805 -0.4484
   36POPC    HS 4799   4.357   6.404  10.580  0.2102  0.6957 -1.4294
   36POPC   O21 4800   4.160   6.436  10.515  0.8274  0.0331 -0.5130
   36POPC   C21 4801   4.190   6.562  10.482 -0.8803  0.5584 -0.5265
   36POPC   O22 4802   4.296   6.615  10.502 -0.3188  0.3629 -0.4900
   36POPC   C22 4803   4.072   6.634  10.434  0.9633  0.1587  0.2709
   36POPC   H2R 4804   4.097   6.742  10.442 -1.3126  0.8371 -0.8081
   36POPC   H2S 4805   4.002   6.609  10.516  3.1485  0.7629  2.4313
   36POPC    C3 4806   4.325   6.261  10.436 -0.1656 -0.0362 -0.0187
   36POPC    HX 4807   4.244   6.195  10.399  0.7550 -1.2783  0.1127
   36POPC    HY 4808   4.417   6.206  10.464 -0.6081 -0.1220  1.3335
   36POPC   O31 4809   4.358   6.342  10.327 -0.4232 -0.1715 -0.3864
   36POPC   C31 4810   4.477   6.406  10.332  0.0381  0.4014  0.4138
   36POPC   O32 4811   4.553   6.413  10.430 -0.0023  0.3111  0.6049
   36POPC   C32 4812   4.499   6.467  10.194 -0.9561 -0.7994 -0.2638
   36POPC   H2X 4813   4.508   6.385  10.120  4.0453 -1.4250  0.6515
   36POPC   H2Y 4814   4.596   6.522  10.185 -1.9502  0.9178 -0.8791
   36POPC   C23 4815   4.034   6.600  10.292  0.9673  0.2406 -0.4946
   36POPC   H3R 4816   4.125   6.588  10.229  1.1053  1.0310 -0.4525
   36POPC   H3S 4817   3.958   6.672  10.256 -1.5140 -2.5145 -1.2077
   36POPC   C24 4818   3.946   6.474  10.287 -0.0671  0.6299 -0.2455
   36POPC   H4R 4819   3.870   6.501  10.364  1.0113  1.8987  0.4319
   36POPC   H4S 4820   4.000   6.388  10.332 -1.1333  0.7211  1.3175
   36POPC   C25 4821   3.881   6.450  10.150 -0.2171 -0.0949  0.0697
   36POPC   H5R 4822   3.821   6.537  10.115 -1.4361  0.7365  3.8368
   36POPC   H5S 4823   3.809   6.369  10.172 -2.5863  1.9148  0.1632
   36POPC   C26 4824   3.978   6.413  10.039 -1.1080 -0.0547  0.1080
   36POPC   H6R 4825   4.035   6.327  10.080 -2.7132 -1.8893 -1.3269
   36POPC   H6S 4826   4.037   6.505  10.020  0.2117 -1.0323 -0.6375
   36POPC   C27 4827   3.920   6.381   9.903 -0.3270 -0.2758 -0.2476
   36POPC   H7R 4828   3.883   6.470   9.848  0.8185  0.2725 -0.1551
   36POPC   H7S 4829   3.846   6.299   9.914 -0.7023  0.0590 -0.2363
   36POPC   C28 4830   4.031   6.326   9.816 -0.4381 -0.5658  0.5666
   36POPC   H8R 4831   4.087   6.250   9.875 -0.9899 -1.0813  0.4325
   36POPC   H8S 4832   4.103   6.407   9.790 -0.0481 -0.8904  0.6325
   36POPC   C29 4833   3.981   6.254   9.697 -0.0923  0.6084 -0.5151
   36POPC   H91 4834   3.967   6.149   9.726 -0.1111  0.9077  0.5825
   36POPC  C210 4835   3.939   6.300   9.576  0.4762 -0.6750 -0.0222
   36POPC  H101 4836   3.931   6.227   9.494 -0.7828 -0.8850  0.2582
   36POPC  C211 4837   3.937   6.447   9.540  0.7952 -0.8153 -0.5105
   36POPC  H11R 4838   3.972   6.508   9.626 -0.1038 -0.7812 -0.1671
   36POPC  H11S 4839   3.829   6.472   9.534  0.9589  0.1570  0.3121
   36POPC  C212 4840   4.024   6.477   9.417 -0.4379 -0.1292  0.1560
   36POPC  H12R 4841   4.004   6.417   9.325  0.8925 -1.0330  0.4349
   36POPC  H12S 4842   4.131   6.454   9.434 -0.0828 -0.2484 -1.8923
   36POPC  C213 4843   4.010   6.629   9.384 -0.0488 -0.4988  0.0409
   36POPC  H13R 4844   4.025   6.675   9.484 -0.4116  1.4221 -0.7466
   36POPC  H13S 4845   3.905   6.651   9.353 -0.5946 -1.8721  0.7962
   36POPC  C214 4846   4.123   6.675   9.292 -0.0680 -0.0435 -0.1298
   36POPC  H14R 4847   4.213   6.618   9.323  0.2694 -0.5911 -2.0129
   36POPC  H14S 4848   4.158   6.780   9.300 -0.5512  0.3089 -2.2561
   36POPC  C215 4849   4.111   6.636   9.138  0.4851 -0.9317 -0.2497
   36POPC  H15R 4850   4.032   6.695   9.086 -2.4354 -2.0731  2.4916
   36POPC  H15S 4851   4.072   6.533   9.127 -2.6341  0.1052  0.0418
   36POPC  C216 4852   4.237   6.660   9.061  0.1304  0.8032  0.1037
   36POPC  H16R 4853   4.318   6.602   9.109  0.3972  0.4401 -0.7822
   36POPC  H16S 4854   4.257   6.769   9.073 -1.6410  1.2358 -0.5713
   36POPC  C217 4855   4.220   6.638   8.907 -0.2700 -0.1644  0.2548
   36POPC  H17R 4856   4.159   6.717   8.857  1.4332  0.0716 -1.5658
   36POPC  H17S 4857   4.162   6.546   8.888 -1.8975  0.8632  0.0776
   36POPC  C218 4858   4.361   6.620   8.844 -0.3167  0.1730  0.2746
   36POPC  H18R 4859   4.407   6.529   8.887 -0.3798  0.3617  0.7543
   36POPC  H18S 4860   4.425   6.710   8.858 -0.5104  0.6162 -1.4684
   36POPC  H18T 4861   4.342   6.620   8.735 -1.3399  1.9333  0.4200
   36POPC   C33 4862   4.394   6.571  10.156 -0.3005  0.5325 -0.6499
   36POPC   H3X 4863   4.375   6.634  10.246 -1.4336  1.7559 -1.7023
   36POPC   H3Y 4864   4.300   6.513  10.145 -0.4574  0.4455  0.8873
   36POPC   C34 4865   4.423   6.659  10.034 -0.0550  0.0557  0.4000
   36POPC   H4X 4866   4.521   6.710  10.045  0.8366 -1.2262 -1.2110
   36POPC   H4Y 4867   4.337   6.726  10.011 -0.0284  0.0748  0.3570
   36POPC   C35 4868   4.435   6.568   9.911  0.4008 -0.1093 -0.2557
   36POPC   H5X 4869   4.339   6.513   9.899  0.1600 -0.0227  1.0775
   36POPC   H5Y 4870   4.520   6.496   9.911  0.5618  0.0051 -2.4024
   36POPC   C36 4871   4.452   6.645   9.778  0.4830  0.3880  0.0932
   36POPC   H6X 4872   4.552   6.693   9.779  1.0601 -0.7117 -0.9543
   36POPC   H6Y 4873   4.378   6.728   9.775 -0.3173 -0.3103 -0.1087
   36POPC   C37 4874   4.425   6.570   9.646 -0.3942  0.5602 -0.1534
   36POPC   H7X 4875   4.425   6.637   9.557 -0.9664  0.7097 -0.0448
   36POPC   H7Y 4876   4.319   6.537   9.642 -0.1672 -0.1231 -0.5839
   36POPC   C38 4877   4.533   6.463   9.629  0.3836  0.4571  0.4201
   36POPC   H8X 4878   4.511   6.384   9.703 -0.6202  1.3791  1.1488
   36POPC   H8Y 4879   4.629   6.515   9.648 -0.9514  2.9182  0.8880
   36POPC   C39 4880   4.521   6.389   9.495 -0.5975  0.2552 -0.2420
   36POPC   H9X 4881   4.419   6.349   9.479  0.4057 -1.8832 -1.7221
   36POPC   H9Y 4882   4.590   6.304   9.478 -1.0417  0.3814 -3.0518
   36POPC  C310 4883   4.567   6.479   9.380  0.5270  0.1781 -0.0946
   36POPC  H10X 4884   4.666   6.516   9.416 -0.7739  1.6194  2.2203
   36POPC  H10Y 4885   4.500   6.566   9.366  0.5231  0.0887 -0.6794
   36POPC  C311 4886   4.570   6.405   9.244  0.2942  0.1424  0.4384
   36POPC  H11X 4887   4.469   6.372   9.212  1.6645 -2.1562 -1.7854
   36POPC  H11Y 4888   4.621   6.310   9.271  0.6882  0.4724  0.8810
   36POPC  C312 4889   4.640   6.484   9.130 -0.5357  0.1798  0.3510
   36POPC  H12X 4890   4.739   6.515   9.171  0.6345 -0.6424 -1.6976
   36POPC  H12Y 4891   4.574   6.572   9.112 -1.8533 -0.4117  2.0026
   36POPC  C313 4892   4.668   6.398   9.009  0.7183  0.4007  0.1500
   36POPC  H13X 4893   4.571   6.376   8.960 -0.5974 -0.1501  2.8297
   36POPC  H13Y 4894   4.711   6.302   9.044 -0.2045 -0.5636 -1.2418
   36POPC  C314 4895   4.763   6.482   8.922  0.3510 -0.2620 -0.5662
   36POPC  H14X 4896   4.854   6.498   8.982 -1.4191 -0.8013  2.4711
   36POPC  H14Y 4897   4.715   6.580   8.902 -0.9307 -1.0164 -1.4354
   36POPC  C315 4898   4.804   6.440   8.778 -0.5321  0.3258  0.1748
   36POPC  H15X 4899   4.867   6.349   8.788 -0.8880 -0.0980 -1.1272
   36POPC  H15Y 4900   4.870   6.520   8.739 -0.2873  0.8738  1.6587
   36POPC  C316 4901   4.682   6.402   8.694  0.6744  0.1414  0.4156
   36POPC  H16X 4902   4.616   6.491   8.693 -1.1164 -1.1359 -1.5085
   36POPC  H16Y 4903   4.633   6.309   8.730 -0.8013  0.1604 -1.3849
   36POPC  H16Z 4904   4.707   6.391   8.587 -0.1663  0.4667  0.1797
   37POPC     N 4905   4.318   6.644   5.895  0.3247 -0.4689 -0.2490
   37POPC   C12 4906   4.248   6.549   5.988 -0.3342  0.0689 -0.4592
   37POPC  H12A 4907   4.189   6.479   5.930  0.0401  1.2855 -2.4043
   37POPC  H12B 4908   4.171   6.609   6.036 -0.0147  0.8838 -0.9454
   37POPC   C13 4909   4.423   6.576   5.809  0.3620 -0.3180  0.5390
   37POPC  H13A 4910   4.453   6.636   5.725 -0.7690  1.2234  1.1884
   37POPC  H13B 4911   4.505   6.538   5.867  0.8550  2.5405  1.9065
   37POPC  H13C 4912   4.372   6.495   5.758  1.7146 -0.8789  0.0499
   37POPC   C14 4913   4.210   6.702   5.807 -0.1916  0.4255 -0.6499
   37POPC  H14A 4914   4.133   6.759   5.856 -0.8869 -1.6075  0.7856
   37POPC  H14B 4915   4.249   6.761   5.726  0.0919 -1.7824 -2.2181
   37POPC  H14C 4916   4.151   6.627   5.756 -0.7663  1.1093 -1.0054
   37POPC   C15 4917   4.391   6.759   5.961  0.0484  0.0141  0.1448
   37POPC  H15A 4918   4.337   6.809   6.039 -0.5753  0.4340 -0.5442
   37POPC  H15B 4919   4.415   6.835   5.888 -0.2819 -1.4963 -1.6348
   37POPC  H15C 4920   4.479   6.722   6.012 -0.8959 -2.1453  0.3036
   37POPC   C11 4921   4.337   6.474   6.097  0.6173  0.1963  0.0169
   37POPC  H11A 4922   4.410   6.405   6.050 -1.1651 -1.9288  0.2104
   37POPC  H11B 4923   4.271   6.407   6.157 -2.5979  3.0874  0.0325
   37POPC     P 4924   4.314   6.651   6.291  0.0040  0.2373  0.1097
   37POPC   O13 4925   4.218   6.739   6.223 -0.0399  0.1529 -0.0970
   37POPC   O14 4926   4.400   6.714   6.396 -0.6020 -0.7286  0.1941
   37POPC   O12 4927   4.404   6.571   6.187  0.2217  0.4804  0.3609
   37POPC   O11 4928   4.234   6.524   6.350 -0.2689  0.9281 -0.0279
   37POPC    C1 4929   4.111   6.532   6.421  0.2298  0.2190 -0.2911
   37POPC    HA 4930   4.025   6.480   6.375 -2.6370  1.9850  2.6397
   37POPC    HB 4931   4.070   6.635   6.428  0.1646  0.1557  0.2790
   37POPC    C2 4932   4.127   6.474   6.566 -0.3459 -0.1863  0.3072
   37POPC    HS 4933   4.039   6.495   6.630 -0.0799 -0.7711  0.8876
   37POPC   O21 4934   4.241   6.532   6.638 -0.4869 -0.3015  0.0576
   37POPC   C21 4935   4.239   6.666   6.663  0.8145 -0.1992 -0.4371
   37POPC   O22 4936   4.134   6.726   6.648 -0.6978  0.2722  0.1911
   37POPC   C22 4937   4.367   6.698   6.742  0.3385  0.1854  0.2354
   37POPC   H2R 4938   4.415   6.786   6.695  1.2647  1.5134  3.4034
   37POPC   H2S 4939   4.437   6.612   6.732 -0.1495 -0.2147  0.2530
   37POPC    C3 4940   4.132   6.326   6.557  0.2396 -0.9068  0.4744
   37POPC    HX 4941   4.232   6.296   6.517 -0.3849 -1.2345 -0.8933
   37POPC    HY 4942   4.057   6.280   6.489  0.2221  0.5117 -0.5030
   37POPC   O31 4943   4.112   6.269   6.688 -0.3010  0.0201  0.0668
   37POPC   C31 4944   4.217   6.214   6.749  0.4798 -0.6545  0.0933
   37POPC   O32 4945   4.320   6.174   6.702  0.0244 -0.4372 -0.0965
   37POPC   C32 4946   4.193   6.214   6.903  0.2473 -0.1481  0.5395
   37POPC   H2X 4947   4.101   6.153   6.912  0.1179 -0.1674 -0.6829
   37POPC   H2Y 4948   4.169   6.319   6.931  0.2313  0.9659 -3.0794
   37POPC   C23 4949   4.334   6.713   6.889 -0.0881  0.4067  0.5098
   37POPC   H3R 4950   4.243   6.776   6.901 -1.7152 -1.4927 -1.1282
   37POPC   H3S 4951   4.426   6.768   6.919  1.1722 -0.7971 -0.9789
   37POPC   C24 4952   4.328   6.580   6.963  0.1328  0.0018  0.7456
   37POPC   H4R 4953   4.377   6.495   6.911 -0.0222 -0.4476  1.3219
   37POPC   H4S 4954   4.224   6.543   6.972 -0.4071  1.8249  2.7480
   37POPC   C25 4955   4.362   6.599   7.109 -0.1575 -0.0149 -0.4622
   37POPC   H5R 4956   4.284   6.664   7.155 -0.7200 -1.0917  0.1449
   37POPC   H5S 4957   4.456   6.657   7.126 -0.6861  0.2689  1.9272
   37POPC   C26 4958   4.369   6.466   7.181 -0.1950 -0.0657 -0.3115
   37POPC   H6R 4959   4.461   6.410   7.154  0.3219  1.7447 -2.7077
   37POPC   H6S 4960   4.273   6.421   7.152  0.5542 -0.9235 -1.5538
   37POPC   C27 4961   4.360   6.492   7.332 -0.6000 -0.0445  0.2794
   37POPC   H7R 4962   4.284   6.569   7.358  1.2570  1.1056  2.7193
   37POPC   H7S 4963   4.459   6.534   7.360 -0.9155  1.3549 -0.5879
   37POPC   C28 4964   4.314   6.368   7.403 -0.8200  0.4626  0.2260
   37POPC   H8R 4965   4.390   6.288   7.394 -0.0808  1.1820  0.0057
   37POPC   H8S 4966   4.222   6.324   7.356 -0.7302 -0.6826  1.0879
   37POPC   C29 4967   4.292   6.407   7.550  0.1092  0.0382 -0.0521
   37POPC   H91 4968   4.190   6.448   7.562 -0.1333  0.2629 -2.3690
   37POPC  C210 4969   4.382   6.406   7.648  0.2793  0.1644 -0.2725
   37POPC  H101 4970   4.347   6.412   7.752  0.3823  0.1248 -0.2348
   37POPC  C211 4971   4.518   6.348   7.638  0.1430 -0.0933  0.0119
   37POPC  H11R 4972   4.597   6.413   7.681  1.3567 -1.5555  0.1037
   37POPC  H11S 4973   4.541   6.330   7.530 -1.9960  2.4381 -0.9878
   37POPC  C212 4974   4.533   6.211   7.711  0.4100  0.4484 -0.0769
   37POPC  H12R 4975   4.624   6.164   7.668  0.5177  2.2314 -1.9507
   37POPC  H12S 4976   4.449   6.141   7.687 -0.0878  1.5599 -1.8022
   37POPC  C213 4977   4.554   6.218   7.860  0.2832  0.2981  0.4532
   37POPC  H13R 4978   4.478   6.283   7.908  1.6470  1.0188  1.7551
   37POPC  H13S 4979   4.652   6.271   7.872  0.2211  0.4301  0.3750
   37POPC  C214 4980   4.553   6.083   7.929  0.3238 -0.1198  0.6177
   37POPC  H14R 4981   4.653   6.039   7.914 -0.0542 -0.3804 -1.3659
   37POPC  H14S 4982   4.483   6.014   7.877  1.7441  1.2027 -3.3513
   37POPC  C215 4983   4.511   6.091   8.075 -1.1718 -0.1048 -1.0380
   37POPC  H15R 4984   4.515   5.987   8.114 -0.6307 -0.3674 -1.7665
   37POPC  H15S 4985   4.411   6.127   8.109 -0.3604  0.5029  0.8419
   37POPC  C216 4986   4.607   6.179   8.162 -0.4736 -0.1354  0.3776
   37POPC  H16R 4987   4.604   6.281   8.117 -3.8486 -1.4415 -2.9865
   37POPC  H16S 4988   4.705   6.133   8.138 -0.8675 -0.8021 -0.0032
   37POPC  C217 4989   4.588   6.175   8.310  0.3016 -0.5881  0.2109
   37POPC  H17R 4990   4.678   6.218   8.358  0.8514 -0.5592 -0.8045
   37POPC  H17S 4991   4.565   6.069   8.333 -0.2856 -0.1545  1.6963
   37POPC  C218 4992   4.462   6.261   8.351 -0.3552  0.0149  0.3954
   37POPC  H18R 4993   4.433   6.234   8.454 -2.0356  1.7671  0.4353
   37POPC  H18S 4994   4.382   6.236   8.278  1.1724  0.0473 -1.3884
   37POPC  H18T 4995   4.494   6.368   8.347  3.2243 -0.9510 -0.1807
   37POPC   C33 4996   4.318   6.160   6.977 -0.5668  0.5106  0.3003
   37POPC   H3X 4997   4.400   6.235   6.984  0.9774 -1.0677 -0.2145
   37POPC   H3Y 4998   4.369   6.074   6.929  1.1357  1.0282  1.0861
   37POPC   C34 4999   4.291   6.099   7.116  0.2666  0.4305  0.0709
   37POPC   H4X 5000   4.233   6.005   7.106  1.6223 -0.2982 -1.4024
   37POPC   H4Y 5001   4.229   6.169   7.177 -1.7101 -0.8696 -0.3422
   37POPC   C35 5002   4.418   6.075   7.195  0.1833 -0.5179  0.6999
   37POPC   H5X 5003   4.463   6.171   7.228  0.0514  0.6593 -2.2465
   37POPC   H5Y 5004   4.481   6.028   7.117  1.2207  1.0817  0.5249
   37POPC   C36 5005   4.383   5.969   7.303 -0.3288  0.4152 -0.7637
   37POPC   H6X 5006   4.325   5.882   7.266  1.1624 -0.6983 -0.6030
   37POPC   H6Y 5007   4.317   6.001   7.386 -0.7726 -3.9016  0.7932
   37POPC   C37 5008   4.512   5.928   7.371 -0.3880  0.5479 -0.6000
   37POPC   H7X 5009   4.596   5.999   7.387 -0.0823  0.0880 -0.1398
   37POPC   H7Y 5010   4.557   5.861   7.295 -1.7030  1.6790 -2.4558
   37POPC   C38 5011   4.484   5.866   7.506 -0.0060 -0.4798  0.1093
   37POPC   H8X 5012   4.402   5.791   7.493 -1.7207  0.6490  3.1849
   37POPC   H8Y 5013   4.447   5.936   7.584 -0.4398 -0.2115 -0.3305
   37POPC   C39 5014   4.606   5.781   7.548 -0.0950  0.5376 -0.0636
   37POPC   H9X 5015   4.690   5.847   7.577  0.4232  0.1046 -0.5697
   37POPC   H9Y 5016   4.650   5.714   7.472  1.6090  2.1074 -0.5275
   37POPC  C310 5017   4.579   5.693   7.679  0.0527  0.8879  0.0666
   37POPC  H10X 5018   4.513   5.609   7.649 -0.6608  0.8190  1.6964
   37POPC  H10Y 5019   4.523   5.762   7.746  0.2397  0.3025  0.8500
   37POPC  C311 5020   4.710   5.652   7.756 -0.2239  0.5612 -0.2950
   37POPC  H11X 5021   4.771   5.744   7.767  0.5110  0.3107 -1.9780
   37POPC  H11Y 5022   4.763   5.586   7.684 -0.0699  0.5285 -0.1529
   37POPC  C312 5023   4.692   5.571   7.885 -0.2977 -0.4873 -0.2364
   37POPC  H12X 5024   4.659   5.471   7.850 -0.6009 -1.0460  1.5463
   37POPC  H12Y 5025   4.604   5.612   7.940 -0.5679 -1.0347 -0.2464
   37POPC  C313 5026   4.822   5.563   7.966 -0.0078  0.1916  0.6104
   37POPC  H13X 5027   4.868   5.659   7.997  1.5233 -0.3297  0.0860
   37POPC  H13Y 5028   4.884   5.514   7.887 -0.9778 -1.7205  0.9794
   37POPC  C314 5029   4.818   5.461   8.076 -0.5483  0.1993  0.2366
   37POPC  H14X 5030   4.906   5.460   8.145 -1.3859 -1.2221  1.3460
   37POPC  H14Y 5031   4.813   5.361   8.028  3.8076  0.4156 -1.1194
   37POPC  C315 5032   4.698   5.476   8.174 -0.1736  0.1538 -0.0158
   37POPC  H15X 5033   4.607   5.464   8.112  0.9703  0.3710 -1.8207
   37POPC  H15Y 5034   4.698   5.577   8.220 -0.7347  0.6034 -0.9773
   37POPC  C316 5035   4.696   5.382   8.296  0.4592 -0.4336 -0.2800
   37POPC  H16X 5036   4.620   5.409   8.373  1.7641  0.0873  0.8762
   37POPC  H16Y 5037   4.798   5.380   8.340  0.1025  0.9655  0.6602
   37POPC  H16Z 5038   4.676   5.287   8.241 -0.0433  0.5505 -1.8575
   38POPC     N 5039   0.286   0.985   6.193  0.1013  0.2239  0.4854
   38POPC   C12 5040   0.173   0.971   6.301  0.1311  0.1665 -0.9127
   38POPC  H12A 5041   0.211   0.895   6.367 -0.5328 -0.9665 -1.8016
   38POPC  H12B 5042   0.082   0.937   6.255  0.1959 -1.0103 -0.1934
   38POPC   C13 5043   0.420   0.975   6.263 -0.2806 -1.1345  0.1458
   38POPC  H13A 5044   0.431   0.883   6.318  0.8203  0.5942  2.9829
   38POPC  H13B 5045   0.501   0.978   6.192 -0.0789  0.9145  0.4140
   38POPC  H13C 5046   0.425   1.063   6.324 -1.7316 -0.0490 -1.1958
   38POPC   C14 5047   0.285   0.875   6.091  0.2039  0.2086  0.2303
   38POPC  H14A 5048   0.373   0.889   6.030 -0.7910 -1.2440 -1.6215
   38POPC  H14B 5049   0.309   0.779   6.133  0.2540  0.7285  1.4261
   38POPC  H14C 5050   0.206   0.882   6.018 -0.6585  1.3690  1.2390
   38POPC   C15 5051   0.263   1.114   6.114  0.2484  0.2458  0.3094
   38POPC  H15A 5052   0.217   1.186   6.180 -2.5692 -0.6359 -0.5556
   38POPC  H15B 5053   0.184   1.093   6.044  1.0731 -1.3868 -0.1647
   38POPC  H15C 5054   0.346   1.163   6.065 -1.0977  1.4861 -0.8404
   38POPC   C11 5055   0.130   1.092   6.383  0.4407 -0.4067  0.4707
   38POPC  H11A 5056   0.221   1.142   6.423 -0.2426  1.5588 -0.3103
   38POPC  H11B 5057   0.072   1.052   6.468  0.7224 -1.6464  0.0970
   38POPC     P 5058  -0.098   1.159   6.250 -0.5038 -0.0271 -0.0837
   38POPC   O13 5059  -0.093   1.036   6.165  0.1179  0.0474 -0.3697
   38POPC   O14 5060  -0.129   1.285   6.183  0.0766 -0.2390 -0.2755
   38POPC   O12 5061   0.046   1.178   6.303  0.1905 -0.2009  0.0726
   38POPC   O11 5062  -0.179   1.138   6.388  0.4267  0.1761 -0.0962
   38POPC    C1 5063  -0.157   1.244   6.489 -0.2166 -0.6225  0.0631
   38POPC    HA 5064  -0.209   1.335   6.454  2.1315  1.4584  1.6816
   38POPC    HB 5065  -0.050   1.275   6.490 -0.7526  1.3594  1.5850
   38POPC    C2 5066  -0.194   1.186   6.631 -0.1027  0.1931 -0.2510
   38POPC    HS 5067  -0.304   1.181   6.625 -0.4564  3.5826  0.9994
   38POPC   O21 5068  -0.154   1.282   6.738 -0.8366  0.3817  0.0911
   38POPC   C21 5069  -0.242   1.381   6.756 -0.0838  0.9897  0.5580
   38POPC   O22 5070  -0.330   1.409   6.685  0.0623  1.0008 -0.1871
   38POPC   C22 5071  -0.220   1.443   6.890  0.9786  0.1680  0.0509
   38POPC   H2R 5072  -0.315   1.500   6.900 -0.6062 -1.9754 -1.8255
   38POPC   H2S 5073  -0.133   1.509   6.870  2.0962 -0.4262  2.4699
   38POPC    C3 5074  -0.129   1.048   6.661  0.8713 -0.3087 -0.0844
   38POPC    HX 5075  -0.019   1.058   6.655  0.9355 -1.3163 -0.9126
   38POPC    HY 5076  -0.154   0.980   6.577 -3.0499  0.2337  0.4630
   38POPC   O31 5077  -0.165   0.995   6.791  0.0569 -0.0183  0.2919
   38POPC   C31 5078  -0.283   0.936   6.795  0.2430 -0.1323  0.6504
   38POPC   O32 5079  -0.360   0.921   6.701  0.4904  0.4661  0.3607
   38POPC   C32 5080  -0.307   0.891   6.933 -0.3680 -0.4276 -0.6734
   38POPC   H2X 5081  -0.312   0.971   7.009 -3.3104 -1.2998  0.1577
   38POPC   H2Y 5082  -0.226   0.822   6.966  0.7099  0.9869 -0.2696
   38POPC   C23 5083  -0.199   1.339   7.004  0.1105 -0.0097  0.5786
   38POPC   H3R 5084  -0.113   1.275   6.973  1.0266  1.2226  0.5050
   38POPC   H3S 5085  -0.284   1.269   6.994  1.3693 -2.1395  3.3530
   38POPC   C24 5086  -0.199   1.396   7.150  0.6288  0.6799  0.8532
   38POPC   H4R 5087  -0.295   1.439   7.187 -0.0504 -1.1816  1.3495
   38POPC   H4S 5088  -0.116   1.470   7.155  1.3839 -0.1747  1.1387
   38POPC   C25 5089  -0.161   1.288   7.252 -0.1939 -0.0014  0.0019
   38POPC   H5R 5090  -0.068   1.239   7.217 -0.5600 -0.9465  0.3092
   38POPC   H5S 5091  -0.238   1.207   7.251  2.1700 -2.3668 -0.3841
   38POPC   C26 5092  -0.137   1.344   7.394  0.4126 -0.6108  0.1118
   38POPC   H6R 5093  -0.206   1.423   7.430  1.3340 -0.2341  1.1172
   38POPC   H6S 5094  -0.033   1.384   7.391 -0.9054  3.5804  1.9302
   38POPC   C27 5095  -0.132   1.234   7.504  0.3872  0.3400  0.3755
   38POPC   H7R 5096  -0.057   1.158   7.471 -1.8421 -2.6080  1.5815
   38POPC   H7S 5097  -0.230   1.182   7.500  0.1396  0.8928 -1.1225
   38POPC   C28 5098  -0.093   1.287   7.639  0.4517 -0.4474  0.2029
   38POPC   H8R 5099   0.003   1.342   7.628 -0.6451  1.5983  0.2905
   38POPC   H8S 5100  -0.082   1.201   7.707 -1.5426  0.4176  1.7279
   38POPC   C29 5101  -0.205   1.377   7.689 -0.3615  0.3237  0.9660
   38POPC   H91 5102  -0.235   1.466   7.632 -3.6178 -0.5181  1.1784
   38POPC  C210 5103  -0.277   1.352   7.803  0.3307  0.3364  0.2596
   38POPC  H101 5104  -0.352   1.423   7.839 -2.3033 -2.0579 -0.1271
   38POPC  C211 5105  -0.275   1.231   7.892  0.4327 -0.6430  0.1744
   38POPC  H11R 5106  -0.243   1.140   7.837  0.7276 -0.2974 -0.2390
   38POPC  H11S 5107  -0.376   1.211   7.933 -0.2105 -0.1372 -1.1185
   38POPC  C212 5108  -0.171   1.246   8.006 -0.3503 -0.0190 -0.2479
   38POPC  H12R 5109  -0.069   1.260   7.964 -0.5859 -0.8192 -1.1181
   38POPC  H12S 5110  -0.169   1.150   8.061  0.3813 -0.1479 -0.4996
   38POPC  C213 5111  -0.207   1.363   8.107 -0.0157  0.5309 -0.7202
   38POPC  H13R 5112  -0.243   1.457   8.060 -0.7170  0.0165 -1.2396
   38POPC  H13S 5113  -0.109   1.385   8.153  1.2923 -0.9420 -2.6256
   38POPC  C214 5114  -0.307   1.310   8.216 -0.2452  0.7775 -0.2241
   38POPC  H14R 5115  -0.266   1.215   8.257 -1.6365 -0.6883 -2.0653
   38POPC  H14S 5116  -0.399   1.285   8.159  1.2287  0.3755 -2.5614
   38POPC  C215 5117  -0.332   1.403   8.330 -0.0210  0.2511 -0.1949
   38POPC  H15R 5118  -0.237   1.417   8.386  0.9150  2.1323 -2.0941
   38POPC  H15S 5119  -0.420   1.365   8.387 -1.4828  2.9368 -0.4585
   38POPC  C216 5120  -0.367   1.549   8.294  0.0310 -0.0418 -0.3015
   38POPC  H16R 5121  -0.449   1.549   8.219  0.0294 -1.0392 -0.3080
   38POPC  H16S 5122  -0.281   1.597   8.242  0.2362  0.2403  0.2835
   38POPC  C217 5123  -0.422   1.635   8.412 -0.7317  0.6197  1.1058
   38POPC  H17R 5124  -0.486   1.577   8.483 -1.0769 -1.0212 -0.4721
   38POPC  H17S 5125  -0.476   1.713   8.354  4.2861  4.2092  0.6701
   38POPC  C218 5126  -0.309   1.715   8.482  0.6523  0.6511  0.3824
   38POPC  H18R 5127  -0.264   1.784   8.407  1.4119 -3.3244 -3.2608
   38POPC  H18S 5128  -0.221   1.655   8.515 -0.2895 -0.5720  0.7550
   38POPC  H18T 5129  -0.345   1.787   8.558 -2.8738  0.4002 -0.8481
   38POPC   C33 5130  -0.443   0.815   6.953  0.1770 -0.5968 -0.8457
   38POPC   H3X 5131  -0.467   0.746   6.869 -0.0224  0.6101 -1.7986
   38POPC   H3Y 5132  -0.520   0.894   6.950 -0.6273 -1.3757 -1.0525
   38POPC   C34 5133  -0.436   0.739   7.093  0.1706 -0.1406  0.2170
   38POPC   H4X 5134  -0.355   0.663   7.096  0.1201 -0.1937  0.2377
   38POPC   H4Y 5135  -0.539   0.702   7.108  0.0319 -0.2689 -0.9509
   38POPC   C35 5136  -0.411   0.838   7.212  0.8888  0.9485 -0.2846
   38POPC   H5X 5137  -0.477   0.926   7.212 -1.4013 -0.6128  2.1040
   38POPC   H5Y 5138  -0.301   0.857   7.219  1.0219  0.1964 -0.2302
   38POPC   C36 5139  -0.435   0.769   7.348 -0.3685 -0.7555 -0.7378
   38POPC   H6X 5140  -0.358   0.695   7.376  1.4037  1.5427  0.8930
   38POPC   H6Y 5141  -0.534   0.719   7.341 -0.4745 -0.4310 -1.7190
   38POPC   C37 5142  -0.438   0.865   7.469 -0.1839  0.3008 -0.4468
   38POPC   H7X 5143  -0.525   0.933   7.461 -0.9956 -0.5320  0.9471
   38POPC   H7Y 5144  -0.347   0.928   7.465 -1.3918  2.1895  0.4134
   38POPC   C38 5145  -0.452   0.798   7.604 -0.3833 -1.3227 -0.0450
   38POPC   H8X 5146  -0.365   0.728   7.610  1.1105 -0.0416 -3.8391
   38POPC   H8Y 5147  -0.554   0.757   7.614 -0.4700 -1.5299 -1.5104
   38POPC   C39 5148  -0.447   0.908   7.713  0.2681  0.2254  0.5342
   38POPC   H9X 5149  -0.502   0.996   7.674 -1.1534 -0.3263  1.1983
   38POPC   H9Y 5150  -0.343   0.941   7.730  0.7499 -1.2649  0.6703
   38POPC  C310 5151  -0.498   0.853   7.841 -0.3205 -0.2550  0.9101
   38POPC  H10X 5152  -0.438   0.763   7.863  2.9629  1.2029 -1.3239
   38POPC  H10Y 5153  -0.604   0.823   7.827 -0.4626  0.1658  1.0745
   38POPC  C311 5154  -0.497   0.948   7.958  0.7260  0.1262 -0.0609
   38POPC  H11X 5155  -0.548   1.045   7.937  2.4856  0.8670 -1.1819
   38POPC  H11Y 5156  -0.388   0.974   7.963  0.5628  0.9870 -0.6028
   38POPC  C312 5157  -0.556   0.886   8.087 -0.4618  0.2162 -1.0696
   38POPC  H12X 5158  -0.497   0.803   8.131 -0.7946  0.5776  0.0959
   38POPC  H12Y 5159  -0.661   0.853   8.074  0.2251 -3.0115  0.4799
   38POPC  C313 5160  -0.577   0.998   8.204  0.2283  0.8137  0.2716
   38POPC  H13X 5161  -0.647   1.074   8.164 -0.7152  1.1424  2.4237
   38POPC  H13Y 5162  -0.484   1.053   8.230  1.1274  0.7733 -2.5142
   38POPC  C314 5163  -0.642   0.931   8.326 -0.5299  0.3233  0.6601
   38POPC  H14X 5164  -0.575   0.857   8.374  0.2076 -0.4508 -1.4501
   38POPC  H14Y 5165  -0.719   0.868   8.277  0.4264  1.4382 -2.5232
   38POPC  C315 5166  -0.704   1.032   8.430 -0.2315  0.3859  0.4011
   38POPC  H15X 5167  -0.763   1.110   8.378 -0.5208 -0.0435  0.0722
   38POPC  H15Y 5168  -0.611   1.081   8.465 -1.0716  2.2549  0.1236
   38POPC  C316 5169  -0.775   0.959   8.543  0.6082 -0.2719  0.0876
   38POPC  H16X 5170  -0.815   1.032   8.618  0.8918 -0.2244  0.1949
   38POPC  H16Y 5171  -0.710   0.889   8.600 -0.0479  0.7062  2.1763
   38POPC  H16Z 5172  -0.859   0.901   8.501  0.8469  0.5389 -1.5586
   39POPC     N 5173   1.549   6.448   5.819  0.3262 -0.4130  0.1334
   39POPC   C12 5174   1.427   6.501   5.902  0.3077  0.4812  0.1734
   39POPC  H12A 5175   1.404   6.428   5.978  0.2787  2.1426  1.8235
   39POPC  H12B 5176   1.341   6.512   5.839  0.1790  0.0472  0.2723
   39POPC   C13 5177   1.663   6.407   5.900  0.1519  0.0215 -0.6849
   39POPC  H13A 5178   1.641   6.322   5.964  0.3775  0.4823  0.0191
   39POPC  H13B 5179   1.745   6.370   5.840  1.9119  2.2214  0.2375
   39POPC  H13C 5180   1.703   6.489   5.958  0.2104 -0.8299  0.5068
   39POPC   C14 5181   1.506   6.333   5.743 -0.5189 -0.5829  0.9957
   39POPC  H14A 5182   1.489   6.246   5.804 -0.8275 -0.2676  1.3599
   39POPC  H14B 5183   1.416   6.350   5.686  1.1014 -1.3804 -2.0700
   39POPC  H14C 5184   1.582   6.298   5.675  0.5011 -0.5630  2.0971
   39POPC   C15 5185   1.580   6.560   5.728 -0.1307 -0.1689  0.1598
   39POPC  H15A 5186   1.660   6.532   5.661 -0.3516 -4.4428  1.3974
   39POPC  H15B 5187   1.613   6.641   5.791 -0.0293 -1.3515  1.6929
   39POPC  H15C 5188   1.494   6.587   5.669  0.5117  1.1684 -0.2146
   39POPC   C11 5189   1.449   6.637   5.980  0.7135  0.2506 -0.3660
   39POPC  H11A 5190   1.555   6.628   6.013  1.9292 -1.2175 -4.1341
   39POPC  H11B 5191   1.383   6.628   6.069  1.6011  2.9337  0.6707
   39POPC     P 5192   1.274   6.782   5.872 -0.0242 -0.7076  0.3012
   39POPC   O13 5193   1.205   6.658   5.834  0.1337  0.0226 -0.7412
   39POPC   O14 5194   1.252   6.898   5.781  0.3394 -0.4599  0.1758
   39POPC   O12 5195   1.431   6.761   5.900 -0.1236 -0.2799 -0.4831
   39POPC   O11 5196   1.228   6.828   6.016 -0.0168  0.3208  0.6754
   39POPC    C1 5197   1.247   6.963   6.062 -0.5937  0.1697 -0.5201
   39POPC    HA 5198   1.165   7.030   6.029  0.3961  0.5980 -2.2384
   39POPC    HB 5199   1.351   6.991   6.033 -0.7068 -0.6869 -1.8423
   39POPC    C2 5200   1.236   6.966   6.217 -0.0535  0.3056  0.3312
   39POPC    HS 5201   1.314   6.893   6.250  1.2623  2.0678  1.2651
   39POPC   O21 5202   1.104   6.911   6.242 -0.0386 -0.4123 -0.5685
   39POPC   C21 5203   1.095   6.842   6.356 -0.1670  0.4435 -0.2655
   39POPC   O22 5204   1.190   6.796   6.414 -0.4546  0.5430 -0.2476
   39POPC   C22 5205   0.952   6.831   6.402  0.3744  0.3226  0.1540
   39POPC   H2R 5206   0.935   6.745   6.470  0.2035 -1.7591 -2.3755
   39POPC   H2S 5207   0.882   6.821   6.317  0.4186  1.1504  0.0101
   39POPC    C3 5208   1.264   7.096   6.295  0.6513 -0.1949 -0.0871
   39POPC    HX 5209   1.175   7.161   6.282 -0.2296 -1.7806 -2.7355
   39POPC    HY 5210   1.348   7.155   6.253 -0.2277  2.5482  1.7813
   39POPC   O31 5211   1.296   7.074   6.435  0.6014 -0.1388  0.5791
   39POPC   C31 5212   1.418   7.007   6.447  0.2364 -0.1502 -0.3990
   39POPC   O32 5213   1.491   6.985   6.356 -0.2055  0.1855 -0.5122
   39POPC   C32 5214   1.451   6.970   6.590 -0.2953 -0.7387 -0.1012
   39POPC   H2X 5215   1.454   6.859   6.587  0.9326 -0.7462  0.7263
   39POPC   H2Y 5216   1.555   7.004   6.612 -0.4587 -1.7661  2.6106
   39POPC   C23 5217   0.895   6.963   6.467  0.3711  0.2621 -0.0671
   39POPC   H3R 5218   0.784   6.957   6.461  0.3585 -0.4145  0.7071
   39POPC   H3S 5219   0.940   7.053   6.419 -0.7659  0.0846 -1.5386
   39POPC   C24 5220   0.924   6.977   6.610 -0.5470 -0.3061  0.1305
   39POPC   H4R 5221   1.027   6.939   6.628 -0.9966 -2.2822 -1.1548
   39POPC   H4S 5222   0.868   6.914   6.683 -1.7947  1.2725  0.5927
   39POPC   C25 5223   0.897   7.121   6.659  0.2723 -0.0386  0.4142
   39POPC   H5R 5224   0.788   7.138   6.653 -0.0853 -2.0028  0.5957
   39POPC   H5S 5225   0.936   7.193   6.583  0.5762  0.4868  1.0574
   39POPC   C26 5226   0.932   7.155   6.801 -0.4390 -0.1908 -0.2726
   39POPC   H6R 5227   0.977   7.257   6.806  0.1605 -0.3393 -1.9379
   39POPC   H6S 5228   1.019   7.096   6.835  0.1174 -0.1905 -1.6334
   39POPC   C27 5229   0.821   7.160   6.906  0.2121 -0.1702 -0.2614
   39POPC   H7R 5230   0.772   7.061   6.921  1.2132 -0.8271 -1.1704
   39POPC   H7S 5231   0.741   7.227   6.869  0.6750  0.2432 -0.5134
   39POPC   C28 5232   0.869   7.219   7.039 -0.8376  0.1520  0.5668
   39POPC   H8R 5233   0.927   7.310   7.012 -2.2294  1.1382  0.7733
   39POPC   H8S 5234   0.937   7.136   7.068 -2.1787 -2.3947 -2.8715
   39POPC   C29 5235   0.769   7.244   7.148  0.1668 -0.1860 -0.0434
   39POPC   H91 5236   0.677   7.287   7.107  0.8493  1.3335 -0.0587
   39POPC  C210 5237   0.784   7.219   7.280 -0.1527 -0.1118  0.8468
   39POPC  H101 5238   0.695   7.238   7.342 -0.7490  0.8160 -0.2554
   39POPC  C211 5239   0.906   7.163   7.354  0.7512  0.3127  0.4500
   39POPC  H11R 5240   0.993   7.231   7.352  0.0010  1.3965  2.0879
   39POPC  H11S 5241   0.935   7.064   7.312  2.3431  1.4590 -1.2986
   39POPC  C212 5242   0.876   7.133   7.503  1.6479  0.3300 -0.0421
   39POPC  H12R 5243   0.970   7.088   7.541  0.8245 -1.1629  0.3407
   39POPC  H12S 5244   0.792   7.060   7.512  2.3868 -0.5120  0.1591
   39POPC  C213 5245   0.855   7.252   7.600  0.0382 -0.5705 -0.0570
   39POPC  H13R 5246   0.750   7.285   7.584  1.6961  4.7835 -1.9754
   39POPC  H13S 5247   0.917   7.341   7.576 -2.4999  1.1764 -0.5176
   39POPC  C214 5248   0.897   7.216   7.745 -0.4554 -0.8198 -0.3637
   39POPC  H14R 5249   1.006   7.192   7.753 -0.4355 -0.6163 -0.0148
   39POPC  H14S 5250   0.839   7.132   7.788  0.0334 -0.9865 -0.0145
   39POPC  C215 5251   0.880   7.346   7.838  0.7754  0.1195  0.3891
   39POPC  H15R 5252   0.771   7.362   7.850  0.5772 -1.5115  1.0659
   39POPC  H15S 5253   0.923   7.435   7.787 -0.4138  0.4259 -0.1261
   39POPC  C216 5254   0.932   7.333   7.980 -0.7715  0.1388  0.0904
   39POPC  H16R 5255   1.026   7.275   7.980 -0.2549  0.9520  1.1048
   39POPC  H16S 5256   0.862   7.287   8.053 -0.6656  1.4949  1.0872
   39POPC  C217 5257   0.966   7.460   8.061  0.4542 -0.3243  0.4358
   39POPC  H17R 5258   0.877   7.524   8.081  1.3223  1.3828 -0.8542
   39POPC  H17S 5259   1.051   7.513   8.012 -0.0221 -2.2174 -2.7771
   39POPC  C218 5260   1.013   7.424   8.209  0.1708 -0.1193 -0.0465
   39POPC  H18R 5261   1.097   7.352   8.219 -0.3954 -0.6863  0.7626
   39POPC  H18S 5262   0.935   7.376   8.272 -0.2598  2.5306  1.6102
   39POPC  H18T 5263   1.055   7.516   8.254  3.1955 -1.7958  0.9200
   39POPC   C33 5264   1.357   7.026   6.698  0.2175 -0.3484 -0.4075
   39POPC   H3X 5265   1.256   6.983   6.683 -0.2422  0.6755 -0.3166
   39POPC   H3Y 5266   1.356   7.137   6.694 -0.8547 -0.3154  0.3895
   39POPC   C34 5267   1.404   6.982   6.840 -0.1612  0.1427  0.1241
   39POPC   H4X 5268   1.513   7.002   6.850 -0.3820  2.0239 -0.8701
   39POPC   H4Y 5269   1.395   6.871   6.841  3.7215 -0.3513 -0.9440
   39POPC   C35 5270   1.332   7.065   6.951 -0.1356  0.1197 -0.6137
   39POPC   H5X 5271   1.224   7.038   6.940 -0.0483 -0.8985  0.7643
   39POPC   H5Y 5272   1.351   7.173   6.936  1.0681 -0.1226 -0.9119
   39POPC   C36 5273   1.389   7.029   7.089  0.4456  0.0068 -0.4153
   39POPC   H6X 5274   1.497   7.056   7.085  0.5491 -0.4668 -1.1187
   39POPC   H6Y 5275   1.378   6.920   7.110 -2.3803  0.1953 -0.5484
   39POPC   C37 5276   1.322   7.104   7.209  0.0326  0.0647 -0.5622
   39POPC   H7X 5277   1.218   7.067   7.197  0.6624 -2.5913  1.2812
   39POPC   H7Y 5278   1.316   7.215   7.199 -1.3509  0.1375  0.6119
   39POPC   C38 5279   1.385   7.071   7.342  0.2363 -0.0526  0.3532
   39POPC   H8X 5280   1.488   7.112   7.346 -0.4218  2.1182 -2.0826
   39POPC   H8Y 5281   1.388   6.961   7.352 -1.3351 -0.4886 -2.8169
   39POPC   C39 5282   1.308   7.135   7.455  0.6140 -1.0461 -0.8304
   39POPC   H9X 5283   1.354   7.097   7.549 -0.6229 -1.0895 -0.2143
   39POPC   H9Y 5284   1.201   7.106   7.460  0.3278 -0.1226 -1.4329
   39POPC  C310 5285   1.300   7.286   7.452 -0.0304 -0.3735 -0.0085
   39POPC  H10X 5286   1.233   7.316   7.368  0.9500 -3.5664 -2.1182
   39POPC  H10Y 5287   1.403   7.323   7.434  0.4711 -1.9814 -0.5416
   39POPC  C311 5288   1.236   7.334   7.576  0.2469 -0.4962 -0.0700
   39POPC  H11X 5289   1.243   7.269   7.667  0.1813 -1.4360 -0.7245
   39POPC  H11Y 5290   1.128   7.342   7.554  0.6723  0.6251 -2.0108
   39POPC  C312 5291   1.274   7.477   7.618  0.3023 -0.4866  0.0195
   39POPC  H12X 5292   1.229   7.545   7.543  1.7008  1.0053  0.4933
   39POPC  H12Y 5293   1.382   7.498   7.605 -0.0790  1.0705 -0.8348
   39POPC  C313 5294   1.232   7.507   7.760 -0.3602 -0.1759 -0.6142
   39POPC  H13X 5295   1.279   7.427   7.820 -0.5992  0.8152  0.9501
   39POPC  H13Y 5296   1.122   7.497   7.771 -0.4143  1.8490  1.2579
   39POPC  C314 5297   1.290   7.640   7.804 -0.0985 -0.2959  0.0863
   39POPC  H14X 5298   1.259   7.705   7.720 -0.9530 -1.4109 -0.4952
   39POPC  H14Y 5299   1.400   7.624   7.795  0.0617  0.4884  0.5605
   39POPC  C315 5300   1.257   7.706   7.940 -0.5136  0.4069 -0.2394
   39POPC  H15X 5301   1.321   7.652   8.013  0.7908  2.2672  0.0861
   39POPC  H15Y 5302   1.150   7.700   7.969 -0.6357 -0.0576 -0.7938
   39POPC  C316 5303   1.307   7.854   7.937  0.0875  0.1015  0.2187
   39POPC  H16X 5304   1.417   7.865   7.939 -0.0965  2.6240  2.0360
   39POPC  H16Y 5305   1.264   7.903   8.028  0.6346  1.9676 -0.4826
   39POPC  H16Z 5306   1.254   7.907   7.855 -0.5150 -1.2731 -0.3061
   40POPC     N 5307   6.031   4.048   6.554 -0.3623  0.3151 -0.4239
   40POPC   C12 5308   6.171   4.008   6.586  0.1218 -0.6680  0.4595
   40POPC  H12A 5309   6.176   3.977   6.689  1.0871 -1.3870  0.2167
   40POPC  H12B 5310   6.225   4.100   6.571 -0.7632 -0.1077  0.6540
   40POPC   C13 5311   5.933   3.949   6.614  0.0100 -0.6464 -0.2943
   40POPC  H13A 5312   5.945   3.937   6.721  0.0572 -0.8688 -0.3233
   40POPC  H13B 5313   5.834   3.988   6.599  0.7198  1.3192 -0.1018
   40POPC  H13C 5314   5.957   3.851   6.575 -1.0767 -1.4953  1.0574
   40POPC   C14 5315   6.008   4.184   6.617  0.4947  0.6117 -0.0939
   40POPC  H14A 5316   6.005   4.181   6.725 -1.5749 -1.6536 -0.1278
   40POPC  H14B 5317   6.087   4.246   6.578 -0.8383 -0.0291 -4.3046
   40POPC  H14C 5318   5.913   4.220   6.582 -0.1808 -2.5422 -1.9603
   40POPC   C15 5319   6.010   4.061   6.409 -0.5014 -0.9627  0.7619
   40POPC  H15A 5320   5.911   4.099   6.391 -0.0339  2.0167  3.6065
   40POPC  H15B 5321   6.015   3.966   6.358 -2.7205 -0.7824  0.1134
   40POPC  H15C 5322   6.072   4.142   6.373 -0.3497 -1.2199  0.4316
   40POPC   C11 5323   6.237   3.904   6.490 -0.5898 -0.2009 -0.7649
   40POPC  H11A 5324   6.330   3.882   6.548 -1.0299 -0.7761 -0.2583
   40POPC  H11B 5325   6.263   3.951   6.393 -1.4806  1.4055 -0.2687
   40POPC     P 5326   6.224   3.657   6.413 -0.3194  0.3245 -0.0587
   40POPC   O13 5327   6.372   3.663   6.428  0.0795  0.2788 -0.1761
   40POPC   O14 5328   6.178   3.665   6.275  0.0417  0.3201 -0.2336
   40POPC   O12 5329   6.165   3.782   6.488 -0.2782  0.3715  0.4087
   40POPC   O11 5330   6.156   3.534   6.487 -0.6519  0.4389  0.2740
   40POPC    C1 5331   6.051   3.536   6.582 -0.2971 -0.2910  0.2784
   40POPC    HA 5332   6.006   3.435   6.590 -1.9733  0.2527 -1.4434
   40POPC    HB 5333   5.971   3.604   6.546  0.3917  0.0938 -0.5518
   40POPC    C2 5334   6.099   3.582   6.721 -0.9729  0.2370 -0.5205
   40POPC    HS 5335   6.140   3.684   6.710  1.8543 -0.8457 -0.6729
   40POPC   O21 5336   6.201   3.490   6.774 -0.0308 -0.2447  0.3586
   40POPC   C21 5337   6.309   3.543   6.829 -0.3812  0.3402  0.1594
   40POPC   O22 5338   6.339   3.661   6.836 -0.1318 -1.0089 -0.0848
   40POPC   C22 5339   6.390   3.432   6.888  0.3874  0.1083 -0.2899
   40POPC   H2R 5340   6.423   3.349   6.822 -2.9189 -2.1374  0.6866
   40POPC   H2S 5341   6.345   3.391   6.981 -1.9144 -0.7017 -1.6816
   40POPC    C3 5342   5.989   3.579   6.824  0.3144  0.7163 -0.1213
   40POPC    HX 5343   5.947   3.477   6.829  1.4812  0.2628  0.9931
   40POPC    HY 5344   5.909   3.645   6.783  0.3432 -0.9184 -3.1408
   40POPC   O31 5345   6.027   3.609   6.957 -0.1196  0.3335  0.0355
   40POPC   C31 5346   6.046   3.735   6.992  0.2534  0.1399  0.2177
   40POPC   O32 5347   6.021   3.833   6.927 -0.1747 -1.2113 -0.0682
   40POPC   C32 5348   6.101   3.739   7.129  0.8517  0.0926 -0.3622
   40POPC   H2X 5349   6.141   3.640   7.160 -0.0034 -0.0045  0.4784
   40POPC   H2Y 5350   6.010   3.746   7.191  1.3305 -0.1326  0.3786
   40POPC   C23 5351   6.521   3.488   6.947 -0.4778 -0.6359 -0.1583
   40POPC   H3R 5352   6.580   3.561   6.889  0.3014  0.7283  2.2271
   40POPC   H3S 5353   6.588   3.401   6.961 -0.4959 -0.3429  2.2767
   40POPC   C24 5354   6.500   3.551   7.084 -0.0294  0.0400 -0.0572
   40POPC   H4R 5355   6.438   3.477   7.139 -0.8766  0.6056 -0.2285
   40POPC   H4S 5356   6.434   3.638   7.063 -1.1061 -1.0898 -1.5936
   40POPC   C25 5357   6.627   3.592   7.154  0.1123  0.1057 -0.1765
   40POPC   H5R 5358   6.684   3.653   7.081  0.4088 -0.4813 -0.4452
   40POPC   H5S 5359   6.693   3.508   7.186 -0.5000  0.1743  1.3807
   40POPC   C26 5360   6.588   3.681   7.272 -0.1659 -0.1110  0.2567
   40POPC   H6R 5361   6.520   3.632   7.346  0.5602  0.9341  1.6757
   40POPC   H6S 5362   6.537   3.774   7.238 -0.8802 -0.6494 -0.1823
   40POPC   C27 5363   6.709   3.728   7.349  0.1466  0.0570 -0.3947
   40POPC   H7R 5364   6.791   3.765   7.284 -0.3296 -0.0663 -1.0778
   40POPC   H7S 5365   6.760   3.634   7.380  4.1871  1.2800 -2.7167
   40POPC   C28 5366   6.667   3.819   7.466  0.3221 -0.1454  1.3333
   40POPC   H8R 5367   6.581   3.773   7.518 -0.1958 -1.4614 -0.6056
   40POPC   H8S 5368   6.626   3.913   7.424  0.6221 -0.1117  1.1160
   40POPC   C29 5369   6.783   3.846   7.555  0.1600 -0.1036 -0.1407
   40POPC   H91 5370   6.886   3.839   7.516  1.0467 -4.4368  2.3541
   40POPC  C210 5371   6.783   3.858   7.685 -0.4297  0.7045  0.5486
   40POPC  H101 5372   6.879   3.871   7.737 -0.1347 -2.4819  0.9731
   40POPC  C211 5373   6.663   3.849   7.775  0.3121 -0.1497  0.4804
   40POPC  H11R 5374   6.587   3.920   7.737 -0.6608 -0.5970  1.5580
   40POPC  H11S 5375   6.689   3.895   7.873  0.0960  1.1611 -0.0492
   40POPC  C212 5376   6.606   3.710   7.793  0.1480 -0.0079 -0.4835
   40POPC  H12R 5377   6.653   3.651   7.874 -1.4282 -1.3403 -0.4771
   40POPC  H12S 5378   6.618   3.649   7.701 -2.5015 -0.1502 -0.8240
   40POPC  C213 5379   6.460   3.708   7.833 -0.2044  0.2675 -0.3077
   40POPC  H13R 5380   6.417   3.610   7.802 -0.9400  0.4399  0.1598
   40POPC  H13S 5381   6.407   3.785   7.772 -0.9930 -0.1671 -0.1872
   40POPC  C214 5382   6.443   3.740   7.980 -0.2157  0.0660 -1.1512
   40POPC  H14R 5383   6.335   3.757   7.997  0.3807  2.3468  1.0497
   40POPC  H14S 5384   6.504   3.833   7.988  2.0985 -1.3863 -0.7580
   40POPC  C215 5385   6.483   3.626   8.079 -0.1645  0.5632  0.3975
   40POPC  H15R 5386   6.459   3.655   8.183  1.9717 -1.0202  1.4087
   40POPC  H15S 5387   6.593   3.627   8.093 -0.4323  2.9309  3.3393
   40POPC  C216 5388   6.424   3.493   8.056 -0.0177  0.3733  0.0529
   40POPC  H16R 5389   6.475   3.441   7.973 -0.7745  0.3548 -0.4127
   40POPC  H16S 5390   6.315   3.505   8.039 -0.3069 -0.0520  1.4397
   40POPC  C217 5391   6.434   3.396   8.181  0.6652  0.4280  0.9901
   40POPC  H17R 5392   6.389   3.446   8.270  0.0015 -0.0405  0.9296
   40POPC  H17S 5393   6.543   3.386   8.194  0.5446  0.5803  2.2461
   40POPC  C218 5394   6.376   3.262   8.147 -0.7256 -0.4817 -0.7002
   40POPC  H18R 5395   6.401   3.227   8.045  0.5983 -0.7907 -0.2791
   40POPC  H18S 5396   6.265   3.266   8.149 -0.7103 -0.0974 -0.2299
   40POPC  H18T 5397   6.407   3.176   8.210 -2.5521 -0.9510 -0.3747
   40POPC   C33 5398   6.201   3.848   7.154 -0.6756 -0.1376 -0.6779
   40POPC   H3X 5399   6.166   3.948   7.122 -0.1807  0.5035  0.6745
   40POPC   H3Y 5400   6.295   3.822   7.100 -0.1760  0.4285 -0.0905
   40POPC   C34 5401   6.239   3.862   7.301  0.6183  0.3652  0.6668
   40POPC   H4X 5402   6.308   3.780   7.328 -0.3866 -0.1219  1.8690
   40POPC   H4Y 5403   6.146   3.851   7.360 -0.1038  0.3013 -0.4462
   40POPC   C35 5404   6.299   3.988   7.343 -0.2820 -0.6405 -0.6543
   40POPC   H5X 5405   6.236   4.077   7.323  0.8363  0.4698  0.5825
   40POPC   H5Y 5406   6.392   4.000   7.284  0.3779 -0.0309  0.4816
   40POPC   C36 5407   6.327   4.015   7.490 -0.9717 -0.0411  0.6507
   40POPC   H6X 5408   6.375   4.115   7.492 -0.8140  0.0402 -2.7542
   40POPC   H6Y 5409   6.393   3.936   7.534  0.9283  1.3706  0.4583
   40POPC   C37 5410   6.192   4.030   7.564  0.3703  0.5306 -0.2350
   40POPC   H7X 5411   6.150   3.927   7.565  1.8555 -0.1059 -1.0248
   40POPC   H7Y 5412   6.124   4.093   7.502 -1.9949 -0.9065  0.7220
   40POPC   C38 5413   6.197   4.076   7.706 -0.5207  0.3228  0.4697
   40POPC   H8X 5414   6.257   4.169   7.709 -0.9848  0.6214  0.6797
   40POPC   H8Y 5415   6.255   3.998   7.759  0.0024 -1.8189 -2.9632
   40POPC   C39 5416   6.060   4.083   7.775  0.2244 -0.6845 -0.1902
   40POPC   H9X 5417   5.995   3.993   7.772  2.9772 -2.7871 -1.3917
   40POPC   H9Y 5418   6.001   4.158   7.718  1.2667  1.3372  1.2721
   40POPC  C310 5419   6.064   4.126   7.927 -0.7409 -0.3370  0.6392
   40POPC  H10X 5420   6.131   4.215   7.931 -0.4222 -0.3888 -1.8320
   40POPC  H10Y 5421   6.110   4.037   7.976  0.9178  0.2208  0.1699
   40POPC  C311 5422   5.931   4.160   7.989  0.2585 -0.1552 -0.3732
   40POPC  H11X 5423   5.892   4.067   8.035  1.5052  0.1178  1.3301
   40POPC  H11Y 5424   5.861   4.196   7.911  0.5030  0.5458 -0.2824
   40POPC  C312 5425   5.931   4.255   8.107  0.0527 -0.2305 -0.6838
   40POPC  H12X 5426   5.983   4.349   8.079  0.4252 -0.3731 -0.4710
   40POPC  H12Y 5427   5.994   4.221   8.191  0.2595  2.6306  0.4415
   40POPC  C313 5428   5.788   4.277   8.157 -0.0583 -0.1406 -0.1018
   40POPC  H13X 5429   5.743   4.178   8.181  0.8563 -0.3413  0.8537
   40POPC  H13Y 5430   5.734   4.317   8.068 -0.7909  0.2208  0.4846
   40POPC  C314 5431   5.774   4.378   8.280  0.1324  0.3352 -0.2945
   40POPC  H14X 5432   5.864   4.439   8.301  2.1957 -3.1510  2.1376
   40POPC  H14Y 5433   5.785   4.316   8.372 -0.3629 -0.1977 -0.5891
   40POPC  C315 5434   5.647   4.451   8.279  0.6973 -0.5279  0.8231
   40POPC  H15X 5435   5.561   4.382   8.265 -0.1188  0.8323 -1.3440
   40POPC  H15Y 5436   5.645   4.527   8.198  0.1342  0.8457  2.0650
   40POPC  C316 5437   5.623   4.536   8.400  0.5403  0.1093 -0.5025
   40POPC  H16X 5438   5.680   4.496   8.486  1.5051  1.8106 -0.3119
   40POPC  H16Y 5439   5.515   4.529   8.426  0.6789 -0.6637 -0.1156
   40POPC  H16Z 5440   5.646   4.645   8.395  0.2144  0.2201  0.2143
   41CHL1    C3 5441   4.653   5.966  10.213 -0.2824  0.0810  0.0304
   41CHL1    H3 5442   4.617   5.862  10.197  0.6150 -0.2363  0.0102
   41CHL1    O3 5443   4.633   5.992  10.350 -0.3875 -0.5397 -0.3051
   41CHL1   H3' 5444   4.690   6.068  10.368 -0.3413 -0.8906  1.1955
   41CHL1    C4 5445   4.798   5.987  10.193 -0.1728  0.2232  0.5047
   41CHL1   H4A 5446   4.845   6.075  10.243  1.2868 -0.6649  0.7778
   41CHL1   H4B 5447   4.841   5.900  10.248 -1.6796  0.3417  1.9520
   41CHL1    C5 5448   4.838   5.975  10.047  0.1352 -0.5964  0.0920
   41CHL1    C6 5449   4.909   5.874  10.004  0.2974  0.3221 -0.8774
   41CHL1    H6 5450   4.943   5.799  10.077 -1.9042  0.9083  0.8862
   41CHL1    C7 5451   4.955   5.860   9.859  0.2558  0.4664 -0.1132
   41CHL1   H7A 5452   5.063   5.838   9.845 -0.1521 -1.0093 -1.2693
   41CHL1   H7B 5453   4.897   5.784   9.802  0.6063  0.9014 -1.0824
   41CHL1    C8 5454   4.934   5.989   9.777 -0.6269  0.2655 -0.4237
   41CHL1    H8 5455   5.007   6.068   9.804 -1.7167  2.1234 -2.5427
   41CHL1   C14 5456   4.963   5.970   9.631  0.4572  0.3850  0.3588
   41CHL1   H14 5457   4.883   5.909   9.585  1.5071 -0.3778 -0.5163
   41CHL1   C15 5458   5.095   5.902   9.588 -0.0150 -0.3740  0.3414
   41CHL1  H15A 5459   5.173   5.968   9.632 -0.3754  0.3007 -0.0022
   41CHL1  H15B 5460   5.104   5.796   9.618  0.1253 -0.3364  0.4350
   41CHL1   C16 5461   5.092   5.933   9.426 -0.0303 -0.3573  0.3553
   41CHL1  H16A 5462   5.192   5.980   9.412 -0.4338  0.9815  1.6785
   41CHL1  H16B 5463   5.081   5.844   9.361 -0.2921 -0.9456  1.1928
   41CHL1   C17 5464   4.989   6.039   9.401  0.2257  0.1076 -0.2705
   41CHL1   H17 5465   4.890   5.993   9.380  0.5814 -0.5200 -0.6333
   41CHL1   C13 5466   4.952   6.100   9.548 -0.0340 -0.2422 -0.3991
   41CHL1   C18 5467   5.053   6.216   9.581  0.1400 -0.5126  0.0544
   41CHL1  H18A 5468   5.022   6.311   9.534 -1.5496 -1.0386  0.0162
   41CHL1  H18B 5469   5.054   6.233   9.691  0.8671  0.4388 -0.0899
   41CHL1  H18C 5470   5.151   6.185   9.539  0.7758  0.3610  0.8684
   41CHL1   C12 5471   4.802   6.153   9.569 -0.0626  0.8223 -0.1802
   41CHL1  H12A 5472   4.790   6.253   9.523 -2.2848  1.6184  1.8764
   41CHL1  H12B 5473   4.729   6.085   9.520 -1.3443  0.9227  1.5039
   41CHL1   C11 5474   4.767   6.177   9.719 -0.0707 -0.8125  0.2286
   41CHL1  H11A 5475   4.824   6.266   9.752  2.6832 -1.0995 -3.1469
   41CHL1  H11B 5476   4.662   6.209   9.730  0.6139  1.0353  1.9557
   41CHL1    C9 5477   4.797   6.051   9.812  0.3440  0.4121 -0.3745
   41CHL1    H9 5478   4.732   5.969   9.775  1.2058 -0.2136 -0.5515
   41CHL1   C10 5479   4.767   6.085   9.958 -0.1528  0.7814  0.2385
   41CHL1   C19 5480   4.834   6.222   9.999 -0.2165  0.2932 -0.4227
   41CHL1  H19A 5481   4.944   6.223   9.987 -0.2027 -1.0747 -0.5338
   41CHL1  H19B 5482   4.794   6.310   9.944  0.3040  0.5771 -0.3540
   41CHL1  H19C 5483   4.803   6.245  10.104  0.4372  1.5887 -0.4913
   41CHL1    C1 5484   4.610   6.086   9.983 -0.3836  0.1558  0.6558
   41CHL1   H1A 5485   4.550   6.174   9.951  0.3309  0.4750  0.1442
   41CHL1   H1B 5486   4.583   5.995   9.925  0.8378  0.2620 -0.1172
   41CHL1    C2 5487   4.568   6.071  10.131  0.2125 -0.1283  0.2533
   41CHL1   H2A 5488   4.459   6.052  10.118  0.1658  1.1010 -1.3954
   41CHL1   H2B 5489   4.571   6.164  10.191  0.1237 -0.0491  0.1339
   41CHL1   C20 5490   5.025   6.139   9.287  0.0566 -0.9998 -0.4604
   41CHL1   H20 5491   5.105   6.209   9.320 -2.5282  2.2746 -0.5672
   41CHL1   C21 5492   4.905   6.231   9.257 -0.6480  0.5604 -0.1376
   41CHL1  H21A 5493   4.884   6.295   9.346  0.6143 -0.5680  1.0265
   41CHL1  H21B 5494   4.811   6.178   9.231  0.7115 -2.1291  0.0006
   41CHL1  H21C 5495   4.925   6.305   9.177 -0.8315  1.1433  0.3453
   41CHL1   C22 5496   5.080   6.078   9.157  0.3306  0.4849  0.4224
   41CHL1  H22A 5497   5.158   6.003   9.182 -1.5608 -1.4829  0.6533
   41CHL1  H22B 5498   5.005   6.023   9.096  0.7486 -0.8380  1.0672
   41CHL1   C23 5499   5.172   6.172   9.072 -0.1642 -0.5439 -0.2647
   41CHL1  H23A 5500   5.101   6.236   9.015  0.3074 -0.9890 -1.3982
   41CHL1  H23B 5501   5.223   6.245   9.139 -1.8522  1.2927 -0.8754
   41CHL1   C24 5502   5.263   6.095   8.972  0.3664 -0.0911 -0.1065
   41CHL1  H24A 5503   5.339   6.031   9.022  0.5298  0.2849  0.1294
   41CHL1  H24B 5504   5.193   6.019   8.930  0.6841 -1.4457  1.6520
   41CHL1   C25 5505   5.354   6.186   8.890 -0.6878  0.1389 -0.4194
   41CHL1   H25 5506   5.288   6.269   8.858  0.5311  1.1929 -0.2633
   41CHL1   C26 5507   5.464   6.255   8.966  0.4475 -0.7623 -0.3009
   41CHL1  H26A 5508   5.494   6.348   8.915 -1.2443 -1.2465 -2.3304
   41CHL1  H26B 5509   5.428   6.288   9.066 -1.7977  0.2401 -1.3676
   41CHL1  H26C 5510   5.554   6.191   8.974  2.0020  1.3356 -0.2048
   41CHL1   C27 5511   5.419   6.098   8.781 -0.4735 -0.6025  0.2050
   41CHL1  H27A 5512   5.473   6.152   8.701 -1.5250 -3.3381 -2.5931
   41CHL1  H27B 5513   5.486   6.021   8.826 -2.2757 -2.2944  0.1687
   41CHL1  H27C 5514   5.336   6.041   8.733 -0.4695 -1.7321  1.4586
   42CHL1    C3 5515   6.853   5.243   9.877 -0.2141  0.0517 -0.5710
   42CHL1    H3 5516   6.956   5.214   9.908 -0.1841  1.5005  0.8191
   42CHL1    O3 5517   6.771   5.255   9.997 -0.5041 -0.4328 -0.0064
   42CHL1   H3' 5518   6.827   5.209  10.061  0.6842  1.2268  0.2066
   42CHL1    C4 5519   6.862   5.373   9.796 -0.2143  0.2057 -0.8805
   42CHL1   H4A 5520   6.755   5.396   9.773 -1.3624 -2.1471  1.5562
   42CHL1   H4B 5521   6.898   5.455   9.861 -1.4893 -0.4979  0.7894
   42CHL1    C5 5522   6.940   5.353   9.669  0.1370 -0.2492  0.4452
   42CHL1    C6 5523   7.046   5.430   9.630  0.0199 -0.4587  0.3975
   42CHL1    H6 5524   7.076   5.512   9.698  2.5326 -2.7807  2.3060
   42CHL1    C7 5525   7.122   5.408   9.497  0.0102 -0.2689 -0.7227
   42CHL1   H7A 5526   7.147   5.505   9.449  0.1146  0.5865  0.9638
   42CHL1   H7B 5527   7.218   5.352   9.509  0.3768  0.3226 -0.8458
   42CHL1    C8 5528   7.035   5.328   9.395  0.6220 -0.0350  0.6491
   42CHL1    H8 5529   6.958   5.398   9.355  1.1492  0.3583  0.3268
   42CHL1   C14 5530   7.116   5.295   9.277 -0.0535  0.0812  0.4101
   42CHL1   H14 5531   7.193   5.224   9.315 -0.8045 -0.3576  1.1285
   42CHL1   C15 5532   7.193   5.406   9.206 -0.4991 -0.3422 -0.0639
   42CHL1  H15A 5533   7.127   5.485   9.165 -0.4727 -0.0116  0.5088
   42CHL1  H15B 5534   7.273   5.458   9.264 -1.2487  0.0744  0.6327
   42CHL1   C16 5535   7.245   5.341   9.077  0.0598  0.2817  0.1091
   42CHL1  H16A 5536   7.229   5.413   8.994 -1.3809 -2.4698 -2.1932
   42CHL1  H16B 5537   7.351   5.313   9.091  0.0565 -0.3644 -1.0072
   42CHL1   C17 5538   7.154   5.214   9.056 -0.0855 -1.0365  0.3210
   42CHL1   H17 5539   7.218   5.126   9.075  0.2951 -1.3057 -1.9278
   42CHL1   C13 5540   7.041   5.215   9.164  0.3946  0.3183 -1.2350
   42CHL1   C18 5541   6.915   5.286   9.116 -0.0622 -0.2609 -0.0015
   42CHL1  H18A 5542   6.949   5.387   9.084 -0.0156 -0.5278 -0.8373
   42CHL1  H18B 5543   6.878   5.234   9.025  0.3282 -2.3691  0.9988
   42CHL1  H18C 5544   6.839   5.299   9.195  1.8090  2.7607  1.5165
   42CHL1   C12 5545   7.013   5.081   9.228  0.0560  0.2756  0.2457
   42CHL1  H12A 5546   6.956   5.020   9.155 -0.6129  2.3381 -1.0143
   42CHL1  H12B 5547   7.106   5.024   9.248 -0.4342 -0.4230  0.6111
   42CHL1   C11 5548   6.937   5.093   9.364 -0.0108 -0.3496  0.1585
   42CHL1  H11A 5549   6.830   5.107   9.340 -0.6996 -2.3435  1.7789
   42CHL1  H11B 5550   6.948   4.996   9.418 -0.5879 -1.3163 -1.4206
   42CHL1    C9 5551   6.984   5.206   9.465 -0.0704  0.3270  0.1117
   42CHL1    H9 5552   7.072   5.154   9.510  0.4747  1.8143  0.8283
   42CHL1   C10 5553   6.886   5.239   9.579  0.0342 -0.5874  0.8310
   42CHL1   C19 5554   6.745   5.279   9.526 -0.3304  0.2905 -0.3656
   42CHL1  H19A 5555   6.689   5.195   9.480  0.7948 -0.9473  0.4468
   42CHL1  H19B 5556   6.684   5.322   9.609 -2.0830 -3.0254  0.2538
   42CHL1  H19C 5557   6.771   5.354   9.449 -0.5637 -0.8079 -1.5512
   42CHL1    C1 5558   6.870   5.101   9.663 -0.4194  0.2432 -0.1036
   42CHL1   H1A 5559   6.798   5.037   9.607 -1.2031 -0.5496  1.7182
   42CHL1   H1B 5560   6.968   5.052   9.677 -0.3478  0.7764  1.4399
   42CHL1    C2 5561   6.802   5.118   9.801  0.1551 -0.5279  0.3027
   42CHL1   H2A 5562   6.791   5.034   9.873  0.1046  1.0613  2.2292
   42CHL1   H2B 5563   6.696   5.138   9.771  0.6298  1.2270 -0.3446
   42CHL1   C20 5564   7.114   5.197   8.905 -0.2858 -0.5065 -0.0907
   42CHL1   H20 5565   7.060   5.288   8.874  3.5937  1.3926 -2.0970
   42CHL1   C21 5566   7.042   5.062   8.891 -0.3715 -0.3251 -0.8080
   42CHL1  H21A 5567   6.940   5.051   8.932 -0.4024 -2.9359 -1.3813
   42CHL1  H21B 5568   7.099   4.981   8.942 -1.4335 -0.6054 -0.0343
   42CHL1  H21C 5569   7.030   5.030   8.785  3.9272 -0.3222 -1.4799
   42CHL1   C22 5570   7.232   5.203   8.810 -0.1568 -0.5464  0.2669
   42CHL1  H22A 5571   7.295   5.294   8.818 -1.3360  0.3277  0.0037
   42CHL1  H22B 5572   7.303   5.119   8.823 -0.8773 -1.0872  0.7478
   42CHL1   C23 5573   7.194   5.200   8.660 -0.0407 -0.2321  0.5800
   42CHL1  H23A 5574   7.123   5.118   8.637  0.3889 -0.1586 -1.0957
   42CHL1  H23B 5575   7.133   5.290   8.636 -0.8236 -0.9522 -0.1877
   42CHL1   C24 5576   7.307   5.198   8.558 -0.6195 -0.7296  0.2452
   42CHL1  H24A 5577   7.372   5.286   8.577  1.2816 -1.5977 -1.7333
   42CHL1  H24B 5578   7.367   5.105   8.567 -0.9927 -1.2223 -1.8295
   42CHL1   C25 5579   7.260   5.232   8.416 -0.4700 -0.2613  0.3952
   42CHL1   H25 5580   7.170   5.297   8.424  0.8260  1.6230  0.5451
   42CHL1   C26 5581   7.364   5.311   8.339  0.0627  0.7633  0.0228
   42CHL1  H26A 5582   7.342   5.315   8.230  0.8088 -2.4572 -0.3588
   42CHL1  H26B 5583   7.374   5.414   8.380 -0.9448  0.2628  1.6162
   42CHL1  H26C 5584   7.464   5.264   8.341 -0.8976 -1.5054 -1.3515
   42CHL1   C27 5585   7.218   5.106   8.334 -0.1300 -0.0599  0.1157
   42CHL1  H27A 5586   7.311   5.053   8.306 -1.5332 -1.9561 -1.2718
   42CHL1  H27B 5587   7.146   5.049   8.398  1.2772  0.0950  1.9018
   42CHL1  H27C 5588   7.168   5.139   8.240  0.3630  1.3725  0.3297
   43CHL1    C3 5589   6.124   4.674  10.101 -0.1515  0.6842 -0.5481
   43CHL1    H3 5590   6.128   4.779  10.064  0.7054  0.4584 -1.1151
   43CHL1    O3 5591   6.083   4.679  10.233  1.0282  0.1346  0.0943
   43CHL1   H3' 5592   5.993   4.644  10.225  0.9324  0.8593 -2.7818
   43CHL1    C4 5593   6.023   4.591  10.017  0.3953  0.0824 -0.1474
   43CHL1   H4A 5594   6.005   4.495  10.070  0.1533  1.5508  2.6681
   43CHL1   H4B 5595   5.924   4.639  10.030  2.4356  4.1396  3.4214
   43CHL1    C5 5596   6.071   4.573   9.877  0.5910 -0.7128 -0.0355
   43CHL1    C6 5597   5.991   4.621   9.778  0.2171  0.0213 -0.3515
   43CHL1    H6 5598   5.888   4.649   9.805  0.6052  1.6327 -0.4959
   43CHL1    C7 5599   6.025   4.609   9.635 -0.0257  0.4259 -0.1789
   43CHL1   H7A 5600   5.941   4.561   9.582 -2.3467  1.3493  2.4405
   43CHL1   H7B 5601   6.070   4.700   9.589  1.4844 -0.7406 -1.1118
   43CHL1    C8 5602   6.148   4.511   9.611 -0.0472  0.1647 -0.4914
   43CHL1    H8 5603   6.124   4.403   9.618 -0.4264  0.3057  0.5745
   43CHL1   C14 5604   6.192   4.542   9.476  0.3433  0.0400 -0.1002
   43CHL1   H14 5605   6.226   4.648   9.471  1.5126 -0.2034  1.7587
   43CHL1   C15 5606   6.087   4.535   9.362  0.7366 -0.1112 -0.2480
   43CHL1  H15A 5607   6.025   4.442   9.372 -0.2752  0.6098  0.3804
   43CHL1  H15B 5608   6.000   4.604   9.357 -0.4165 -1.4235  0.6058
   43CHL1   C16 5609   6.174   4.535   9.237 -0.3954 -0.0570  0.0766
   43CHL1  H16A 5610   6.140   4.466   9.156  1.6568 -0.1317 -0.7909
   43CHL1  H16B 5611   6.168   4.641   9.205 -1.6110  0.1358  0.8851
   43CHL1   C17 5612   6.322   4.504   9.276  0.0249  0.2894 -0.3886
   43CHL1   H17 5613   6.369   4.604   9.284 -0.3733  0.3738  1.0871
   43CHL1   C13 5614   6.307   4.461   9.427 -1.4492 -0.5791 -0.4160
   43CHL1   C18 5615   6.286   4.306   9.425 -0.2347 -0.2368 -1.3128
   43CHL1  H18A 5616   6.365   4.240   9.382  0.2158 -1.9942  1.9112
   43CHL1  H18B 5617   6.282   4.276   9.532 -0.1931  2.6106 -0.4331
   43CHL1  H18C 5618   6.192   4.286   9.370  0.1230 -0.2730 -1.9274
   43CHL1   C12 5619   6.430   4.504   9.522 -0.0888  0.3316 -0.5405
   43CHL1  H12A 5620   6.522   4.453   9.487 -0.6709 -0.7959 -0.5079
   43CHL1  H12B 5621   6.446   4.613   9.512 -0.6397  0.4074 -0.6244
   43CHL1   C11 5622   6.399   4.478   9.670  0.4971  0.4426  0.4377
   43CHL1  H11A 5623   6.393   4.368   9.680  0.4233  0.4691  0.7038
   43CHL1  H11B 5624   6.475   4.517   9.741  0.3238  0.2205  0.7454
   43CHL1    C9 5625   6.260   4.542   9.713 -0.2004 -0.1433  0.0728
   43CHL1    H9 5626   6.280   4.650   9.691  1.8459  0.2299  3.1417
   43CHL1   C10 5627   6.215   4.526   9.861  0.6283  0.2338  0.5281
   43CHL1   C19 5628   6.231   4.373   9.897 -0.6090  0.1057  0.5030
   43CHL1  H19A 5629   6.205   4.335   9.998 -0.6471 -1.2502 -0.0058
   43CHL1  H19B 5630   6.173   4.319   9.819  0.7207 -0.5975 -0.0301
   43CHL1  H19C 5631   6.339   4.348   9.889 -0.7274 -0.0265 -0.8855
   43CHL1    C1 5632   6.311   4.596   9.953 -0.0247 -0.0176 -0.0076
   43CHL1   H1A 5633   6.410   4.547   9.956  0.0759  0.2405  1.3888
   43CHL1   H1B 5634   6.322   4.697   9.910  0.5230 -0.6509 -1.4277
   43CHL1    C2 5635   6.260   4.603  10.101 -0.4457 -0.0466  0.2198
   43CHL1   H2A 5636   6.325   4.669  10.162  0.9844  0.3251 -1.6055
   43CHL1   H2B 5637   6.261   4.504  10.153 -1.1274  0.1555  0.6126
   43CHL1   C20 5638   6.392   4.418   9.176 -0.4272 -0.2851 -0.2717
   43CHL1   H20 5639   6.342   4.319   9.184  1.1593 -0.9646  4.2912
   43CHL1   C21 5640   6.540   4.412   9.217 -0.1169 -0.2546 -0.2181
   43CHL1  H21A 5641   6.551   4.344   9.304 -3.6645 -2.1823 -1.0591
   43CHL1  H21B 5642   6.573   4.513   9.247 -3.0224  0.3748  1.2449
   43CHL1  H21C 5643   6.611   4.370   9.143  2.3320  0.3729  1.6758
   43CHL1   C22 5644   6.388   4.476   9.030  0.2290  0.2336  0.3237
   43CHL1  H22A 5645   6.285   4.495   8.992  1.6097  0.4855 -3.7445
   43CHL1  H22B 5646   6.442   4.572   9.016  0.0368  0.1073 -1.4218
   43CHL1   C23 5647   6.451   4.388   8.923  0.2655 -0.3376  0.7449
   43CHL1  H23A 5648   6.560   4.376   8.936  0.2304 -3.1899 -0.9286
   43CHL1  H23B 5649   6.420   4.282   8.935  3.6223 -1.6738 -1.1631
   43CHL1   C24 5650   6.432   4.441   8.780 -0.1783  0.3517  0.6769
   43CHL1  H24A 5651   6.328   4.460   8.746 -0.0493 -1.5933 -0.9685
   43CHL1  H24B 5652   6.466   4.547   8.783  1.7247 -0.2340  0.7783
   43CHL1   C25 5653   6.482   4.357   8.664  0.0183  0.2867  0.3104
   43CHL1   H25 5654   6.590   4.334   8.682  0.2424  1.5655  0.6591
   43CHL1   C26 5655   6.407   4.224   8.647  0.4031 -0.1983  0.1666
   43CHL1  H26A 5656   6.411   4.168   8.743  0.3693 -0.0648  0.2470
   43CHL1  H26B 5657   6.303   4.229   8.608  1.3095 -1.0070 -2.6206
   43CHL1  H26C 5658   6.459   4.159   8.573 -0.2752  0.9358 -1.3502
   43CHL1   C27 5659   6.478   4.439   8.536  0.2244 -0.6308  1.2048
   43CHL1  H27A 5660   6.373   4.474   8.536  0.8475  1.3806  1.1428
   43CHL1  H27B 5661   6.551   4.523   8.537 -0.0706 -0.1812 -2.2679
   43CHL1  H27C 5662   6.513   4.382   8.447  0.8106  0.5361  0.6607
   44CHL1    C3 5663   6.710   4.626   9.949  0.1703  0.8640  0.3815
   44CHL1    H3 5664   6.610   4.585   9.923  0.2418  0.9172  0.0045
   44CHL1    O3 5665   6.718   4.646  10.087  0.3680  0.3968  0.5802
   44CHL1   H3' 5666   6.789   4.710  10.101 -1.7496  2.9052  0.5105
   44CHL1    C4 5667   6.818   4.531   9.894 -0.0780  0.4057  0.1801
   44CHL1   H4A 5668   6.914   4.567   9.936  0.9415 -0.0510 -1.6234
   44CHL1   H4B 5669   6.795   4.428   9.931  0.5989 -0.0644 -0.6502
   44CHL1    C5 5670   6.838   4.517   9.745  0.3689 -0.2692  0.2475
   44CHL1    C6 5671   6.841   4.399   9.681 -0.4438  0.1059  0.1936
   44CHL1    H6 5672   6.849   4.304   9.737  0.2056 -0.6329 -1.1054
   44CHL1    C7 5673   6.861   4.376   9.535  0.0506  1.0713  0.3354
   44CHL1   H7A 5674   6.936   4.297   9.513 -0.8688  0.2038  0.2049
   44CHL1   H7B 5675   6.772   4.328   9.488  1.1095  0.6625 -1.3366
   44CHL1    C8 5676   6.911   4.509   9.462  0.0142 -0.2558 -0.1607
   44CHL1    H8 5677   7.019   4.530   9.474  0.0462  0.6980 -1.8637
   44CHL1   C14 5678   6.896   4.503   9.310  0.6921  0.3478 -0.2547
   44CHL1   H14 5679   6.786   4.489   9.311  0.6235  0.6044  2.2753
   44CHL1   C15 5680   6.951   4.377   9.236 -0.4213  0.2830  0.4066
   44CHL1  H15A 5681   7.058   4.354   9.256 -0.2907 -0.4642 -1.0156
   44CHL1  H15B 5682   6.891   4.284   9.250  0.1553 -0.4317 -1.5075
   44CHL1   C16 5683   6.929   4.418   9.092  0.9340 -1.8317  0.0036
   44CHL1  H16A 5684   7.019   4.409   9.027  1.8974  2.2868  0.4704
   44CHL1  H16B 5685   6.859   4.355   9.033  0.6920 -1.7923  0.2506
   44CHL1   C17 5686   6.875   4.568   9.089 -0.1027 -0.2256  0.7558
   44CHL1   H17 5687   6.765   4.556   9.080 -0.4084  1.5960  1.5080
   44CHL1   C13 5688   6.912   4.627   9.226 -0.7175  0.4346  0.0446
   44CHL1   C18 5689   7.060   4.674   9.224 -0.0672  0.0670 -0.8974
   44CHL1  H18A 5690   7.063   4.776   9.180 -1.7382  1.2147  1.4861
   44CHL1  H18B 5691   7.102   4.673   9.327 -0.9850 -2.2564 -0.4827
   44CHL1  H18C 5692   7.112   4.598   9.162 -0.0739  0.1607 -1.0194
   44CHL1   C12 5693   6.805   4.723   9.276  0.4109  0.0673 -0.6586
   44CHL1  H12A 5694   6.821   4.826   9.236 -0.0569  0.9401  1.2710
   44CHL1  H12B 5695   6.699   4.699   9.255  0.4201 -0.5165 -0.0385
   44CHL1   C11 5696   6.825   4.740   9.423  0.0110 -0.4140  0.6679
   44CHL1  H11A 5697   6.930   4.774   9.434  0.1088  0.3409 -1.9649
   44CHL1  H11B 5698   6.765   4.824   9.465  0.8537 -0.8330  2.8493
   44CHL1    C9 5699   6.822   4.617   9.514 -0.4101  0.4035 -0.3827
   44CHL1    H9 5700   6.718   4.579   9.507 -0.5517  0.9616 -1.4367
   44CHL1   C10 5701   6.841   4.650   9.665 -0.5884 -0.3227 -0.2937
   44CHL1   C19 5702   6.963   4.736   9.686  0.0637 -0.2037  0.0825
   44CHL1  H19A 5703   6.978   4.761   9.794 -0.3320  0.3134  0.0245
   44CHL1  H19B 5704   7.052   4.716   9.623  0.6468  0.0548  0.7979
   44CHL1  H19C 5705   6.937   4.839   9.652 -0.5994  1.1657  4.1328
   44CHL1    C1 5706   6.719   4.730   9.718 -0.2401  0.3755 -1.4228
   44CHL1   H1A 5707   6.709   4.825   9.662 -0.3931  1.7116  0.7535
   44CHL1   H1B 5708   6.631   4.672   9.684  1.0799 -1.4488 -1.8559
   44CHL1    C2 5709   6.710   4.758   9.870 -0.5458 -0.3115  0.0241
   44CHL1   H2A 5710   6.617   4.814   9.894 -1.4570 -3.1701  4.2506
   44CHL1   H2B 5711   6.802   4.812   9.902 -0.1985 -0.0655 -1.3272
   44CHL1   C20 5712   6.917   4.648   8.958 -0.0668  0.3631  0.2618
   44CHL1   H20 5713   7.025   4.672   8.972  0.5335 -1.2079 -1.2986
   44CHL1   C21 5714   6.827   4.767   8.939  0.5025  0.0603 -0.1557
   44CHL1  H21A 5715   6.819   4.836   9.026 -1.5404  1.6087 -1.4808
   44CHL1  H21B 5716   6.730   4.717   8.918 -0.5304  2.0069 -0.2236
   44CHL1  H21C 5717   6.844   4.831   8.850  0.3009  1.2529  0.6347
   44CHL1   C22 5718   6.911   4.556   8.828  0.1798 -0.5913 -0.5262
   44CHL1  H22A 5719   6.984   4.472   8.826 -0.1284 -0.8542 -1.1598
   44CHL1  H22B 5720   6.809   4.512   8.828  0.2960 -0.8783 -0.8793
   44CHL1   C23 5721   6.937   4.635   8.693 -0.4631  1.0912  0.2916
   44CHL1  H23A 5722   6.853   4.708   8.689 -0.4753  1.0323 -0.9850
   44CHL1  H23B 5723   7.035   4.687   8.695 -1.1648  2.4710  0.6200
   44CHL1   C24 5724   6.949   4.550   8.570 -0.2150 -0.0453 -0.0809
   44CHL1  H24A 5725   7.022   4.470   8.599  0.5001  0.9425  0.9393
   44CHL1  H24B 5726   6.849   4.507   8.549 -0.5864  0.2866  0.9651
   44CHL1   C25 5727   7.008   4.627   8.440  0.7148  0.6763  1.1209
   44CHL1   H25 5728   7.113   4.647   8.469  0.4581  0.0576  2.5597
   44CHL1   C26 5729   7.005   4.532   8.313  0.0750  0.2186 -0.3585
   44CHL1  H26A 5730   7.067   4.444   8.338 -1.5946 -0.4184  1.8224
   44CHL1  H26B 5731   6.898   4.504   8.301 -0.4178  1.9192 -0.2337
   44CHL1  H26C 5732   7.038   4.590   8.223  1.7530  0.0941  0.1367
   44CHL1   C27 5733   6.925   4.755   8.418  0.0906  0.1480 -0.4936
   44CHL1  H27A 5734   6.824   4.731   8.380  1.4028 -1.0222 -3.5743
   44CHL1  H27B 5735   6.915   4.818   8.510  2.1343  0.5896 -0.5137
   44CHL1  H27C 5736   6.986   4.808   8.341  0.2753  0.1184 -0.3699
   45CHL1    C3 5737   5.200   4.896  10.185 -1.0695  0.2518 -0.0410
   45CHL1    H3 5738   5.092   4.899  10.209 -0.6673 -2.4624  2.7413
   45CHL1    O3 5739   5.279   4.869  10.301 -0.4447  0.0075  0.6566
   45CHL1   H3' 5740   5.267   4.943  10.361 -0.9620  0.0057  0.5589
   45CHL1    C4 5741   5.232   4.782  10.084  0.0916  0.3270  0.3923
   45CHL1   H4A 5742   5.342   4.766  10.080  0.0478  0.2784 -0.7068
   45CHL1   H4B 5743   5.204   4.692  10.142 -0.2780  1.4239  2.0024
   45CHL1    C5 5744   5.154   4.785   9.955 -0.6410 -0.2921  0.7903
   45CHL1    C6 5745   5.092   4.676   9.898 -0.0259 -0.0228  0.0567
   45CHL1    H6 5746   5.095   4.579   9.951  1.8404  1.5633  3.1076
   45CHL1    C7 5747   5.024   4.681   9.764 -0.5343  0.2197 -0.7234
   45CHL1   H7A 5748   5.084   4.611   9.701  0.7895  0.0620  0.6512
   45CHL1   H7B 5749   4.917   4.653   9.773 -0.4806 -0.1410 -1.1743
   45CHL1    C8 5750   5.024   4.819   9.694 -0.2582  0.0690  0.4104
   45CHL1    H8 5751   4.918   4.830   9.661  0.1515 -1.4523 -1.7051
   45CHL1   C14 5752   5.086   4.821   9.545  0.5476 -0.4493  0.2719
   45CHL1   H14 5753   5.190   4.781   9.544  1.6874  2.2711 -1.3312
   45CHL1   C15 5754   5.001   4.723   9.461  0.0344  0.0280 -0.1152
   45CHL1  H15A 5755   5.038   4.618   9.463  1.0909  0.3187 -1.9316
   45CHL1  H15B 5756   4.895   4.719   9.492  0.1295 -1.1850  0.0998
   45CHL1   C16 5757   4.994   4.775   9.319  0.5589 -0.0609 -0.4395
   45CHL1  H16A 5758   5.069   4.727   9.253  1.4400 -0.5423  0.8737
   45CHL1  H16B 5759   4.892   4.759   9.279  0.4709 -0.3791 -0.0874
   45CHL1   C17 5760   5.008   4.930   9.334  0.0274 -0.4854  0.3000
   45CHL1   H17 5761   4.903   4.965   9.333 -0.1873 -1.0395  1.5080
   45CHL1   C13 5762   5.079   4.957   9.471 -0.4477 -0.0126  0.5674
   45CHL1   C18 5763   5.225   4.987   9.445 -0.4620  0.2556 -0.3741
   45CHL1  H18A 5764   5.235   5.083   9.391 -0.9184  1.2645  1.2445
   45CHL1  H18B 5765   5.277   5.005   9.542 -1.5794 -0.8265  0.4606
   45CHL1  H18C 5766   5.267   4.894   9.401  0.2724  0.6413 -0.4963
   45CHL1   C12 5767   5.017   5.071   9.552  0.1788 -0.5197 -0.1428
   45CHL1  H12A 5768   5.049   5.169   9.510 -0.4004 -0.0229  0.5574
   45CHL1  H12B 5769   4.907   5.069   9.541  0.2625 -1.4547 -0.9004
   45CHL1   C11 5770   5.062   5.077   9.700  0.6598  0.5870  0.0341
   45CHL1  H11A 5771   5.165   5.118   9.694  0.7537  0.3088 -0.2711
   45CHL1  H11B 5772   5.003   5.158   9.748  0.6870  0.4359  0.3259
   45CHL1    C9 5773   5.053   4.947   9.785  0.3881  0.2374 -0.6202
   45CHL1    H9 5774   4.965   4.960   9.851  0.2073 -0.4209 -0.7221
   45CHL1   C10 5775   5.169   4.922   9.887  0.4828  0.7294 -0.3526
   45CHL1   C19 5776   5.301   4.913   9.802 -0.0580 -0.1904  0.4403
   45CHL1  H19A 5777   5.287   4.856   9.708  2.6970  0.8139 -0.6752
   45CHL1  H19B 5778   5.339   5.015   9.779 -0.4729 -0.1185  0.0694
   45CHL1  H19C 5779   5.375   4.861   9.866 -0.3120  1.7847  2.4822
   45CHL1    C1 5780   5.167   5.044   9.988  0.4991  0.4386  0.5718
   45CHL1   H1A 5781   5.207   5.134   9.938 -0.4052  0.2324 -0.5616
   45CHL1   H1B 5782   5.064   5.080  10.004 -1.2116 -1.8564 -3.6709
   45CHL1    C2 5783   5.239   5.032  10.129  0.0438 -0.2704 -0.0151
   45CHL1   H2A 5784   5.218   5.121  10.193 -1.2028 -0.7947  0.3497
   45CHL1   H2B 5785   5.348   5.023  10.110  0.5299 -1.2669  2.7932
   45CHL1   C20 5786   5.066   4.993   9.204 -0.1668  0.5478  0.1210
   45CHL1   H20 5787   5.175   4.969   9.198 -0.2247  0.6257 -1.6037
   45CHL1   C21 5788   5.037   5.152   9.212  0.0807  0.0771 -0.5120
   45CHL1  H21A 5789   5.073   5.199   9.306  0.1657 -2.0702  0.5847
   45CHL1  H21B 5790   4.927   5.171   9.208 -0.1994 -0.5198  2.4403
   45CHL1  H21C 5791   5.080   5.200   9.121 -0.5124 -1.4322 -1.6430
   45CHL1   C22 5792   5.004   4.940   9.075  0.3112 -0.1520  0.0895
   45CHL1  H22A 5793   5.006   4.829   9.065 -0.5109 -0.3095  1.4959
   45CHL1  H22B 5794   4.898   4.965   9.097  0.2812  0.6378 -0.8871
   45CHL1   C23 5795   5.029   5.010   8.942  0.0205 -0.5141  0.0289
   45CHL1  H23A 5796   5.024   5.120   8.947  0.0862 -0.4235 -1.4602
   45CHL1  H23B 5797   5.138   4.997   8.922  0.3129  0.6844  0.8012
   45CHL1   C24 5798   4.941   4.957   8.826 -0.1558 -0.5307 -0.0036
   45CHL1  H24A 5799   4.969   4.852   8.799  1.6797 -0.6391  2.0488
   45CHL1  H24B 5800   4.836   4.954   8.862 -0.8188 -1.5096 -1.8610
   45CHL1   C25 5801   4.945   5.042   8.696  0.7455 -0.2838  0.5710
   45CHL1   H25 5802   4.901   4.981   8.614  0.5346  0.3601  0.2014
   45CHL1   C26 5803   4.858   5.164   8.712  0.5278 -0.1721  0.4656
   45CHL1  H26A 5804   4.756   5.136   8.744 -0.4598 -0.1881 -2.4421
   45CHL1  H26B 5805   4.904   5.229   8.789 -0.0850  0.5212  0.2560
   45CHL1  H26C 5806   4.858   5.219   8.616  2.3172  0.1029  0.5752
   45CHL1   C27 5807   5.079   5.086   8.640  0.7086  0.5757  0.5769
   45CHL1  H27A 5808   5.148   5.001   8.626  1.2309  0.8820  1.2414
   45CHL1  H27B 5809   5.058   5.146   8.548  1.1115 -0.8518 -0.4762
   45CHL1  H27C 5810   5.136   5.157   8.705  0.8891  0.9914 -0.0200
   46CHL1    C3 5811   2.200   0.666  10.188 -0.0019 -0.7047 -0.5026
   46CHL1    H3 5812   2.293   0.613  10.219 -0.6591 -0.7633  1.4644
   46CHL1    O3 5813   2.137   0.669  10.318  0.4085  0.8852  0.1941
   46CHL1   H3' 5814   2.068   0.734  10.307  0.0992  0.0854 -4.0596
   46CHL1    C4 5815   2.225   0.808  10.137  0.0584 -0.0096  0.2721
   46CHL1   H4A 5816   2.139   0.878  10.128  0.6087  0.5037 -1.3056
   46CHL1   H4B 5817   2.300   0.848  10.209 -0.0789 -0.1154  0.4721
   46CHL1    C5 5818   2.299   0.798  10.005  0.1096 -0.3782  0.5023
   46CHL1    C6 5819   2.421   0.854   9.984 -0.4551  0.0567  0.6058
   46CHL1    H6 5820   2.475   0.913  10.059 -1.1962  0.0720  1.1393
   46CHL1    C7 5821   2.494   0.856   9.854  0.0970  0.0457 -0.1085
   46CHL1   H7A 5822   2.540   0.955   9.834  1.7101 -0.9632 -1.7801
   46CHL1   H7B 5823   2.570   0.775   9.865 -0.5081 -0.2608  2.2653
   46CHL1    C8 5824   2.400   0.825   9.737 -0.6741 -0.3059 -0.8985
   46CHL1    H8 5825   2.340   0.917   9.723  2.5131  2.3037  1.2770
   46CHL1   C14 5826   2.488   0.803   9.619 -0.5116  0.4450  0.1024
   46CHL1   H14 5827   2.545   0.711   9.641 -1.0044  0.3444  0.9996
   46CHL1   C15 5828   2.592   0.904   9.584 -0.1545 -0.3368 -0.1930
   46CHL1  H15A 5829   2.552   1.006   9.602 -4.2321 -1.7596 -0.2208
   46CHL1  H15B 5830   2.681   0.886   9.647  0.9024 -1.8262 -2.0005
   46CHL1   C16 5831   2.619   0.875   9.436 -0.4854 -0.4124 -0.1114
   46CHL1  H16A 5832   2.579   0.963   9.381 -0.1660 -0.0572  0.2153
   46CHL1  H16B 5833   2.726   0.868   9.407 -0.0890  3.2002 -0.0354
   46CHL1   C17 5834   2.522   0.762   9.392 -0.6716 -0.1522  0.0088
   46CHL1   H17 5835   2.582   0.670   9.409  0.3134  0.7592  1.7504
   46CHL1   C13 5836   2.405   0.771   9.497  0.2537  0.4384 -0.2558
   46CHL1   C18 5837   2.307   0.894   9.464 -0.4259 -0.2742  0.2561
   46CHL1  H18A 5838   2.240   0.904   9.553 -0.0439 -1.8348  0.7557
   46CHL1  H18B 5839   2.379   0.979   9.460  1.5443 -1.8460  0.5076
   46CHL1  H18C 5840   2.253   0.870   9.371  2.0916 -0.3266 -1.2937
   46CHL1   C12 5841   2.334   0.640   9.525  0.2641 -0.6035  0.3978
   46CHL1  H12A 5842   2.286   0.601   9.433  1.7511 -0.9695 -0.2660
   46CHL1  H12B 5843   2.404   0.559   9.555  1.4640  0.1554 -0.2558
   46CHL1   C11 5844   2.239   0.655   9.641  0.5513  0.0511  0.3712
   46CHL1  H11A 5845   2.154   0.718   9.607  0.0151  0.5561  2.4829
   46CHL1  H11B 5846   2.191   0.556   9.652 -0.0624  0.2439 -0.5100
   46CHL1    C9 5847   2.317   0.706   9.768  0.2072  0.1202  0.5398
   46CHL1    H9 5848   2.388   0.622   9.786 -0.5617 -0.5475  0.4860
   46CHL1   C10 5849   2.229   0.717   9.892  0.2199 -0.4132  0.4070
   46CHL1   C19 5850   2.106   0.806   9.863 -0.1481  0.6868  0.4083
   46CHL1  H19A 5851   2.044   0.816   9.955  0.6882  0.4834  1.0006
   46CHL1  H19B 5852   2.138   0.904   9.821  0.0814  0.3379 -0.2517
   46CHL1  H19C 5853   2.049   0.765   9.776  1.7061  0.6022 -0.8159
   46CHL1    C1 5854   2.176   0.580   9.946 -0.4673  0.5925  0.0291
   46CHL1   H1A 5855   2.102   0.532   9.878  0.4104 -1.0782  0.1977
   46CHL1   H1B 5856   2.255   0.502   9.943 -1.2278 -0.1864 -0.3357
   46CHL1    C2 5857   2.112   0.590  10.088  0.8891  0.1771 -0.7799
   46CHL1   H2A 5858   2.099   0.489  10.131 -0.1880 -0.5302 -2.6656
   46CHL1   H2B 5859   2.016   0.646  10.091  0.7219 -0.1548  1.0494
   46CHL1   C20 5860   2.484   0.775   9.241 -0.0594  0.5029 -0.7590
   46CHL1   H20 5861   2.435   0.872   9.218 -1.1655 -0.4097 -2.4128
   46CHL1   C21 5862   2.379   0.671   9.198 -0.4490  0.2177  0.0734
   46CHL1  H21A 5863   2.278   0.685   9.241 -0.8947 -3.8184  0.6563
   46CHL1  H21B 5864   2.415   0.570   9.228 -1.7115 -0.5898 -1.0375
   46CHL1  H21C 5865   2.362   0.655   9.090 -0.2974 -1.0360  0.2227
   46CHL1   C22 5866   2.611   0.751   9.153  0.5976 -0.8913 -0.3375
   46CHL1  H22A 5867   2.698   0.816   9.175  0.7846 -0.9196 -0.9780
   46CHL1  H22B 5868   2.654   0.651   9.176  1.4049 -0.2690  0.9520
   46CHL1   C23 5869   2.592   0.748   9.003 -0.3835  0.3848 -0.2013
   46CHL1  H23A 5870   2.543   0.651   8.983  2.3124 -1.7046  2.5613
   46CHL1  H23B 5871   2.521   0.824   8.964 -1.1367 -0.1532  0.1119
   46CHL1   C24 5872   2.731   0.758   8.926  0.3742 -0.3115 -0.1192
   46CHL1  H24A 5873   2.769   0.861   8.937  1.7839 -0.7724 -0.4336
   46CHL1  H24B 5874   2.814   0.688   8.953 -0.7221 -0.7469  2.4239
   46CHL1   C25 5875   2.721   0.753   8.778 -0.3647  0.5586 -0.8463
   46CHL1   H25 5876   2.686   0.652   8.748 -0.6152  0.5813 -0.6279
   46CHL1   C26 5877   2.633   0.861   8.720 -0.1264 -0.7183  0.0027
   46CHL1  H26A 5878   2.665   0.959   8.761 -1.5171 -0.1662 -0.1837
   46CHL1  H26B 5879   2.631   0.877   8.611 -0.9465  0.3285  0.1494
   46CHL1  H26C 5880   2.527   0.847   8.749 -0.9147 -0.8434 -2.7344
   46CHL1   C27 5881   2.859   0.766   8.723 -0.1484 -0.1022 -0.1746
   46CHL1  H27A 5882   2.915   0.671   8.740 -0.7055 -0.1982  1.2371
   46CHL1  H27B 5883   2.855   0.792   8.615 -1.1927 -0.2549 -0.1834
   46CHL1  H27C 5884   2.906   0.858   8.764 -1.0127  0.7504 -1.0575
   47CHL1    C3 5885   1.520   1.514   9.850 -0.1758 -0.5252 -0.3123
   47CHL1    H3 5886   1.616   1.557   9.813 -0.4343  1.5328  1.1943
   47CHL1    O3 5887   1.543   1.479   9.987  0.0693  0.1067 -0.0691
   47CHL1   H3' 5888   1.462   1.434  10.012  0.0461 -1.7971 -3.1087
   47CHL1    C4 5889   1.391   1.596   9.835 -0.9067 -0.5931  0.1871
   47CHL1   H4A 5890   1.301   1.544   9.871 -2.3350  0.6198 -1.4307
   47CHL1   H4B 5891   1.407   1.683   9.902 -1.3586  0.1147 -0.5946
   47CHL1    C5 5892   1.355   1.632   9.698  1.4596 -0.0528  0.0774
   47CHL1    C6 5893   1.336   1.762   9.674  0.5311  0.0250  0.1136
   47CHL1    H6 5894   1.340   1.836   9.755  0.7550 -0.7901  0.8591
   47CHL1    C7 5895   1.309   1.810   9.531  0.1136 -0.0946 -0.1605
   47CHL1   H7A 5896   1.244   1.900   9.533 -0.1506 -0.2610 -0.7571
   47CHL1   H7B 5897   1.410   1.838   9.496  0.3522  0.5648  1.0052
   47CHL1    C8 5898   1.266   1.701   9.428  0.6749  0.4971 -0.2862
   47CHL1    H8 5899   1.164   1.663   9.449  1.2673 -0.1998  1.6045
   47CHL1   C14 5900   1.274   1.747   9.283  0.3824 -0.0676 -0.5767
   47CHL1   H14 5901   1.381   1.772   9.267  1.3689 -1.9533  2.2745
   47CHL1   C15 5902   1.203   1.869   9.240  0.3480 -0.1023 -0.2346
   47CHL1  H15A 5903   1.098   1.877   9.277  0.4007  2.7469 -0.5135
   47CHL1  H15B 5904   1.258   1.957   9.278 -0.2414 -0.8682  2.7207
   47CHL1   C16 5905   1.208   1.861   9.090  0.5837 -0.1651  0.2905
   47CHL1  H16A 5906   1.104   1.877   9.056 -0.4376 -1.2308  2.7069
   47CHL1  H16B 5907   1.265   1.946   9.048  0.5740 -0.6012 -0.6320
   47CHL1   C17 5908   1.270   1.730   9.050 -0.2215  0.3361  0.8475
   47CHL1   H17 5909   1.381   1.733   9.039 -0.2549 -2.1891 -1.3432
   47CHL1   C13 5910   1.254   1.641   9.174 -0.0495 -0.3511 -0.1510
   47CHL1   C18 5911   1.106   1.593   9.184 -0.9234  0.9282  0.7099
   47CHL1  H18A 5912   1.102   1.555   9.288  0.6183  0.0247  0.4604
   47CHL1  H18B 5913   1.037   1.679   9.170  0.3667  2.1404  1.5107
   47CHL1  H18C 5914   1.082   1.509   9.115 -0.4273  1.3716 -0.0256
   47CHL1   C12 5915   1.349   1.530   9.201  0.1153 -0.6708  0.3343
   47CHL1  H12A 5916   1.341   1.446   9.129  0.7209 -1.3568  1.0413
   47CHL1  H12B 5917   1.456   1.551   9.178  0.5332 -1.6873  1.2853
   47CHL1   C11 5918   1.344   1.469   9.347  0.2256  0.9460 -0.6395
   47CHL1  H11A 5919   1.252   1.408   9.351  0.9568 -0.3395 -2.2046
   47CHL1  H11B 5920   1.430   1.399   9.347 -1.7046 -1.6699  2.4775
   47CHL1    C9 5921   1.358   1.580   9.450 -0.0465 -0.7801  1.0928
   47CHL1    H9 5922   1.458   1.627   9.440 -0.5389 -0.2317 -2.2619
   47CHL1   C10 5923   1.359   1.514   9.593  0.9026 -0.8212  0.1957
   47CHL1   C19 5924   1.233   1.428   9.616 -0.5120  0.1871  0.6380
   47CHL1  H19A 5925   1.264   1.329   9.576  0.7364  1.0835 -0.7273
   47CHL1  H19B 5926   1.208   1.414   9.723 -1.0534  1.0389  0.6385
   47CHL1  H19C 5927   1.142   1.471   9.567 -0.3221  1.7130  1.5493
   47CHL1    C1 5928   1.489   1.426   9.619  0.3746 -0.3149  0.1144
   47CHL1   H1A 5929   1.497   1.338   9.552  1.3603 -0.5654  0.5483
   47CHL1   H1B 5930   1.576   1.484   9.583  0.7810 -1.2313 -0.3963
   47CHL1    C2 5931   1.502   1.389   9.767  0.0989 -0.2299 -0.3906
   47CHL1   H2A 5932   1.598   1.338   9.789 -0.1092  0.2132  1.6906
   47CHL1   H2B 5933   1.408   1.335   9.790  0.5893 -1.0070 -0.1454
   47CHL1   C20 5934   1.216   1.675   8.918 -0.5378 -0.5709 -0.0161
   47CHL1   H20 5935   1.108   1.653   8.930 -1.0218  1.6357  0.0983
   47CHL1   C21 5936   1.280   1.536   8.882 -0.4048  0.0516 -0.3215
   47CHL1  H21A 5937   1.250   1.454   8.951 -0.7396 -0.7845 -1.4254
   47CHL1  H21B 5938   1.387   1.550   8.907  0.0215  1.4101 -2.6982
   47CHL1  H21C 5939   1.274   1.504   8.776 -1.0079 -2.5187  0.3928
   47CHL1   C22 5940   1.231   1.771   8.790 -0.6654 -0.6909 -0.1748
   47CHL1  H22A 5941   1.202   1.710   8.702  0.5229  0.5008 -1.4371
   47CHL1  H22B 5942   1.150   1.845   8.803 -1.4637 -1.8725  2.2677
   47CHL1   C23 5943   1.368   1.847   8.773  0.0581 -0.3664 -0.0870
   47CHL1  H23A 5944   1.382   1.926   8.849 -2.1781  1.1599 -1.1265
   47CHL1  H23B 5945   1.452   1.776   8.788 -0.0730 -0.4559  0.2256
   47CHL1   C24 5946   1.379   1.921   8.630 -0.4462 -0.4156  0.2521
   47CHL1  H24A 5947   1.370   1.849   8.546 -0.6245  0.5332 -0.5697
   47CHL1  H24B 5948   1.286   1.980   8.614 -0.5440 -0.3169  1.1368
   47CHL1   C25 5949   1.505   2.008   8.622  0.2146 -0.3131 -0.3720
   47CHL1   H25 5950   1.584   1.963   8.687 -0.5157 -0.7428  0.2318
   47CHL1   C26 5951   1.558   2.018   8.480  0.1768 -0.3938  0.0561
   47CHL1  H26A 5952   1.647   2.085   8.474  0.3589 -0.7057 -0.9360
   47CHL1  H26B 5953   1.482   2.066   8.414  0.4378 -2.1124 -1.5863
   47CHL1  H26C 5954   1.583   1.920   8.434 -1.2922 -0.1639 -1.3039
   47CHL1   C27 5955   1.471   2.150   8.668  0.4488  0.3507 -0.0238
   47CHL1  H27A 5956   1.406   2.155   8.759 -1.6410 -1.4758 -1.3135
   47CHL1  H27B 5957   1.567   2.202   8.689  0.4157  1.4967 -2.3662
   47CHL1  H27C 5958   1.423   2.208   8.586 -0.1590  1.2658  0.9466
   48CHL1    C3 5959   1.138   0.849   9.870  0.3472 -0.5028  0.3789
   48CHL1    H3 5960   1.056   0.788   9.826  0.5869  0.4193 -1.4401
   48CHL1    O3 5961   1.123   0.842  10.010  0.1908 -0.3046 -0.3688
   48CHL1   H3' 5962   1.117   0.932  10.041 -1.0760 -0.6126  0.3530
   48CHL1    C4 5963   1.274   0.792   9.823 -0.3019 -0.1260  0.1903
   48CHL1   H4A 5964   1.349   0.854   9.876 -0.6262  1.4078 -1.0846
   48CHL1   H4B 5965   1.281   0.687   9.858 -2.2618 -0.5384 -0.5189
   48CHL1    C5 5966   1.301   0.809   9.678  0.4194 -0.1329 -0.7823
   48CHL1    C6 5967   1.320   0.699   9.608 -0.0205 -0.1687 -0.6948
   48CHL1    H6 5968   1.319   0.599   9.655 -0.9569  0.3144  0.3348
   48CHL1    C7 5969   1.329   0.701   9.461  0.6004  0.2305 -0.4417
   48CHL1   H7A 5970   1.415   0.640   9.425 -0.1929 -1.4602  0.3991
   48CHL1   H7B 5971   1.235   0.656   9.423  1.2877 -0.1625 -1.7757
   48CHL1    C8 5972   1.352   0.844   9.405 -0.3185  0.0831 -0.5200
   48CHL1    H8 5973   1.453   0.872   9.440 -0.6315 -2.0860  2.4421
   48CHL1   C14 5974   1.348   0.845   9.249 -0.4684 -0.0413 -0.3078
   48CHL1   H14 5975   1.244   0.826   9.213 -0.6899  1.9813 -0.9024
   48CHL1   C15 5976   1.437   0.751   9.170 -0.2056  0.2244  0.6775
   48CHL1  H15A 5977   1.531   0.725   9.223  0.3580  1.4180  0.3018
   48CHL1  H15B 5978   1.384   0.656   9.148 -0.2779  0.4147  0.0162
   48CHL1   C16 5979   1.452   0.812   9.023 -0.2130 -0.0949 -0.2576
   48CHL1  H16A 5980   1.561   0.821   9.002  0.6377 -0.4651  3.3952
   48CHL1  H16B 5981   1.397   0.754   8.945 -2.6794 -2.0164  2.6841
   48CHL1   C17 5982   1.385   0.956   9.043  0.5264  0.2361  0.3051
   48CHL1   H17 5983   1.281   0.936   9.009  1.0348  0.6666 -1.6312
   48CHL1   C13 5984   1.388   0.989   9.192 -0.3540  0.4659  0.4672
   48CHL1   C18 5985   1.535   1.030   9.230 -0.2518 -0.2418 -0.7147
   48CHL1  H18A 5986   1.605   0.951   9.196  0.7222  0.7591 -1.1228
   48CHL1  H18B 5987   1.555   1.123   9.172 -0.3350  0.7932  0.8423
   48CHL1  H18C 5988   1.540   1.058   9.337  1.0324 -0.9030 -0.5927
   48CHL1   C12 5989   1.281   1.084   9.245 -0.3200 -0.1035  0.9705
   48CHL1  H12A 5990   1.298   1.189   9.213  0.2154 -0.8406 -1.3163
   48CHL1  H12B 5991   1.188   1.056   9.192 -0.0583  0.1606  0.3573
   48CHL1   C11 5992   1.275   1.087   9.399  0.0109  0.3443 -0.8511
   48CHL1  H11A 5993   1.366   1.139   9.437 -1.0624  2.1152 -0.5900
   48CHL1  H11B 5994   1.191   1.151   9.435  0.3956 -0.2406  1.2679
   48CHL1    C9 5995   1.266   0.947   9.467  0.5199  0.3337 -0.2837
   48CHL1    H9 5996   1.167   0.905   9.440  0.5529  1.0135 -1.5274
   48CHL1   C10 5997   1.274   0.951   9.620  0.2527 -0.0296  1.3016
   48CHL1   C19 5998   1.394   1.044   9.666  0.9702  0.5067 -0.3529
   48CHL1  H19A 5999   1.360   1.147   9.644 -0.3307  0.3581  0.8607
   48CHL1  H19B 6000   1.416   1.036   9.775  2.5265 -2.5884 -0.7741
   48CHL1  H19C 6001   1.489   1.019   9.614  2.2322  0.3798  1.8448
   48CHL1    C1 6002   1.139   1.003   9.679  0.1749  0.0100 -0.0005
   48CHL1   H1A 6003   1.129   1.111   9.651 -0.2893  0.2479  1.0356
   48CHL1   H1B 6004   1.051   0.963   9.623  1.5450 -0.8554 -1.6091
   48CHL1    C2 6005   1.122   0.990   9.832  0.3188 -0.6346 -0.4386
   48CHL1   H2A 6006   1.026   1.039   9.859  1.7856  2.1206  0.0791
   48CHL1   H2B 6007   1.202   1.051   9.878 -1.1731  1.7066 -0.8212
   48CHL1   C20 6008   1.449   1.059   8.940  0.3251 -0.2479  0.0596
   48CHL1   H20 6009   1.555   1.078   8.970  0.9986 -1.5866 -1.3495
   48CHL1   C21 6010   1.374   1.195   8.955  0.1830 -0.4081 -0.1028
   48CHL1  H21A 6011   1.401   1.265   8.873 -0.6192 -0.5110 -0.4641
   48CHL1  H21B 6012   1.385   1.249   9.052  0.3420  1.2962 -1.0357
   48CHL1  H21C 6013   1.266   1.175   8.937  0.4063 -1.8050  0.0193
   48CHL1   C22 6014   1.466   0.996   8.799  0.2080  0.4031 -0.2470
   48CHL1  H22A 6015   1.512   1.079   8.742 -0.2563  0.0187 -1.2093
   48CHL1  H22B 6016   1.540   0.913   8.795 -0.6673 -0.4017  0.0479
   48CHL1   C23 6017   1.333   0.944   8.746  0.5779  0.2852 -0.0392
   48CHL1  H23A 6018   1.306   0.844   8.787  2.0096 -0.1914 -0.2187
   48CHL1  H23B 6019   1.253   1.009   8.788 -0.3651 -0.5597 -0.4722
   48CHL1   C24 6020   1.329   0.926   8.598 -0.1739  0.1410 -0.0122
   48CHL1  H24A 6021   1.405   0.849   8.575 -0.0764  0.5408 -1.0901
   48CHL1  H24B 6022   1.232   0.875   8.585 -0.3723 -0.1455  2.1602
   48CHL1   C25 6023   1.354   1.051   8.509 -0.5112  0.2565  0.2336
   48CHL1   H25 6024   1.458   1.087   8.527 -0.6176  0.9283 -0.4587
   48CHL1   C26 6025   1.346   1.007   8.361 -0.1138  0.5710  0.1124
   48CHL1  H26A 6026   1.250   0.955   8.340  0.4846 -1.5363  2.1795
   48CHL1  H26B 6027   1.375   1.085   8.288 -1.1756  0.5438 -0.3520
   48CHL1  H26C 6028   1.422   0.928   8.344 -1.8767 -0.6026 -3.0019
   48CHL1   C27 6029   1.262   1.170   8.533  0.4059  1.1119  0.4901
   48CHL1  H27A 6030   1.270   1.257   8.465 -1.0515  0.7804 -0.1576
   48CHL1  H27B 6031   1.155   1.149   8.512  0.9642  0.6415 -2.2029
   48CHL1  H27C 6032   1.282   1.209   8.635  0.0708  1.6898  0.3380
   49CHL1    C3 6033   1.901   2.897  10.020  0.6392  1.2453  0.7905
   49CHL1    H3 6034   1.978   2.966  10.061 -0.0570  1.3595  1.9589
   49CHL1    O3 6035   1.862   2.797  10.112 -0.4082  0.7561 -0.1564
   49CHL1   H3' 6036   1.877   2.844  10.194 -0.5499 -1.5781  1.2841
   49CHL1    C4 6037   1.772   2.978   9.973 -0.0928  0.2283 -0.4196
   49CHL1   H4A 6038   1.688   2.906   9.977  0.3159 -0.2611 -0.4967
   49CHL1   H4B 6039   1.744   3.049  10.054  3.1812 -0.3944  1.4259
   49CHL1    C5 6040   1.796   3.054   9.849 -0.2462  0.2203 -0.8137
   49CHL1    C6 6041   1.769   3.188   9.833  0.6971  0.2746 -0.2752
   49CHL1    H6 6042   1.725   3.240   9.919 -1.7617 -1.9076 -0.0899
   49CHL1    C7 6043   1.784   3.260   9.704  0.5223  0.3578  0.8841
   49CHL1   H7A 6044   1.689   3.315   9.685  1.3208  1.6640  0.5709
   49CHL1   H7B 6045   1.854   3.346   9.698  0.6670  0.1219 -1.6817
   49CHL1    C8 6046   1.786   3.160   9.585  0.4123 -0.1205  0.0626
   49CHL1    H8 6047   1.686   3.114   9.570  0.3363 -0.6449  1.9286
   49CHL1   C14 6048   1.829   3.236   9.456 -0.1053 -0.3160 -0.1266
   49CHL1   H14 6049   1.934   3.265   9.476  0.1662 -2.1608  1.4232
   49CHL1   C15 6050   1.767   3.375   9.426  0.7416  0.1493 -0.3013
   49CHL1  H15A 6051   1.657   3.359   9.429  1.0256 -2.3345 -0.6990
   49CHL1  H15B 6052   1.789   3.464   9.488 -1.1780 -0.1103  0.8376
   49CHL1   C16 6053   1.819   3.397   9.280 -0.3985 -0.5989  0.1041
   49CHL1  H16A 6054   1.732   3.429   9.219 -1.5315 -0.8805  1.5306
   49CHL1  H16B 6055   1.903   3.469   9.269  1.5922 -2.9645 -1.1702
   49CHL1   C17 6056   1.880   3.263   9.233  0.1356 -0.3006  0.3710
   49CHL1   H17 6057   1.990   3.276   9.242  0.1248 -1.2467  2.2213
   49CHL1   C13 6058   1.835   3.153   9.323 -0.0255 -0.3173 -0.6523
   49CHL1   C18 6059   1.696   3.093   9.288 -0.3625 -0.1056  0.0250
   49CHL1  H18A 6060   1.659   3.040   9.379 -0.1162  0.8601  0.7037
   49CHL1  H18B 6061   1.632   3.180   9.262  2.1852  1.6757 -0.6334
   49CHL1  H18C 6062   1.685   3.020   9.205 -3.1623  0.6280 -0.3583
   49CHL1   C12 6063   1.944   3.036   9.348  0.8363 -0.3568 -0.0396
   49CHL1  H12A 6064   1.942   2.962   9.265  0.0434  0.5800 -0.8839
   49CHL1  H12B 6065   2.050   3.067   9.364  0.7909  0.1019 -0.6001
   49CHL1   C11 6066   1.913   2.956   9.475 -0.6280  0.4384  0.2283
   49CHL1  H11A 6067   1.820   2.902   9.447  0.1405 -1.2648  0.8349
   49CHL1  H11B 6068   1.987   2.877   9.502 -0.9041 -0.3387 -1.1767
   49CHL1    C9 6069   1.885   3.053   9.605  0.2341  0.4562  1.1947
   49CHL1    H9 6070   1.985   3.100   9.620  0.4874  0.9938 -1.6737
   49CHL1   C10 6071   1.855   2.973   9.735 -0.0472  0.1920  0.1757
   49CHL1   C19 6072   1.748   2.865   9.704  0.0084 -0.0539  0.3019
   49CHL1  H19A 6073   1.806   2.795   9.641  0.0396  0.8202 -0.6767
   49CHL1  H19B 6074   1.722   2.810   9.797  3.8174 -1.3661  0.7465
   49CHL1  H19C 6075   1.657   2.901   9.650 -0.0488  1.8280  1.5517
   49CHL1    C1 6076   1.987   2.906   9.780 -0.4160 -0.5699  0.0893
   49CHL1   H1A 6077   2.037   2.842   9.704  1.1440 -1.0280  1.4464
   49CHL1   H1B 6078   2.053   2.990   9.812 -0.5914 -0.8437  1.2074
   49CHL1    C2 6079   1.970   2.823   9.907  0.1697  0.1647  0.1920
   49CHL1   H2A 6080   2.066   2.783   9.947 -0.4819 -2.4366 -0.6530
   49CHL1   H2B 6081   1.906   2.736   9.880 -0.9539  1.1883 -0.5571
   49CHL1   C20 6082   1.861   3.248   9.080  0.3176  0.3162  0.1245
   49CHL1   H20 6083   1.752   3.233   9.063  0.4330  1.2451 -1.5694
   49CHL1   C21 6084   1.935   3.116   9.030 -0.0560  0.0252  0.3725
   49CHL1  H21A 6085   2.044   3.115   9.054  0.2754 -0.0412 -1.0640
   49CHL1  H21B 6086   1.928   3.116   8.920  1.1147 -2.0814  0.2499
   49CHL1  H21C 6087   1.872   3.032   9.065  1.5814 -1.4066 -0.0076
   49CHL1   C22 6088   1.909   3.365   8.994  0.6162 -0.1101  0.0626
   49CHL1  H22A 6089   1.871   3.461   9.035 -0.3433 -0.9010  1.0885
   49CHL1  H22B 6090   2.019   3.364   8.999  0.5680 -2.2603  2.6650
   49CHL1   C23 6091   1.856   3.360   8.845  0.1996 -0.1288  0.1025
   49CHL1  H23A 6092   1.933   3.292   8.803  2.8025  1.3811  2.1018
   49CHL1  H23B 6093   1.752   3.321   8.834  0.5488 -0.7533 -1.1402
   49CHL1   C24 6094   1.875   3.497   8.774  0.3787 -0.4894 -0.0475
   49CHL1  H24A 6095   1.792   3.553   8.821 -0.9341 -0.0526 -2.6782
   49CHL1  H24B 6096   1.978   3.538   8.788 -0.5323  1.8740  0.2645
   49CHL1   C25 6097   1.857   3.477   8.626 -0.5611 -0.5130  0.4930
   49CHL1   H25 6098   1.767   3.415   8.609 -0.2695 -0.6289 -0.7943
   49CHL1   C26 6099   1.825   3.610   8.555  0.4250 -0.2890  0.4889
   49CHL1  H26A 6100   1.906   3.685   8.559  0.0076  0.2625 -0.6712
   49CHL1  H26B 6101   1.813   3.584   8.447 -0.1783  3.4966 -0.5251
   49CHL1  H26C 6102   1.735   3.652   8.606 -0.5616 -1.3170 -0.3428
   49CHL1   C27 6103   1.976   3.424   8.552  0.3844  0.4627 -0.6134
   49CHL1  H27A 6104   1.959   3.438   8.443 -1.1291  2.2689 -0.1927
   49CHL1  H27B 6105   2.065   3.486   8.577  0.5069  0.6061 -1.3894
   49CHL1  H27C 6106   1.984   3.316   8.579  0.5889 -0.2766 -3.3981
   50CHL1    C3 6107   3.660   4.592  10.033 -0.0663  0.3174  0.5390
   50CHL1    H3 6108   3.739   4.529   9.987 -0.8732 -0.3156  0.0074
   50CHL1    O3 6109   3.660   4.559  10.172  0.8149 -0.2603 -0.2841
   50CHL1   H3' 6110   3.574   4.594  10.197  1.1669  0.9317 -0.6343
   50CHL1    C4 6111   3.703   4.732  10.009  0.2047 -0.2377  0.4190
   50CHL1   H4A 6112   3.652   4.810  10.070 -1.4108 -1.9144  1.3106
   50CHL1   H4B 6113   3.806   4.731  10.050 -0.2439 -0.9899  1.5649
   50CHL1    C5 6114   3.706   4.780   9.865  0.0021 -0.8099 -0.7395
   50CHL1    C6 6115   3.814   4.831   9.805  0.2931  0.4847 -0.0563
   50CHL1    H6 6116   3.914   4.821   9.848  1.5270  1.3484 -2.5248
   50CHL1    C7 6117   3.817   4.868   9.660 -0.6296  0.8410 -0.0720
   50CHL1   H7A 6118   3.895   4.945   9.643  1.8045 -1.3406  0.6053
   50CHL1   H7B 6119   3.861   4.788   9.596 -0.3967 -0.1599  1.3074
   50CHL1    C8 6120   3.676   4.881   9.592 -0.9168 -0.5004  0.0683
   50CHL1    H8 6121   3.617   4.965   9.637  0.7211  0.3306  0.7671
   50CHL1   C14 6122   3.696   4.886   9.438 -0.0976 -0.4241 -0.2904
   50CHL1   H14 6123   3.732   4.784   9.410 -1.5072 -1.1638  0.4963
   50CHL1   C15 6124   3.785   4.993   9.381 -0.1851  0.2442  0.4001
   50CHL1  H15A 6125   3.761   5.091   9.427  0.3952  0.2225  0.7628
   50CHL1  H15B 6126   3.892   4.964   9.386 -0.1286 -0.5792 -3.1011
   50CHL1   C16 6127   3.738   5.004   9.237 -0.4896 -0.0616  0.2693
   50CHL1  H16A 6128   3.705   5.108   9.214  1.4424  0.4550 -0.3554
   50CHL1  H16B 6129   3.817   4.988   9.161  0.5331  1.3942  0.9615
   50CHL1   C17 6130   3.616   4.907   9.220  0.3017 -0.4333 -0.5174
   50CHL1   H17 6131   3.667   4.815   9.186 -0.0442 -0.5681 -0.6700
   50CHL1   C13 6132   3.560   4.888   9.365  0.2292  0.3842  0.0429
   50CHL1   C18 6133   3.479   5.021   9.397 -0.3956  0.8403  0.0088
   50CHL1  H18A 6134   3.371   5.008   9.375 -0.6742 -0.7481  2.0509
   50CHL1  H18B 6135   3.495   5.046   9.504  0.1503 -1.4568  0.5068
   50CHL1  H18C 6136   3.513   5.111   9.341  3.2798 -0.3694  0.0443
   50CHL1   C12 6137   3.483   4.759   9.402 -0.1495  0.1182  0.0581
   50CHL1  H12A 6138   3.381   4.751   9.357 -0.3344 -0.6987  0.6042
   50CHL1  H12B 6139   3.535   4.663   9.384  1.6258  1.1434 -0.4518
   50CHL1   C11 6140   3.448   4.761   9.550 -0.0058 -0.0669  0.4858
   50CHL1  H11A 6141   3.372   4.841   9.564 -0.7155  0.2696 -3.9366
   50CHL1  H11B 6142   3.400   4.665   9.577 -3.5656  0.6043 -2.6296
   50CHL1    C9 6143   3.580   4.763   9.626 -0.3652 -0.3419 -0.0406
   50CHL1    H9 6144   3.645   4.678   9.597  0.9421  0.7664 -0.4179
   50CHL1   C10 6145   3.573   4.750   9.785  0.4538 -0.6256 -0.2720
   50CHL1   C19 6146   3.470   4.855   9.836 -0.0958 -0.2925  0.7023
   50CHL1  H19A 6147   3.366   4.838   9.802 -0.1944  0.0092  0.8557
   50CHL1  H19B 6148   3.449   4.852   9.945 -0.5417  0.3413  0.6383
   50CHL1  H19C 6149   3.495   4.959   9.808  0.7829 -0.6176  0.2408
   50CHL1    C1 6150   3.516   4.611   9.829 -0.1446 -0.7700  0.5039
   50CHL1   H1A 6151   3.408   4.609   9.803  0.1637 -1.0663 -0.8308
   50CHL1   H1B 6152   3.574   4.533   9.776  0.8925 -0.6016  1.3651
   50CHL1    C2 6153   3.520   4.581   9.982  0.5220  0.1915 -0.1431
   50CHL1   H2A 6154   3.474   4.484  10.012 -0.3799  0.0864 -1.7415
   50CHL1   H2B 6155   3.453   4.659  10.022  0.7377  1.2950 -1.8381
   50CHL1   C20 6156   3.516   4.949   9.102 -0.3372  0.1605 -0.9130
   50CHL1   H20 6157   3.469   5.046   9.126 -0.8569 -0.5442  1.2174
   50CHL1   C21 6158   3.404   4.845   9.095  0.8496  0.4704  0.0958
   50CHL1  H21A 6159   3.335   4.858   9.181 -0.6791 -2.5695 -0.5452
   50CHL1  H21B 6160   3.448   4.743   9.094  0.8618  0.4610  0.9237
   50CHL1  H21C 6161   3.337   4.866   9.008 -2.1680 -1.8061  1.7098
   50CHL1   C22 6162   3.594   4.962   8.963  1.4364  0.0031 -0.1612
   50CHL1  H22A 6163   3.682   5.029   8.967  0.7214  1.0137 -0.8772
   50CHL1  H22B 6164   3.622   4.860   8.930 -0.2179 -0.2184 -1.0294
   50CHL1   C23 6165   3.512   5.021   8.847 -0.5741  0.1333 -0.7211
   50CHL1  H23A 6166   3.426   4.960   8.810  0.0224 -1.2665  0.1158
   50CHL1  H23B 6167   3.476   5.121   8.878  0.6446  0.7006 -1.0636
   50CHL1   C24 6168   3.584   5.065   8.720 -0.7759 -0.6668 -0.5270
   50CHL1  H24A 6169   3.519   5.139   8.669  0.7258  0.4289 -0.9170
   50CHL1  H24B 6170   3.676   5.119   8.753 -2.0038 -0.0022  2.0730
   50CHL1   C25 6171   3.630   4.959   8.622  0.3016 -0.0045 -0.6292
   50CHL1   H25 6172   3.687   4.887   8.685 -1.2316 -0.8461 -0.1593
   50CHL1   C26 6173   3.524   4.880   8.549 -0.3145  0.2206 -1.3793
   50CHL1  H26A 6174   3.463   4.957   8.497 -1.3087 -0.4798 -1.2749
   50CHL1  H26B 6175   3.565   4.825   8.462 -1.4710 -0.6788 -1.3750
   50CHL1  H26C 6176   3.442   4.831   8.606  1.0161 -0.9857 -0.4334
   50CHL1   C27 6177   3.731   5.017   8.515  0.5936 -0.0919  0.4246
   50CHL1  H27A 6178   3.792   5.100   8.555  1.5812 -0.0129 -1.1444
   50CHL1  H27B 6179   3.803   4.938   8.486  0.6403 -0.1397  0.6688
   50CHL1  H27C 6180   3.671   5.049   8.426  2.0273  0.8443 -0.2441
   51CHL1    C3 6181   3.275   0.897  10.156 -0.5016 -0.4282  0.1402
   51CHL1    H3 6182   3.237   0.998  10.131  0.8044  0.2837  0.9314
   51CHL1    O3 6183   3.248   0.846  10.285  0.0403  0.1238  0.5690
   51CHL1   H3' 6184   3.300   0.907  10.338  1.7170 -1.5929  0.9898
   51CHL1    C4 6185   3.219   0.809  10.052  0.0983  0.3890 -0.1067
   51CHL1   H4A 6186   3.233   0.701  10.073  1.9685  1.3125  4.7437
   51CHL1   H4B 6187   3.111   0.825  10.071  0.0895  1.0953 -0.6858
   51CHL1    C5 6188   3.258   0.828   9.908  0.4263  0.0734  0.1229
   51CHL1    C6 6189   3.175   0.842   9.801 -0.0060  0.5235 -0.0744
   51CHL1    H6 6190   3.065   0.843   9.813 -0.2098  0.2628 -1.6683
   51CHL1    C7 6191   3.222   0.872   9.659 -0.2866  0.1056 -0.0303
   51CHL1   H7A 6192   3.164   0.815   9.583  1.5077  2.2355 -3.2196
   51CHL1   H7B 6193   3.205   0.981   9.646 -2.0634  0.0363  1.3307
   51CHL1    C8 6194   3.375   0.851   9.636 -0.4748 -0.1899  1.0862
   51CHL1    H8 6195   3.392   0.741   9.632  1.9583  0.0448  2.5887
   51CHL1   C14 6196   3.419   0.926   9.512  0.1572  1.3521  0.8580
   51CHL1   H14 6197   3.399   1.034   9.532 -4.5961  0.5216  1.8562
   51CHL1   C15 6198   3.346   0.896   9.378  0.1881  0.2672  0.7833
   51CHL1  H15A 6199   3.316   0.790   9.369  0.3895  0.2945 -0.4396
   51CHL1  H15B 6200   3.249   0.952   9.374  0.6181  0.9479 -1.4672
   51CHL1   C16 6201   3.437   0.957   9.274 -0.3075  0.4825  0.6730
   51CHL1  H16A 6202   3.467   0.885   9.196  0.7687  0.0152  1.5045
   51CHL1  H16B 6203   3.394   1.048   9.227  1.6838  1.0912 -0.0574
   51CHL1   C17 6204   3.571   0.997   9.340 -0.3988 -0.3596  0.2512
   51CHL1   H17 6205   3.546   1.099   9.377 -0.8682 -0.8577  1.3802
   51CHL1   C13 6206   3.567   0.921   9.475  0.1280  0.4281  0.0611
   51CHL1   C18 6207   3.617   0.778   9.451 -0.8792  0.1269 -0.3206
   51CHL1  H18A 6208   3.552   0.722   9.380 -0.1602  0.0263 -0.9127
   51CHL1  H18B 6209   3.718   0.775   9.407 -0.8047  0.5675 -0.1838
   51CHL1  H18C 6210   3.622   0.713   9.541 -1.9697 -0.5901 -0.7558
   51CHL1   C12 6211   3.641   0.990   9.593  0.5872  0.1115 -0.3606
   51CHL1  H12A 6212   3.750   0.972   9.593  0.6887  0.5128  1.5972
   51CHL1  H12B 6213   3.630   1.100   9.606 -0.4789 -0.0878  0.6494
   51CHL1   C11 6214   3.605   0.917   9.726 -0.4707 -0.2836 -0.4403
   51CHL1  H11A 6215   3.655   0.817   9.731 -0.0239 -0.2290 -2.8599
   51CHL1  H11B 6216   3.650   0.991   9.795 -1.1247 -0.6287  0.3834
   51CHL1    C9 6217   3.453   0.906   9.757 -0.1518 -0.6063 -0.3635
   51CHL1    H9 6218   3.418   1.010   9.771  1.1009 -0.5339  3.2532
   51CHL1   C10 6219   3.415   0.847   9.896  0.4662  0.3012 -0.6541
   51CHL1   C19 6220   3.488   0.712   9.903 -0.6012 -0.5468  0.5358
   51CHL1  H19A 6221   3.597   0.715   9.924  0.2342  0.1652 -3.1648
   51CHL1  H19B 6222   3.441   0.653   9.984  0.5959  1.9757  3.2514
   51CHL1  H19C 6223   3.470   0.658   9.808  0.7447 -1.3323  0.7004
   51CHL1    C1 6224   3.459   0.952   9.999 -0.0203  0.4962 -0.7355
   51CHL1   H1A 6225   3.568   0.974  10.002 -0.1075  0.8761 -0.2147
   51CHL1   H1B 6226   3.424   1.057   9.986 -1.9509  0.1580  1.2192
   51CHL1    C2 6227   3.424   0.914  10.142  0.1250  0.1227  0.0815
   51CHL1   H2A 6228   3.458   0.986  10.220  0.5428 -0.1421  0.1479
   51CHL1   H2B 6229   3.473   0.819  10.171 -1.2795 -0.3730  0.9342
   51CHL1   C20 6230   3.692   0.997   9.251 -0.5229  0.2035 -0.3455
   51CHL1   H20 6231   3.721   0.894   9.221 -2.3630 -0.8884  1.3307
   51CHL1   C21 6232   3.811   1.057   9.320  0.3476 -0.1877 -0.0579
   51CHL1  H21A 6233   3.836   0.999   9.411  0.6447  0.1601  0.0889
   51CHL1  H21B 6234   3.797   1.163   9.351  3.1798 -0.0730  1.1811
   51CHL1  H21C 6235   3.894   1.043   9.248 -1.7627 -1.7714 -2.3219
   51CHL1   C22 6236   3.671   1.082   9.120  0.2281 -0.6927 -0.3742
   51CHL1  H22A 6237   3.575   1.059   9.069 -0.2656 -1.1255  0.7381
   51CHL1  H22B 6238   3.658   1.185   9.159  0.5161 -1.0658  0.7203
   51CHL1   C23 6239   3.789   1.090   9.015 -0.4672 -0.0734  0.0301
   51CHL1  H23A 6240   3.887   1.107   9.064 -0.0860  1.4072 -1.1472
   51CHL1  H23B 6241   3.800   0.995   8.959  0.9799  0.3041 -0.3738
   51CHL1   C24 6242   3.764   1.186   8.896 -0.6661 -0.3014  0.5164
   51CHL1  H24A 6243   3.667   1.148   8.859  0.7259 -2.2087 -1.4115
   51CHL1  H24B 6244   3.740   1.282   8.947  0.2010  0.0155  0.3429
   51CHL1   C25 6245   3.883   1.192   8.795  0.1073 -0.6486  0.2376
   51CHL1   H25 6246   3.978   1.224   8.845 -1.0155  0.8817  1.5206
   51CHL1   C26 6247   3.894   1.055   8.727 -0.1628 -0.2302  1.1250
   51CHL1  H26A 6248   3.937   0.975   8.791 -0.3427  0.2859  1.9111
   51CHL1  H26B 6249   3.800   1.022   8.678  0.8615 -2.4414  0.5727
   51CHL1  H26C 6250   3.972   1.066   8.649  0.6462  1.2708  2.0859
   51CHL1   C27 6251   3.878   1.294   8.673  0.1762 -0.0261 -0.0795
   51CHL1  H27A 6252   3.884   1.398   8.711 -2.1621 -0.2386  1.0011
   51CHL1  H27B 6253   3.965   1.285   8.604 -0.7928 -0.3509 -1.2982
   51CHL1  H27C 6254   3.788   1.285   8.609 -0.0845 -2.4497  0.5302
   52CHL1    C3 6255   0.578   6.808  10.003  0.0405  0.1222  0.2705
   52CHL1    H3 6256   0.471   6.787   9.985  0.4524 -1.5971 -0.3477
   52CHL1    O3 6257   0.599   6.846  10.139 -0.4380 -0.7205  0.1551
   52CHL1   H3' 6258   0.609   6.763  10.186 -0.7074 -0.2191  1.1126
   52CHL1    C4 6259   0.668   6.690   9.949  1.0169 -0.2144  0.0524
   52CHL1   H4A 6260   0.773   6.703   9.983  0.7978  0.7153  0.3911
   52CHL1   H4B 6261   0.633   6.599  10.002 -0.6974 -0.2809 -1.1173
   52CHL1    C5 6262   0.665   6.665   9.795 -0.2120 -0.7149 -0.1635
   52CHL1    C6 6263   0.641   6.541   9.739  0.6573  0.6793  0.1992
   52CHL1    H6 6264   0.618   6.458   9.806 -0.5093 -0.0440 -1.0422
   52CHL1    C7 6265   0.632   6.523   9.589  0.3335  0.0057 -0.7122
   52CHL1   H7A 6266   0.684   6.435   9.544 -0.8574 -1.6528  0.9778
   52CHL1   H7B 6267   0.524   6.522   9.565  0.2979  1.5119 -0.6846
   52CHL1    C8 6268   0.688   6.640   9.503  0.6248  0.9576 -0.5193
   52CHL1    H8 6269   0.798   6.641   9.495  0.7634 -2.1218 -0.1259
   52CHL1   C14 6270   0.633   6.628   9.359  0.4825  0.9501  0.3493
   52CHL1   H14 6271   0.523   6.646   9.367 -0.0396 -0.2997 -2.6534
   52CHL1   C15 6272   0.649   6.500   9.283 -0.1411 -0.2218 -1.1724
   52CHL1  H15A 6273   0.752   6.458   9.285  0.0868  0.3585  0.4884
   52CHL1  H15B 6274   0.575   6.427   9.321 -1.9749  2.4007  0.6397
   52CHL1   C16 6275   0.612   6.536   9.144  0.2625  0.6563  0.0403
   52CHL1  H16A 6276   0.677   6.507   9.059 -0.8817 -0.9727 -0.3234
   52CHL1  H16B 6277   0.509   6.499   9.123  0.2970  1.4556 -1.7376
   52CHL1   C17 6278   0.597   6.695   9.137  0.1593 -0.0327  0.7200
   52CHL1   H17 6279   0.489   6.722   9.146  0.8428  3.8871 -0.6200
   52CHL1   C13 6280   0.675   6.739   9.262  0.3558 -0.2149  0.0208
   52CHL1   C18 6281   0.835   6.738   9.238 -0.1585 -0.2391 -0.3794
   52CHL1  H18A 6282   0.891   6.725   9.333  0.5748 -0.3291 -0.8124
   52CHL1  H18B 6283   0.861   6.661   9.163 -0.8363 -1.6011  0.7533
   52CHL1  H18C 6284   0.876   6.829   9.189 -0.4833 -0.8221 -1.7993
   52CHL1   C12 6285   0.626   6.871   9.314  0.3540  0.2490  0.3943
   52CHL1  H12A 6286   0.666   6.950   9.247  1.4350 -0.8021 -0.2427
   52CHL1  H12B 6287   0.516   6.885   9.302  0.3930  0.5682  0.3878
   52CHL1   C11 6288   0.662   6.893   9.463 -0.6069 -0.1996 -0.6319
   52CHL1  H11A 6289   0.767   6.930   9.461 -0.7396  0.3099  0.6896
   52CHL1  H11B 6290   0.595   6.973   9.501 -2.7121 -1.6160 -1.1760
   52CHL1    C9 6291   0.644   6.772   9.558 -0.3345 -0.6557 -0.1605
   52CHL1    H9 6292   0.533   6.767   9.559 -0.7856  3.6408 -3.1109
   52CHL1   C10 6293   0.685   6.793   9.707  0.3112  0.5051  0.3674
   52CHL1   C19 6294   0.839   6.817   9.726 -0.3114 -0.6116  0.5268
   52CHL1  H19A 6295   0.877   6.903   9.667  1.9307 -2.0371 -0.2502
   52CHL1  H19B 6296   0.860   6.835   9.834 -2.6882 -0.3539  0.9998
   52CHL1  H19C 6297   0.890   6.725   9.689  0.6341  0.0234  0.2271
   52CHL1    C1 6298   0.599   6.908   9.773 -1.0827 -0.0850  0.1913
   52CHL1   H1A 6299   0.638   7.002   9.728 -2.6997  1.1967  1.3578
   52CHL1   H1B 6300   0.494   6.891   9.741 -1.0654 -1.8286  0.9467
   52CHL1    C2 6301   0.602   6.934   9.923  0.5766 -0.5062  0.4730
   52CHL1   H2A 6302   0.529   7.010   9.957 -0.3267 -1.0419 -0.2535
   52CHL1   H2B 6303   0.702   6.978   9.946 -0.7490  2.7482  0.5168
   52CHL1   C20 6304   0.642   6.762   9.006 -0.0666  0.9889  0.2614
   52CHL1   H20 6305   0.752   6.747   8.997 -0.2240 -2.1828  1.9776
   52CHL1   C21 6306   0.605   6.912   8.981  0.2312  0.3369 -0.2050
   52CHL1  H21A 6307   0.502   6.930   9.017 -0.2588 -0.2686 -1.2407
   52CHL1  H21B 6308   0.617   6.930   8.872  1.0106 -0.1422 -0.2082
   52CHL1  H21C 6309   0.676   6.980   9.032  2.7117 -1.2583 -1.3413
   52CHL1   C22 6310   0.588   6.697   8.871  0.2628 -0.2813  0.0235
   52CHL1  H22A 6311   0.540   6.601   8.896  0.8245 -0.4050  0.6600
   52CHL1  H22B 6312   0.510   6.752   8.813 -0.8260  1.5171  2.9997
   52CHL1   C23 6313   0.708   6.678   8.773 -0.3998 -0.2170  0.1707
   52CHL1  H23A 6314   0.776   6.762   8.750  0.5086 -1.0775 -0.3582
   52CHL1  H23B 6315   0.769   6.602   8.826 -0.1354  1.1877  1.9841
   52CHL1   C24 6316   0.662   6.626   8.630 -0.2392 -0.1832 -0.3153
   52CHL1  H24A 6317   0.629   6.523   8.655 -2.2187 -0.0247 -1.9955
   52CHL1  H24B 6318   0.577   6.687   8.591  0.8905  0.9027 -1.1503
   52CHL1   C25 6319   0.783   6.620   8.528 -0.3223 -0.6841  0.6015
   52CHL1   H25 6320   0.871   6.573   8.577 -0.5853 -0.8158  0.9529
   52CHL1   C26 6321   0.747   6.531   8.409 -0.3019  0.0404  1.1890
   52CHL1  H26A 6322   0.664   6.587   8.360  0.5666  1.3944  1.2169
   52CHL1  H26B 6323   0.831   6.534   8.337 -2.1348  1.7132 -1.0142
   52CHL1  H26C 6324   0.720   6.426   8.430 -0.0514 -0.4187 -0.6395
   52CHL1   C27 6325   0.816   6.760   8.481  0.0921 -0.0885 -0.4686
   52CHL1  H27A 6326   0.821   6.833   8.564  0.8039 -0.2638 -0.3518
   52CHL1  H27B 6327   0.915   6.757   8.431 -0.5584 -1.1705 -1.7784
   52CHL1  H27C 6328   0.738   6.798   8.412 -0.0793 -0.9158 -0.7392
   53CHL1    C3 6329   1.795   0.232   9.978  0.5445 -0.1163 -0.9323
   53CHL1    H3 6330   1.705   0.268   9.925 -0.7034 -0.6006  0.7574
   53CHL1    O3 6331   1.758   0.220  10.118 -0.3909  0.3416  0.4171
   53CHL1   H3' 6332   1.837   0.191  10.164 -0.2806  0.2538  0.1748
   53CHL1    C4 6333   1.821   0.087   9.918  0.4295  0.0078 -0.5229
   53CHL1   H4A 6334   1.908   0.049   9.975 -0.3950 -0.6075  0.3436
   53CHL1   H4B 6335   1.734   0.022   9.940  2.5403 -2.4204  1.2655
   53CHL1    C5 6336   1.850   0.088   9.769  0.0102  0.3365  0.2104
   53CHL1    C6 6337   1.778   0.009   9.687 -0.0734  0.4397 -0.2034
   53CHL1    H6 6338   1.696  -0.056   9.721 -0.5050  0.0231 -1.9579
   53CHL1    C7 6339   1.800   0.000   9.541 -0.2064 -0.1753 -0.1331
   53CHL1   H7A 6340   1.803  -0.108   9.516 -0.5369 -0.2412  0.1128
   53CHL1   H7B 6341   1.713   0.043   9.486 -0.1638  0.0491 -0.0253
   53CHL1    C8 6342   1.932   0.062   9.484  0.1983 -0.0524 -0.3587
   53CHL1    H8 6343   2.020   0.000   9.510 -0.1737 -0.6715 -0.5410
   53CHL1   C14 6344   1.912   0.086   9.339  0.6852 -0.0759 -0.2526
   53CHL1   H14 6345   1.819   0.146   9.351  1.6021  1.0342  1.9482
   53CHL1   C15 6346   1.878  -0.028   9.238 -0.6568 -0.0564  1.0651
   53CHL1  H15A 6347   1.948  -0.113   9.254 -0.9148 -0.0373  2.3626
   53CHL1  H15B 6348   1.771  -0.052   9.224 -0.8557  1.9653 -1.8174
   53CHL1   C16 6349   1.907   0.045   9.098  0.5572  0.0562  0.4121
   53CHL1  H16A 6350   1.979  -0.019   9.044  0.2826  1.3538 -1.6095
   53CHL1  H16B 6351   1.822   0.068   9.029 -0.5638 -3.5972  0.3473
   53CHL1   C17 6352   1.967   0.185   9.134  0.6582 -0.1894  0.1398
   53CHL1   H17 6353   1.877   0.248   9.149 -0.3152 -1.5896  0.4547
   53CHL1   C13 6354   2.019   0.175   9.282  0.0639 -0.7555 -0.5761
   53CHL1   C18 6355   2.150   0.099   9.271 -0.1858  0.1163 -0.7914
   53CHL1  H18A 6356   2.187   0.038   9.356 -0.6901  1.3096  0.3044
   53CHL1  H18B 6357   2.142   0.022   9.191  0.7843 -0.2917 -0.5057
   53CHL1  H18C 6358   2.229   0.170   9.241 -0.9612  0.8189 -1.2239
   53CHL1   C12 6359   2.037   0.302   9.356  0.6399 -0.0952  0.1698
   53CHL1  H12A 6360   2.126   0.352   9.312 -1.3446  2.2400 -1.4528
   53CHL1  H12B 6361   1.953   0.374   9.348  0.6479  0.4795  3.8976
   53CHL1   C11 6362   2.064   0.288   9.505  0.1125  0.0913  0.6006
   53CHL1  H11A 6363   2.165   0.252   9.534  0.0142  0.0706  0.9240
   53CHL1  H11B 6364   2.060   0.396   9.529 -1.2503  0.2603 -0.2972
   53CHL1    C9 6365   1.954   0.196   9.560 -0.8041  0.4342 -0.4813
   53CHL1    H9 6366   1.859   0.253   9.544 -2.4216 -1.8421  0.4651
   53CHL1   C10 6367   1.955   0.185   9.715  1.0858 -0.0362 -0.2744
   53CHL1   C19 6368   2.100   0.123   9.759  0.0839  0.8029 -0.0723
   53CHL1  H19A 6369   2.125   0.037   9.693  0.4869 -1.3938  2.7301
   53CHL1  H19B 6370   2.173   0.207   9.761 -1.6557  2.3627  1.5456
   53CHL1  H19C 6371   2.097   0.079   9.861  0.0429 -1.2395 -0.9202
   53CHL1    C1 6372   1.941   0.326   9.793  0.1799 -0.2113  0.5286
   53CHL1   H1A 6373   2.035   0.378   9.763  1.0210 -2.0821 -0.2162
   53CHL1   H1B 6374   1.851   0.370   9.745  0.8703  1.4592  0.6669
   53CHL1    C2 6375   1.916   0.326   9.943 -0.4747 -0.0229 -0.3347
   53CHL1   H2A 6376   1.890   0.429   9.974 -2.9706  0.4940 -3.5663
   53CHL1   H2B 6377   2.007   0.292   9.996 -1.5626 -4.0177 -0.6550
   53CHL1   C20 6378   2.058   0.249   9.028 -0.0936  0.0488 -0.4781
   53CHL1   H20 6379   2.158   0.202   9.036  1.4215  3.3105  2.3240
   53CHL1   C21 6380   2.085   0.395   9.050 -0.5924  0.1357  0.2463
   53CHL1  H21A 6381   1.988   0.446   9.064 -0.0578  0.9815  0.9809
   53CHL1  H21B 6382   2.146   0.433   8.965 -0.5401 -1.0410 -0.2595
   53CHL1  H21C 6383   2.157   0.415   9.132 -0.2446  0.9565 -0.2428
   53CHL1   C22 6384   2.001   0.223   8.883 -0.2138 -0.0493  0.6610
   53CHL1  H22A 6385   1.969   0.116   8.883  0.2523 -0.1940  0.2950
   53CHL1  H22B 6386   1.916   0.292   8.868 -1.4275 -1.4769  0.6869
   53CHL1   C23 6387   2.104   0.234   8.775  0.0547 -0.3238  0.4682
   53CHL1  H23A 6388   2.064   0.266   8.676  0.4923  0.5615  0.5688
   53CHL1  H23B 6389   2.168   0.323   8.794 -1.6188  0.8097  0.9610
   53CHL1   C24 6390   2.196   0.112   8.759 -0.1621 -0.3137 -0.4599
   53CHL1  H24A 6391   2.272   0.146   8.686 -0.4832  3.7956  0.8404
   53CHL1  H24B 6392   2.242   0.103   8.859 -1.0785  0.1999  0.0213
   53CHL1   C25 6393   2.119  -0.018   8.726 -0.3917  0.1171  0.7582
   53CHL1   H25 6394   2.057  -0.038   8.816 -0.9999  2.3857  0.8897
   53CHL1   C26 6395   2.020  -0.006   8.606 -0.7968 -0.0921 -0.6280
   53CHL1  H26A 6396   1.958   0.082   8.633  0.5304  1.2159 -1.6836
   53CHL1  H26B 6397   2.080   0.022   8.517 -0.1748 -0.4042 -0.3145
   53CHL1  H26C 6398   1.964  -0.102   8.598  2.5869 -2.6208  2.2765
   53CHL1   C27 6399   2.214  -0.142   8.711  0.0992  0.0547  0.1676
   53CHL1  H27A 6400   2.287  -0.155   8.794  0.6383 -0.0561 -0.3203
   53CHL1  H27B 6401   2.148  -0.231   8.711 -1.1979  0.9681  0.9805
   53CHL1  H27C 6402   2.276  -0.132   8.619 -1.7132  1.1904 -1.0033
   54CHL1    C3 6403   2.229   6.544   9.970  0.1890  0.8649  0.0502
   54CHL1    H3 6404   2.285   6.640   9.964  0.3204  0.7122 -1.9634
   54CHL1    O3 6405   2.172   6.541  10.103 -0.3135  0.2979  0.4827
   54CHL1   H3' 6406   2.146   6.449  10.116 -1.4597  0.2922 -1.4322
   54CHL1    C4 6407   2.114   6.539   9.876 -0.0703  0.3706  0.0475
   54CHL1   H4A 6408   2.051   6.450   9.895  2.6015 -1.7222 -0.2499
   54CHL1   H4B 6409   2.041   6.619   9.900 -1.7827 -0.4054 -2.2654
   54CHL1    C5 6410   2.161   6.539   9.730 -0.3969  0.0035  1.2492
   54CHL1    C6 6411   2.124   6.626   9.633 -0.1617  0.0039  0.2444
   54CHL1    H6 6412   2.057   6.708   9.661  2.9297  2.0177  2.2978
   54CHL1    C7 6413   2.168   6.623   9.485  0.6751  1.0134 -0.0267
   54CHL1   H7A 6414   2.087   6.653   9.415  2.4660 -0.8658 -3.1473
   54CHL1   H7B 6415   2.253   6.693   9.476  1.1382  0.3489 -1.0067
   54CHL1    C8 6416   2.225   6.482   9.450  0.2968 -0.5018 -0.0761
   54CHL1    H8 6417   2.145   6.405   9.450 -0.0403 -0.1577  0.4487
   54CHL1   C14 6418   2.297   6.491   9.318  0.3587  0.3473  0.1494
   54CHL1   H14 6419   2.370   6.574   9.333  1.5247 -0.5568 -0.3438
   54CHL1   C15 6420   2.221   6.547   9.197  0.0409 -0.2348  0.4894
   54CHL1  H15A 6421   2.112   6.522   9.198 -0.3501  1.3502  0.6264
   54CHL1  H15B 6422   2.235   6.657   9.188  0.2038 -0.4468 -4.1009
   54CHL1   C16 6423   2.282   6.486   9.075 -0.2201  0.3457  0.2132
   54CHL1  H16A 6424   2.207   6.431   9.014 -0.9110  1.0292  0.4329
   54CHL1  H16B 6425   2.330   6.568   9.018  0.0298 -0.9364 -1.4994
   54CHL1   C17 6426   2.405   6.399   9.123 -0.0801  0.1871  0.0111
   54CHL1   H17 6427   2.488   6.473   9.117 -0.7894  1.0000 -0.0060
   54CHL1   C13 6428   2.375   6.365   9.268  0.8441  0.2589 -0.2431
   54CHL1   C18 6429   2.280   6.243   9.276 -0.3814 -0.2506  0.4799
   54CHL1  H18A 6430   2.334   6.151   9.246  0.8635 -0.7458  3.8015
   54CHL1  H18B 6431   2.236   6.223   9.376 -2.7255 -0.7743 -0.5986
   54CHL1  H18C 6432   2.190   6.252   9.213  0.5058  0.3982 -0.7464
   54CHL1   C12 6433   2.495   6.348   9.363 -0.0807 -0.7051 -0.0744
   54CHL1  H12A 6434   2.557   6.257   9.343  1.0336 -0.5218  2.1482
   54CHL1  H12B 6435   2.547   6.445   9.353 -1.1971  0.0438  1.0677
   54CHL1   C11 6436   2.440   6.343   9.507 -0.1509  0.0536  0.7363
   54CHL1  H11A 6437   2.408   6.237   9.521  2.6146 -1.4572 -2.8548
   54CHL1  H11B 6438   2.520   6.355   9.583  1.6337 -0.8652 -0.9289
   54CHL1    C9 6439   2.331   6.451   9.554  0.1510  0.1400  0.4414
   54CHL1    H9 6440   2.393   6.542   9.567 -0.4447  0.5386  0.5441
   54CHL1   C10 6441   2.268   6.425   9.691 -0.1341  0.8790 -1.3462
   54CHL1   C19 6442   2.191   6.290   9.695  0.0162 -0.4650 -0.0442
   54CHL1  H19A 6443   2.254   6.198   9.700 -2.4339 -2.3051 -0.9942
   54CHL1  H19B 6444   2.121   6.283   9.781  1.1220 -2.0050  0.8002
   54CHL1  H19C 6445   2.132   6.275   9.602 -0.1108 -0.6900  0.0696
   54CHL1    C1 6446   2.377   6.435   9.801  0.3366  0.7546 -0.2289
   54CHL1   H1A 6447   2.445   6.353   9.773 -0.0540  0.9297 -1.8464
   54CHL1   H1B 6448   2.433   6.530   9.783  1.3020  0.0220 -1.1944
   54CHL1    C2 6449   2.333   6.429   9.944 -0.4821 -0.1829 -0.4176
   54CHL1   H2A 6450   2.418   6.439  10.016 -0.0999  0.0503 -0.8995
   54CHL1   H2B 6451   2.282   6.334   9.971  1.0690 -0.4483  1.8870
   54CHL1   C20 6452   2.436   6.283   9.024  0.0853 -0.3666 -0.3951
   54CHL1   H20 6453   2.340   6.227   9.024 -1.6505  2.4215  0.0670
   54CHL1   C21 6454   2.565   6.207   9.054 -0.2136 -0.0708  0.4250
   54CHL1  H21A 6455   2.597   6.147   8.967 -0.8835 -0.0701  0.1740
   54CHL1  H21B 6456   2.553   6.135   9.138 -0.2338 -1.5710 -0.8117
   54CHL1  H21C 6457   2.648   6.281   9.064 -0.1549  0.2753 -2.0482
   54CHL1   C22 6458   2.452   6.346   8.878 -0.1251  0.4108  0.2008
   54CHL1  H22A 6459   2.492   6.259   8.821 -1.8857 -0.7086  0.5929
   54CHL1  H22B 6460   2.356   6.388   8.842 -0.3561 -0.3885 -0.1310
   54CHL1   C23 6461   2.555   6.457   8.863  0.9377 -0.0575  0.4557
   54CHL1  H23A 6462   2.529   6.549   8.919 -0.0936 -1.4594  2.3850
   54CHL1  H23B 6463   2.653   6.418   8.899 -0.2698 -1.8710  1.9633
   54CHL1   C24 6464   2.572   6.480   8.707 -0.5003  0.3398 -0.0167
   54CHL1  H24A 6465   2.592   6.378   8.668 -1.6910  0.1645 -0.2101
   54CHL1  H24B 6466   2.479   6.521   8.662 -0.8737 -1.3323 -0.8478
   54CHL1   C25 6467   2.703   6.563   8.666 -0.0586 -0.3055 -0.5092
   54CHL1   H25 6468   2.793   6.505   8.695 -0.6518 -0.0021  2.2166
   54CHL1   C26 6469   2.708   6.584   8.519 -0.7072  0.2866  0.4533
   54CHL1  H26A 6470   2.712   6.487   8.465 -1.0721  0.3226  0.3591
   54CHL1  H26B 6471   2.623   6.652   8.496 -0.9771  0.2623  1.3200
   54CHL1  H26C 6472   2.799   6.641   8.490 -0.2417 -0.9085 -0.5285
   54CHL1   C27 6473   2.714   6.697   8.746  0.0181 -0.1189  0.4783
   54CHL1  H27A 6474   2.698   6.673   8.853 -3.2000 -3.4582 -0.5122
   54CHL1  H27B 6475   2.813   6.744   8.728 -0.2253 -0.4947 -2.2600
   54CHL1  H27C 6476   2.638   6.775   8.724  0.2657 -0.0581 -0.1994
   55CHL1    C3 6477   2.779   3.285  10.045  0.4697  0.8984 -0.0477
   55CHL1    H3 6478   2.886   3.254  10.051  0.8981  1.0947 -3.8355
   55CHL1    O3 6479   2.731   3.331  10.171  0.0473 -0.1637 -0.0564
   55CHL1   H3' 6480   2.776   3.274  10.234 -0.9229 -1.3767 -0.4262
   55CHL1    C4 6481   2.779   3.412   9.952 -0.3313  0.0488 -0.3394
   55CHL1   H4A 6482   2.682   3.468   9.958 -1.1285 -1.4356  1.3228
   55CHL1   H4B 6483   2.851   3.481  10.000 -0.9628  0.0442  0.6331
   55CHL1    C5 6484   2.819   3.385   9.808  1.1956  0.3572 -0.5203
   55CHL1    C6 6485   2.908   3.462   9.749 -1.1947 -0.1548 -0.0431
   55CHL1    H6 6486   2.957   3.546   9.799  1.0423 -0.9325 -0.7980
   55CHL1    C7 6487   2.958   3.452   9.604  0.3202 -0.8191 -0.2100
   55CHL1   H7A 6488   2.938   3.545   9.546 -0.6795 -0.4956  0.6091
   55CHL1   H7B 6489   3.062   3.417   9.594  0.4072 -0.4884 -0.4978
   55CHL1    C8 6490   2.862   3.359   9.533  0.3703 -0.1308 -0.0591
   55CHL1    H8 6491   2.767   3.410   9.507  0.2991  1.2850  2.6227
   55CHL1   C14 6492   2.937   3.306   9.405 -0.6258 -0.2642  0.2624
   55CHL1   H14 6493   3.020   3.241   9.441 -0.6572 -1.4135 -1.6060
   55CHL1   C15 6494   3.000   3.408   9.311 -0.2252  0.0545  0.2398
   55CHL1  H15A 6495   2.968   3.514   9.317  2.7675  1.0283  0.5380
   55CHL1  H15B 6496   3.103   3.414   9.352 -0.4733 -1.2539  1.1417
   55CHL1   C16 6497   3.021   3.332   9.178  0.3822  0.0782 -0.3707
   55CHL1  H16A 6498   2.988   3.379   9.083  0.5410 -1.0021 -0.9724
   55CHL1  H16B 6499   3.131   3.323   9.165  0.2224 -1.7670 -0.6661
   55CHL1   C17 6500   2.956   3.193   9.202  0.0457 -1.0257  0.7400
   55CHL1   H17 6501   3.042   3.133   9.238 -0.5975 -2.8232 -0.5934
   55CHL1   C13 6502   2.854   3.214   9.312  0.3051  0.4126  0.2768
   55CHL1   C18 6503   2.729   3.291   9.264 -0.1081 -0.7794 -0.2542
   55CHL1  H18A 6504   2.758   3.384   9.211 -1.9418 -0.1628 -0.2343
   55CHL1  H18B 6505   2.667   3.242   9.186 -0.5034 -1.7494  0.6569
   55CHL1  H18C 6506   2.659   3.306   9.349 -1.4975  0.7893 -1.6036
   55CHL1   C12 6507   2.811   3.089   9.398  0.2887  0.0952 -0.0774
   55CHL1  H12A 6508   2.746   3.017   9.344  0.3293 -0.0643  0.0870
   55CHL1  H12B 6509   2.902   3.032   9.425 -0.2503 -1.2164 -0.9551
   55CHL1   C11 6510   2.740   3.133   9.530  0.1787 -0.6646 -0.6369
   55CHL1  H11A 6511   2.643   3.183   9.506  0.7185  0.8989  0.2301
   55CHL1  H11B 6512   2.719   3.037   9.582 -1.3528 -1.1389 -2.0478
   55CHL1    C9 6513   2.823   3.240   9.617 -0.0246  0.2686  0.4828
   55CHL1    H9 6514   2.917   3.188   9.646  0.3816  0.3125 -0.6993
   55CHL1   C10 6515   2.741   3.264   9.741  0.4166 -0.5951  0.3241
   55CHL1   C19 6516   2.594   3.302   9.720 -0.0402 -0.1463 -0.2585
   55CHL1  H19A 6517   2.539   3.219   9.672  1.6773 -2.3036  1.3222
   55CHL1  H19B 6518   2.545   3.342   9.811 -0.9055  2.6618 -1.8050
   55CHL1  H19C 6519   2.583   3.388   9.650  0.6525  1.6625  1.7442
   55CHL1    C1 6520   2.738   3.142   9.836 -0.2835  0.5028  0.2313
   55CHL1   H1A 6521   2.672   3.064   9.792  2.7027 -0.5252 -2.8217
   55CHL1   H1B 6522   2.841   3.100   9.830 -0.3656  0.4954 -1.7127
   55CHL1    C2 6523   2.690   3.172   9.982 -0.0801 -0.2338  0.3790
   55CHL1   H2A 6524   2.696   3.081  10.046  1.0036 -0.9339 -0.6724
   55CHL1   H2B 6525   2.586   3.209   9.972 -0.6639 -2.0119 -0.5014
   55CHL1   C20 6526   2.911   3.129   9.069  0.7254  0.3913 -0.5751
   55CHL1   H20 6527   2.804   3.151   9.046  0.1906  0.3643  1.6836
   55CHL1   C21 6528   2.937   2.976   9.093  0.1577 -0.3906  0.0071
   55CHL1  H21A 6529   2.899   2.948   9.194  0.9311 -0.9838  0.1515
   55CHL1  H21B 6530   3.046   2.961   9.078  0.0843 -0.6194 -0.2949
   55CHL1  H21C 6531   2.888   2.917   9.014  1.3155  0.6147 -1.5163
   55CHL1   C22 6532   2.985   3.175   8.939  0.0285 -0.0355 -0.7576
   55CHL1  H22A 6533   2.964   3.281   8.918  1.1068  0.4007  0.2509
   55CHL1  H22B 6534   3.094   3.164   8.958 -0.3199 -1.8914  0.4650
   55CHL1   C23 6535   2.951   3.085   8.820 -0.2436 -0.4016  0.4155
   55CHL1  H23A 6536   3.002   3.130   8.732  0.2309  1.8972  1.7738
   55CHL1  H23B 6537   2.986   2.981   8.837  0.1236  0.0105  2.4553
   55CHL1   C24 6538   2.800   3.081   8.779  0.2286  0.5348  0.0562
   55CHL1  H24A 6539   2.741   3.036   8.862  0.7695  0.8530  0.6224
   55CHL1  H24B 6540   2.765   3.186   8.776 -2.0909 -0.2028 -0.3515
   55CHL1   C25 6541   2.779   3.005   8.646  0.2252 -0.1151  0.1565
   55CHL1   H25 6542   2.842   2.914   8.641  0.1598 -0.2036  0.7972
   55CHL1   C26 6543   2.629   2.971   8.625  0.1319  0.0277 -0.7930
   55CHL1  H26A 6544   2.617   2.919   8.528  0.2550 -1.4752 -0.0354
   55CHL1  H26B 6545   2.598   2.901   8.706  1.1810  0.2791 -0.1552
   55CHL1  H26C 6546   2.568   3.063   8.618 -0.1974 -0.0236  0.8546
   55CHL1   C27 6547   2.812   3.083   8.517  0.4509 -0.0104  0.2458
   55CHL1  H27A 6548   2.761   3.181   8.503 -0.0033 -0.3634 -0.6894
   55CHL1  H27B 6549   2.920   3.108   8.507  0.1224  1.3413 -0.2746
   55CHL1  H27C 6550   2.782   3.020   8.430  1.5441 -0.0298 -0.1360
   56CHL1    C3 6551   2.478   2.389   9.832  0.0280 -0.2616  0.3963
   56CHL1    H3 6552   2.585   2.403   9.804 -0.3412 -0.6642 -1.3859
   56CHL1    O3 6553   2.458   2.434   9.963  0.5976 -0.7902  0.1961
   56CHL1   H3' 6554   2.363   2.438   9.976  0.6455 -0.6895  0.5307
   56CHL1    C4 6555   2.392   2.482   9.737 -0.2585 -0.1482 -0.0583
   56CHL1   H4A 6556   2.291   2.464   9.779 -0.6754  0.3211 -0.8392
   56CHL1   H4B 6557   2.417   2.589   9.751  2.3929 -0.7748  0.5674
   56CHL1    C5 6558   2.384   2.433   9.594 -0.3434  0.2782 -0.9143
   56CHL1    C6 6559   2.395   2.520   9.492  0.5765 -0.4892  0.1261
   56CHL1    H6 6560   2.402   2.628   9.513  0.1462 -0.2509 -0.8603
   56CHL1    C7 6561   2.396   2.479   9.346  0.1542 -0.4907 -0.2031
   56CHL1   H7A 6562   2.327   2.547   9.290 -1.2848  0.4775  2.5315
   56CHL1   H7B 6563   2.498   2.501   9.308 -0.1024 -1.3630 -1.4716
   56CHL1    C8 6564   2.364   2.328   9.318 -0.4528 -0.0730 -0.3511
   56CHL1    H8 6565   2.254   2.316   9.309 -1.1387  2.7944  2.5130
   56CHL1   C14 6566   2.428   2.287   9.185  0.3418 -0.1287 -0.3779
   56CHL1   H14 6567   2.539   2.288   9.197  0.2377 -0.3181  0.7196
   56CHL1   C15 6568   2.382   2.366   9.060 -0.5618  0.2243  1.4607
   56CHL1  H15A 6569   2.272   2.378   9.057 -0.7555 -1.4170 -1.6255
   56CHL1  H15B 6570   2.431   2.466   9.060 -0.7683  0.3578 -0.3918
   56CHL1   C16 6571   2.429   2.282   8.939  0.1840 -0.3204 -0.5334
   56CHL1  H16A 6572   2.345   2.287   8.867 -0.9716  0.6963  0.8347
   56CHL1  H16B 6573   2.522   2.317   8.888 -0.3650 -0.0050 -1.3289
   56CHL1   C17 6574   2.462   2.146   9.003  0.5967  0.1676 -0.1063
   56CHL1   H17 6575   2.572   2.140   9.019  0.2356  0.1934  3.1102
   56CHL1   C13 6576   2.402   2.145   9.147 -0.0615 -0.1222 -0.6522
   56CHL1   C18 6577   2.249   2.118   9.142  0.5765 -0.3058 -0.1639
   56CHL1  H18A 6578   2.198   2.189   9.073  0.8401  2.0047  1.8851
   56CHL1  H18B 6579   2.225   2.011   9.124 -1.4160 -0.1491  1.2485
   56CHL1  H18C 6580   2.197   2.127   9.240 -0.1103  0.2929 -0.5715
   56CHL1   C12 6581   2.474   2.056   9.260 -0.1451  0.1101 -0.3728
   56CHL1  H12A 6582   2.468   1.947   9.239  1.0444 -0.1988  0.7584
   56CHL1  H12B 6583   2.582   2.081   9.254 -0.8827  3.4993 -2.4957
   56CHL1   C11 6584   2.414   2.087   9.399  0.3098 -0.3994 -0.2307
   56CHL1  H11A 6585   2.308   2.054   9.408  0.2420  0.3337  2.8698
   56CHL1  H11B 6586   2.470   2.025   9.472 -0.9648  0.3488  1.4450
   56CHL1    C9 6587   2.425   2.237   9.426 -0.0162 -0.1067  0.0415
   56CHL1    H9 6588   2.533   2.266   9.424 -0.2105  0.6915  0.6780
   56CHL1   C10 6589   2.390   2.281   9.570  0.2416 -0.0745  0.1137
   56CHL1   C19 6590   2.239   2.239   9.589 -0.1861 -0.0174 -0.1864
   56CHL1  H19A 6591   2.167   2.281   9.515 -0.6764 -1.5347 -0.6118
   56CHL1  H19B 6592   2.230   2.128   9.591  0.4799 -0.0750 -0.3804
   56CHL1  H19C 6593   2.200   2.268   9.688  1.9408  0.5678  0.5224
   56CHL1    C1 6594   2.476   2.205   9.676 -0.0895  0.0379 -1.0187
   56CHL1   H1A 6595   2.432   2.103   9.670 -0.9878  0.4446 -1.5226
   56CHL1   H1B 6596   2.584   2.206   9.648 -0.0123 -0.0568 -0.7249
   56CHL1    C2 6597   2.458   2.241   9.823 -1.0169 -0.1732  0.5424
   56CHL1   H2A 6598   2.521   2.177   9.887 -0.2409  0.2606  0.2249
   56CHL1   H2B 6599   2.351   2.229   9.852 -1.5246  0.2616 -0.9999
   56CHL1   C20 6600   2.428   2.036   8.914  0.1532 -0.2933 -0.2317
   56CHL1   H20 6601   2.318   2.027   8.909  0.2097 -0.8269 -0.4929
   56CHL1   C21 6602   2.485   1.903   8.971 -0.6043  0.2136  0.7100
   56CHL1  H21A 6603   2.419   1.865   9.051 -0.9008 -2.0500 -0.5378
   56CHL1  H21B 6604   2.592   1.913   8.998 -0.3955 -0.7585  0.2847
   56CHL1  H21C 6605   2.473   1.825   8.892 -0.2497  0.3541  0.5096
   56CHL1   C22 6606   2.476   2.048   8.767 -0.6375 -0.1916  0.4306
   56CHL1  H22A 6607   2.439   2.140   8.718  0.0129 -1.1129 -1.9240
   56CHL1  H22B 6608   2.587   2.053   8.763 -0.6643  2.4499  1.4519
   56CHL1   C23 6609   2.424   1.943   8.660  0.3397 -0.8351 -0.1775
   56CHL1  H23A 6610   2.466   1.849   8.701  0.5834  0.4228  2.6794
   56CHL1  H23B 6611   2.313   1.950   8.649  0.4556 -0.2822 -1.0597
   56CHL1   C24 6612   2.471   1.969   8.522  0.2011  0.3427  0.3647
   56CHL1  H24A 6613   2.420   2.056   8.474  0.2455 -0.0373 -0.3904
   56CHL1  H24B 6614   2.580   1.985   8.510  0.3499 -0.3574  0.7338
   56CHL1   C25 6615   2.448   1.838   8.431 -0.0122  0.5016  0.1102
   56CHL1   H25 6616   2.344   1.802   8.447  1.0236 -2.0291  1.7386
   56CHL1   C26 6617   2.482   1.877   8.289  0.4907  0.8706 -0.0375
   56CHL1  H26A 6618   2.392   1.934   8.256 -1.1652 -0.5593  1.7797
   56CHL1  H26B 6619   2.578   1.932   8.293  0.3587  1.1412 -0.4748
   56CHL1  H26C 6620   2.491   1.788   8.223 -0.2651  0.6714  0.1164
   56CHL1   C27 6621   2.546   1.725   8.467  0.3716  0.6778  0.0545
   56CHL1  H27A 6622   2.523   1.689   8.569 -3.6713 -0.3108 -1.0364
   56CHL1  H27B 6623   2.512   1.644   8.399  1.1531  1.0933 -0.8626
   56CHL1  H27C 6624   2.652   1.755   8.450  0.6083  0.8131  1.6105
   57CHL1    C3 6625   6.027   2.534  10.057  0.1279  0.0505  0.6570
   57CHL1    H3 6626   6.104   2.462  10.022  0.7246  1.2581 -0.5820
   57CHL1    O3 6627   6.044   2.552  10.196 -0.2058  0.2410 -0.3911
   57CHL1   H3' 6628   6.006   2.635  10.225 -0.7033 -0.0938 -0.0823
   57CHL1    C4 6629   6.039   2.671   9.987 -0.3610 -0.5334  0.2000
   57CHL1   H4A 6630   5.978   2.753  10.030 -2.2954 -1.1901 -1.1437
   57CHL1   H4B 6631   6.144   2.698  10.012 -0.5496  0.3148  0.1045
   57CHL1    C5 6632   6.011   2.652   9.840  0.1470 -0.5999  0.4125
   57CHL1    C6 6633   6.097   2.684   9.738  0.0830 -0.5779  0.5780
   57CHL1    H6 6634   6.198   2.713   9.769  0.6945 -0.2451 -1.5759
   57CHL1    C7 6635   6.064   2.688   9.587  0.3069 -0.8303 -0.4103
   57CHL1   H7A 6636   6.097   2.789   9.556  1.3471 -0.5310  1.5080
   57CHL1   H7B 6637   6.130   2.617   9.533  2.7719  0.0867  1.2463
   57CHL1    C8 6638   5.917   2.655   9.560 -0.4065  0.4231  0.4251
   57CHL1    H8 6639   5.866   2.753   9.574 -1.8800 -0.4130  1.2137
   57CHL1   C14 6640   5.899   2.609   9.419 -0.5692 -0.3522 -0.7214
   57CHL1   H14 6641   5.943   2.507   9.421 -2.3836 -1.1696  0.2438
   57CHL1   C15 6642   5.952   2.699   9.305  0.1186 -0.6701  0.3857
   57CHL1  H15A 6643   5.931   2.804   9.333  0.0471 -0.2293 -1.2077
   57CHL1  H15B 6644   6.059   2.673   9.293  0.6149  1.3777 -0.1027
   57CHL1   C16 6645   5.862   2.676   9.182 -0.3727  0.2267  0.5842
   57CHL1  H16A 6646   5.806   2.762   9.141 -0.2816 -1.1996 -2.8654
   57CHL1  H16B 6647   5.932   2.635   9.106 -0.2381  1.0668  0.2448
   57CHL1   C17 6648   5.763   2.568   9.235  0.3580 -0.0657  0.6959
   57CHL1   H17 6649   5.819   2.474   9.219  0.9170  0.2489  0.7897
   57CHL1   C13 6650   5.752   2.595   9.386  0.4642  0.2620 -0.0026
   57CHL1   C18 6651   5.664   2.723   9.413  0.5488 -0.2737 -0.4639
   57CHL1  H18A 6652   5.564   2.714   9.364  0.0065  1.0182  0.3525
   57CHL1  H18B 6653   5.648   2.740   9.522 -1.2068 -0.6346 -0.6241
   57CHL1  H18C 6654   5.713   2.812   9.368  0.5209  0.1746  0.3688
   57CHL1   C12 6655   5.701   2.474   9.469  0.1585  0.0639 -0.5406
   57CHL1  H12A 6656   5.594   2.459   9.441  0.3882 -1.7121 -0.5362
   57CHL1  H12B 6657   5.757   2.386   9.432  0.0425 -0.7377  1.1303
   57CHL1   C11 6658   5.717   2.494   9.623 -0.1696 -0.2644  0.0743
   57CHL1  H11A 6659   5.632   2.560   9.650 -1.1623 -1.3617 -0.3115
   57CHL1  H11B 6660   5.701   2.402   9.681  0.4780  0.4926  1.4952
   57CHL1    C9 6661   5.861   2.548   9.656 -0.0956 -0.7771  0.6046
   57CHL1    H9 6662   5.933   2.464   9.648  0.9317 -0.1295  2.5590
   57CHL1   C10 6663   5.870   2.591   9.808  0.1029  0.2438 -0.5650
   57CHL1   C19 6664   5.762   2.697   9.842 -0.0444  0.1724 -0.0174
   57CHL1  H19A 6665   5.770   2.724   9.950 -1.2234 -0.1586  0.1647
   57CHL1  H19B 6666   5.782   2.793   9.789 -1.5926  1.4936  1.6649
   57CHL1  H19C 6667   5.659   2.664   9.818  0.0163 -0.0251 -0.0087
   57CHL1    C1 6668   5.848   2.461   9.897  0.6306  0.1519  0.0958
   57CHL1   H1A 6669   5.741   2.431   9.901  0.6826 -0.1789 -0.8439
   57CHL1   H1B 6670   5.911   2.377   9.862  2.0182  2.2521 -2.7917
   57CHL1    C2 6671   5.883   2.487  10.041  0.4849  0.4612  0.5507
   57CHL1   H2A 6672   5.873   2.390  10.096 -0.5593  0.4655  0.3807
   57CHL1   H2B 6673   5.816   2.561  10.090 -2.4183 -1.0586 -0.8928
   57CHL1   C20 6674   5.632   2.541   9.158  0.0860 -0.2730  0.3581
   57CHL1   H20 6675   5.554   2.503   9.228 -1.1273  0.2072 -0.6797
   57CHL1   C21 6676   5.646   2.425   9.065 -0.0778 -0.5930 -0.6263
   57CHL1  H21A 6677   5.675   2.332   9.119  0.5775 -0.5537 -0.8923
   57CHL1  H21B 6678   5.715   2.427   8.978  1.3770  0.2457  0.5058
   57CHL1  H21C 6679   5.546   2.389   9.033  0.4546 -0.5994 -2.4010
   57CHL1   C22 6680   5.577   2.667   9.083 -0.6061 -0.0390  0.5376
   57CHL1  H22A 6681   5.601   2.759   9.141 -1.2691  0.9065 -0.6592
   57CHL1  H22B 6682   5.628   2.669   8.985 -0.5384 -1.1364  0.5406
   57CHL1   C23 6683   5.429   2.683   9.045  0.3220  0.0924 -0.7705
   57CHL1  H23A 6684   5.412   2.593   8.982  3.0972 -1.5288  0.5709
   57CHL1  H23B 6685   5.377   2.658   9.139  2.3889 -0.6885  0.2398
   57CHL1   C24 6686   5.386   2.810   8.972 -0.5758 -1.2891 -0.8910
   57CHL1  H24A 6687   5.404   2.887   9.050 -2.3198 -0.7348 -0.9827
   57CHL1  H24B 6688   5.452   2.849   8.891  0.8131 -0.4531  0.5944
   57CHL1   C25 6689   5.245   2.827   8.918  0.7046 -0.3084  0.5772
   57CHL1   H25 6690   5.236   2.766   8.826  2.9858 -0.2068  0.2517
   57CHL1   C26 6691   5.145   2.785   9.020 -0.7064 -0.0285 -0.1623
   57CHL1  H26A 6692   5.043   2.817   8.988 -0.5416  0.5816 -0.0776
   57CHL1  H26B 6693   5.154   2.675   9.037  1.8473  0.0772 -0.4602
   57CHL1  H26C 6694   5.167   2.831   9.118  0.7776 -2.6231  0.8365
   57CHL1   C27 6695   5.211   2.972   8.881  0.4495 -0.7105  0.1060
   57CHL1  H27A 6696   5.214   3.027   8.978  2.9636  0.9916 -0.8275
   57CHL1  H27B 6697   5.288   3.021   8.817  0.5599 -2.2160 -0.9442
   57CHL1  H27C 6698   5.108   2.978   8.840 -0.2020 -1.0960  1.6023
   58CHL1    C3 6699   0.854   1.689   9.899 -0.2100 -0.7115  0.1259
   58CHL1    H3 6700   0.752   1.660   9.863 -0.0410 -0.2707 -0.7265
   58CHL1    O3 6701   0.905   1.626  10.021 -0.0192 -0.1332  0.2432
   58CHL1   H3' 6702   0.867   1.674  10.094 -0.8245 -1.0522  0.4468
   58CHL1    C4 6703   0.944   1.667   9.780 -0.7682  0.2999  0.5945
   58CHL1   H4A 6704   1.041   1.695   9.826 -0.6058  3.2792 -1.2978
   58CHL1   H4B 6705   0.952   1.559   9.755 -0.0233  0.8373 -1.7071
   58CHL1    C5 6706   0.908   1.744   9.650 -0.1017  0.4905 -0.5358
   58CHL1    C6 6707   0.885   1.683   9.528 -0.0411 -0.5328  0.1308
   58CHL1    H6 6708   0.897   1.573   9.526 -0.5192 -0.6187  1.3408
   58CHL1    C7 6709   0.851   1.761   9.405  0.2292  0.1355 -0.1664
   58CHL1   H7A 6710   0.922   1.736   9.323  0.9202  1.5303 -0.0151
   58CHL1   H7B 6711   0.745   1.740   9.377  0.4264 -2.1801  0.5950
   58CHL1    C8 6712   0.856   1.919   9.428  0.6938 -0.2276  1.0050
   58CHL1    H8 6713   0.957   1.962   9.415 -0.6339  3.2871  1.3881
   58CHL1   C14 6714   0.759   1.986   9.328  0.2122  0.5897 -0.3311
   58CHL1   H14 6715   0.655   1.952   9.348  0.4393 -0.9728 -1.5202
   58CHL1   C15 6716   0.769   1.944   9.181  0.0809  0.5039  0.7259
   58CHL1  H15A 6717   0.872   1.948   9.141 -0.5708 -1.0784 -1.2376
   58CHL1  H15B 6718   0.728   1.842   9.167  2.4455 -0.2287 -1.4102
   58CHL1   C16 6719   0.680   2.049   9.107  0.2003  0.2014  0.6262
   58CHL1  H16A 6720   0.737   2.098   9.026  0.3689  2.0789  1.8225
   58CHL1  H16B 6721   0.585   2.008   9.069  0.0280  0.9189  0.2782
   58CHL1   C17 6722   0.658   2.165   9.218 -0.3853 -0.3721 -0.3620
   58CHL1   H17 6723   0.553   2.142   9.248 -0.6260  1.3721  0.2096
   58CHL1   C13 6724   0.754   2.139   9.335 -0.0921  0.4175  0.0433
   58CHL1   C18 6725   0.897   2.195   9.304 -0.3355 -0.3717  0.4239
   58CHL1  H18A 6726   0.974   2.159   9.375  0.3233  0.6781  0.2606
   58CHL1  H18B 6727   0.947   2.153   9.213 -0.9508 -2.0221  0.8016
   58CHL1  H18C 6728   0.891   2.304   9.288 -2.8997 -0.7422 -2.0234
   58CHL1   C12 6729   0.713   2.181   9.478  0.1862 -0.0548 -1.0194
   58CHL1  H12A 6730   0.724   2.291   9.494  1.0584 -0.3056  0.2709
   58CHL1  H12B 6731   0.608   2.149   9.495  0.5470 -1.1743 -0.7985
   58CHL1   C11 6732   0.802   2.116   9.582 -0.2329 -0.0563  0.0688
   58CHL1  H11A 6733   0.905   2.155   9.564  0.1684 -1.4091 -0.6876
   58CHL1  H11B 6734   0.769   2.144   9.684  1.3603  2.4325 -0.0175
   58CHL1    C9 6735   0.811   1.964   9.563 -0.2352 -0.4739 -0.8180
   58CHL1    H9 6736   0.706   1.929   9.569 -0.0124 -1.1339 -0.6645
   58CHL1   C10 6737   0.884   1.894   9.673  0.0232  1.1467  0.0251
   58CHL1   C19 6738   1.024   1.966   9.704  0.5594 -1.0648  1.1161
   58CHL1  H19A 6739   1.101   1.911   9.762  3.5270  2.1675  0.5876
   58CHL1  H19B 6740   1.072   1.986   9.606  0.7059 -5.2130  0.1936
   58CHL1  H19C 6741   1.011   2.066   9.752  0.2711 -0.6200  0.1364
   58CHL1    C1 6742   0.789   1.902   9.797  0.4745  0.6589 -0.3977
   58CHL1   H1A 6743   0.778   2.009   9.826 -0.7577  0.4277  0.0657
   58CHL1   H1B 6744   0.685   1.869   9.774  0.7793  0.4230 -1.4720
   58CHL1    C2 6745   0.843   1.841   9.930 -0.5957  0.5179 -0.1105
   58CHL1   H2A 6746   0.777   1.865  10.016  1.2754  0.9120  1.2769
   58CHL1   H2B 6747   0.943   1.878   9.961 -1.6541  2.3033  1.3501
   58CHL1   C20 6748   0.644   2.307   9.142 -0.1900  0.1053 -0.1467
   58CHL1   H20 6749   0.744   2.325   9.097  0.6602 -0.0020  1.6053
   58CHL1   C21 6750   0.625   2.414   9.249 -0.1000 -0.4187  0.5668
   58CHL1  H21A 6751   0.717   2.422   9.312  1.1449  0.4390 -1.2742
   58CHL1  H21B 6752   0.534   2.384   9.305 -0.8201 -0.7889 -0.7745
   58CHL1  H21C 6753   0.600   2.511   9.201 -1.1468 -0.4885  0.9465
   58CHL1   C22 6754   0.543   2.318   9.025  0.2071  0.1829 -0.0249
   58CHL1  H22A 6755   0.557   2.233   8.955  1.0021  0.4270 -0.1691
   58CHL1  H22B 6756   0.440   2.307   9.065 -0.0185 -1.9816 -1.0403
   58CHL1   C23 6757   0.560   2.433   8.923 -0.4878  0.4968 -0.1396
   58CHL1  H23A 6758   0.464   2.455   8.871  0.6314  0.8215 -2.1749
   58CHL1  H23B 6759   0.578   2.533   8.968 -2.2808  0.7307  0.1338
   58CHL1   C24 6760   0.663   2.405   8.806  0.2797  0.0205 -0.3664
   58CHL1  H24A 6761   0.762   2.384   8.852  0.7301 -0.4922 -1.5320
   58CHL1  H24B 6762   0.626   2.317   8.749 -0.8895 -0.7736  1.5353
   58CHL1   C25 6763   0.677   2.519   8.706 -0.5432 -0.1150  0.0595
   58CHL1   H25 6764   0.714   2.613   8.753 -2.5279  1.5240 -1.4383
   58CHL1   C26 6765   0.769   2.475   8.591 -0.5749 -0.2753 -1.0321
   58CHL1  H26A 6766   0.737   2.380   8.543 -0.9775 -1.3641  1.2524
   58CHL1  H26B 6767   0.769   2.549   8.509 -0.0919 -0.4271 -1.1706
   58CHL1  H26C 6768   0.868   2.458   8.639 -2.2058  0.0060  2.8074
   58CHL1   C27 6769   0.541   2.565   8.643 -0.0050 -0.1876 -0.0429
   58CHL1  H27A 6770   0.465   2.612   8.708  0.0400 -1.4131  0.9256
   58CHL1  H27B 6771   0.552   2.630   8.553 -0.2882  0.6508  0.5297
   58CHL1  H27C 6772   0.501   2.472   8.596 -0.4301 -1.0419  1.9435
   59CHL1    C3 6773   1.181   4.017  10.113 -0.3011  0.2174 -0.1594
   59CHL1    H3 6774   1.292   4.018  10.108 -0.2687  2.1101  0.0135
   59CHL1    O3 6775   1.130   4.044  10.245 -0.0243 -0.2050 -0.0130
   59CHL1   H3' 6776   1.040   4.013  10.249  0.6705 -2.2920  0.3762
   59CHL1    C4 6777   1.130   4.126  10.014  0.6506  0.0653 -0.2311
   59CHL1   H4A 6778   1.023   4.150  10.028  1.1278  2.6495 -0.4955
   59CHL1   H4B 6779   1.178   4.223  10.041 -1.5746  1.3361 -0.6032
   59CHL1    C5 6780   1.155   4.093   9.868  0.1840  0.2132  0.3740
   59CHL1    C6 6781   1.219   4.180   9.789  0.1396  0.2065 -0.1075
   59CHL1    H6 6782   1.243   4.278   9.833  0.7230  0.4635 -0.9680
   59CHL1    C7 6783   1.226   4.162   9.644  0.1653  0.6518 -0.1954
   59CHL1   H7A 6784   1.165   4.240   9.594 -0.9964 -0.6085 -0.8114
   59CHL1   H7B 6785   1.332   4.163   9.609 -0.7523  0.9618 -3.2898
   59CHL1    C8 6786   1.170   4.031   9.591  0.0269  0.3458  0.3568
   59CHL1    H8 6787   1.062   4.053   9.586  0.4317  2.6583  0.5215
   59CHL1   C14 6788   1.232   3.991   9.455 -0.2222 -0.5778  0.1408
   59CHL1   H14 6789   1.334   3.950   9.476  0.7095  1.5932  0.0744
   59CHL1   C15 6790   1.252   4.100   9.344  0.2312 -0.9223 -0.0653
   59CHL1  H15A 6791   1.169   4.173   9.354  0.5576 -0.8837  3.4295
   59CHL1  H15B 6792   1.342   4.165   9.353 -2.5788  3.2914  0.5924
   59CHL1   C16 6793   1.253   4.025   9.215  0.2282 -0.0984  0.5912
   59CHL1  H16A 6794   1.169   4.064   9.154  1.3095  4.2188  1.5448
   59CHL1  H16B 6795   1.351   4.032   9.164  0.5365  0.6835  1.2682
   59CHL1   C17 6796   1.236   3.872   9.247  0.4523  0.4502 -0.0855
   59CHL1   H17 6797   1.340   3.842   9.271  0.8631  2.4644  0.9237
   59CHL1   C13 6798   1.156   3.881   9.380  0.2073 -0.5690 -0.9810
   59CHL1   C18 6799   1.012   3.929   9.351 -0.1975 -0.0880  0.2830
   59CHL1  H18A 6800   0.969   3.932   9.454 -1.3556  0.6463 -0.2038
   59CHL1  H18B 6801   1.003   4.030   9.307  2.0227  0.0152 -0.0515
   59CHL1  H18C 6802   0.951   3.849   9.304 -0.7686 -0.3241  1.3771
   59CHL1   C12 6803   1.154   3.760   9.476  0.1652  0.0395 -0.1743
   59CHL1  H12A 6804   1.085   3.681   9.439  1.1953 -0.9607 -0.0227
   59CHL1  H12B 6805   1.261   3.728   9.485 -0.4199 -2.1069 -0.1547
   59CHL1   C11 6806   1.101   3.790   9.621 -0.6847 -0.7486  0.1035
   59CHL1  H11A 6807   0.991   3.811   9.622 -0.6592 -0.6217  1.1053
   59CHL1  H11B 6808   1.117   3.703   9.688 -1.5977 -1.1567 -0.1851
   59CHL1    C9 6809   1.171   3.915   9.686 -0.4683  0.2490 -0.6125
   59CHL1    H9 6810   1.273   3.881   9.713 -1.1044 -1.0170  0.2859
   59CHL1   C10 6811   1.108   3.951   9.825  0.0844  0.4184  0.6604
   59CHL1   C19 6812   0.956   3.960   9.807  0.5511  0.2908 -0.4235
   59CHL1  H19A 6813   0.920   4.004   9.903  1.3652 -0.3838  0.2042
   59CHL1  H19B 6814   0.915   4.028   9.729 -0.9311  2.0209  1.7191
   59CHL1  H19C 6815   0.906   3.862   9.810  0.4097  0.3929  1.5052
   59CHL1    C1 6816   1.142   3.840   9.927 -0.1755  0.6393 -0.2342
   59CHL1   H1A 6817   1.083   3.747   9.910  2.9310 -1.5730  0.1860
   59CHL1   H1B 6818   1.242   3.796   9.909 -0.0154  0.1621  1.6522
   59CHL1    C2 6819   1.133   3.875  10.076  0.5126  0.0397 -0.5996
   59CHL1   H2A 6820   1.195   3.800  10.129 -1.0163 -0.6773  0.2573
   59CHL1   H2B 6821   1.029   3.854  10.110  0.7461  1.3909  1.0727
   59CHL1   C20 6822   1.174   3.793   9.126  0.4544 -0.6659 -0.4820
   59CHL1   H20 6823   1.065   3.811   9.117  0.4909 -0.4984 -0.6035
   59CHL1   C21 6824   1.210   3.643   9.150  0.2327 -0.3800 -0.6511
   59CHL1  H21A 6825   1.321   3.630   9.154  0.4439  1.3443  0.2161
   59CHL1  H21B 6826   1.161   3.577   9.075 -0.3022 -1.0057  0.2395
   59CHL1  H21C 6827   1.167   3.618   9.249 -0.5788  0.0083 -0.8985
   59CHL1   C22 6828   1.232   3.841   8.996  0.3130  1.1577  0.0285
   59CHL1  H22A 6829   1.208   3.948   8.979  0.3245  0.9962 -1.1197
   59CHL1  H22B 6830   1.342   3.840   9.011  0.3596  1.8173 -0.2203
   59CHL1   C23 6831   1.182   3.772   8.865  0.3679  0.4623  0.0213
   59CHL1  H23A 6832   1.195   3.662   8.871  0.8320  0.5179  0.1075
   59CHL1  H23B 6833   1.072   3.782   8.855  0.1603 -1.8675 -0.6261
   59CHL1   C24 6834   1.255   3.837   8.745  0.1894  0.6112 -0.0406
   59CHL1  H24A 6835   1.231   3.945   8.748 -1.6462  0.2442  0.0007
   59CHL1  H24B 6836   1.360   3.817   8.774  0.0175 -2.3286 -1.0464
   59CHL1   C25 6837   1.233   3.782   8.601 -0.1956  0.6106 -0.2115
   59CHL1   H25 6838   1.311   3.827   8.536  2.4027  0.5776  2.6535
   59CHL1   C26 6839   1.253   3.629   8.605 -0.4126  0.1487  0.0207
   59CHL1  H26A 6840   1.269   3.583   8.505  1.9485 -1.6847  1.1512
   59CHL1  H26B 6841   1.353   3.596   8.639 -0.2889 -0.4923 -0.9177
   59CHL1  H26C 6842   1.169   3.586   8.664  0.0494 -0.5196  0.1912
   59CHL1   C27 6843   1.083   3.806   8.557  0.1210 -0.0344 -0.2885
   59CHL1  H27A 6844   1.015   3.775   8.639 -0.1039  0.1371 -0.4109
   59CHL1  H27B 6845   1.078   3.913   8.529 -1.9680  1.2255  4.0147
   59CHL1  H27C 6846   1.058   3.749   8.465 -1.9788  0.7827 -0.2889
   60CHL1    C3 6847   4.215   5.125  10.202  0.0909 -0.1649  0.5034
   60CHL1    H3 6848   4.323   5.149  10.194 -0.0555 -0.0680 -1.9496
   60CHL1    O3 6849   4.187   5.095  10.336  0.3299 -0.1164  0.3392
   60CHL1   H3' 6850   4.210   5.003  10.350  2.5641  0.2252 -0.5598
   60CHL1    C4 6851   4.127   5.243  10.169  0.1569 -0.7440  0.1404
   60CHL1   H4A 6852   4.020   5.214  10.172 -0.1901  0.3724 -0.6397
   60CHL1   H4B 6853   4.136   5.333  10.233  0.0427  0.2682 -1.2095
   60CHL1    C5 6854   4.155   5.286  10.025  0.2476 -0.1217  0.0112
   60CHL1    C6 6855   4.199   5.407   9.994 -0.4892  0.3615 -0.6146
   60CHL1    H6 6856   4.219   5.481  10.073  1.2677 -0.2680 -0.4179
   60CHL1    C7 6857   4.231   5.453   9.859 -0.6930 -0.5317 -0.2762
   60CHL1   H7A 6858   4.213   5.561   9.839  1.1327 -0.2726 -0.7115
   60CHL1   H7B 6859   4.341   5.442   9.848 -0.8251 -1.4936 -0.6513
   60CHL1    C8 6860   4.175   5.362   9.749  0.6434  0.7621  0.4205
   60CHL1    H8 6861   4.067   5.387   9.741  1.1983  3.1072 -0.7643
   60CHL1   C14 6862   4.231   5.385   9.608 -0.0266 -0.5414 -0.3921
   60CHL1   H14 6863   4.338   5.360   9.623 -0.6712 -3.2119  0.2153
   60CHL1   C15 6864   4.246   5.532   9.559  0.4979  0.0696  0.0862
   60CHL1  H15A 6865   4.147   5.579   9.575 -0.0237 -1.0907  0.3892
   60CHL1  H15B 6866   4.327   5.579   9.619  0.4395 -1.7366  1.6510
   60CHL1   C16 6867   4.274   5.513   9.407 -0.4608 -0.5425  0.0578
   60CHL1  H16A 6868   4.184   5.560   9.362 -0.1273  0.2703  0.2197
   60CHL1  H16B 6869   4.366   5.561   9.368 -1.0780  1.0513  0.4701
   60CHL1   C17 6870   4.278   5.364   9.376  0.8283 -0.3768  0.0071
   60CHL1   H17 6871   4.383   5.329   9.388  0.6291 -1.1211 -0.3587
   60CHL1   C13 6872   4.192   5.298   9.487  0.1619  0.0957  0.2432
   60CHL1   C18 6873   4.048   5.325   9.461  0.3055 -0.1168 -0.5896
   60CHL1  H18A 6874   3.991   5.304   9.553  0.2866 -0.2091 -0.6221
   60CHL1  H18B 6875   4.024   5.430   9.432 -0.4960  0.6130  2.3584
   60CHL1  H18C 6876   4.021   5.253   9.380  0.7374 -0.9111 -0.0376
   60CHL1   C12 6877   4.220   5.151   9.535  0.0467 -0.5363 -0.4558
   60CHL1  H12A 6878   4.186   5.083   9.454 -2.3710  1.7386 -1.5077
   60CHL1  H12B 6879   4.330   5.150   9.552 -0.0851  2.9956  1.5421
   60CHL1   C11 6880   4.151   5.119   9.667 -0.3257  0.5898 -0.3868
   60CHL1  H11A 6881   4.040   5.112   9.663 -0.3597 -1.3042  1.8522
   60CHL1  H11B 6882   4.185   5.016   9.689  0.1859  0.1801 -2.8089
   60CHL1    C9 6883   4.194   5.213   9.782  0.7223 -0.2573  0.0945
   60CHL1    H9 6884   4.304   5.202   9.794  0.9762  0.8641 -0.9950
   60CHL1   C10 6885   4.130   5.173   9.919  0.5398 -0.0738 -0.0978
   60CHL1   C19 6886   3.977   5.152   9.908  0.2849  0.4617 -0.0933
   60CHL1  H19A 6887   3.929   5.105   9.997 -1.1571  2.2897  0.1798
   60CHL1  H19B 6888   3.928   5.252   9.909 -0.2628  0.1958 -0.1770
   60CHL1  H19C 6889   3.935   5.096   9.822 -2.3723  0.8785  0.8167
   60CHL1    C1 6890   4.196   5.039   9.966 -0.2926  0.0167  0.6217
   60CHL1   H1A 6891   4.159   4.950   9.911  1.0383  0.5506 -1.2130
   60CHL1   H1B 6892   4.305   5.041   9.945 -0.6286  2.3496 -1.3281
   60CHL1    C2 6893   4.190   5.009  10.113 -0.7975  0.1663  0.2927
   60CHL1   H2A 6894   4.266   4.931  10.138  0.0656  0.9204  0.0777
   60CHL1   H2B 6895   4.088   4.971  10.134 -0.2701 -0.2016  2.4113
   60CHL1   C20 6896   4.227   5.339   9.231 -0.1203 -0.2447 -0.4943
   60CHL1   H20 6897   4.123   5.377   9.225  0.2074  0.7294 -0.2816
   60CHL1   C21 6898   4.243   5.186   9.200 -0.7452  0.9132  0.1440
   60CHL1  H21A 6899   4.348   5.150   9.213 -0.5520  0.3563 -2.4378
   60CHL1  H21B 6900   4.202   5.166   9.099 -0.2745 -0.0635  0.1239
   60CHL1  H21C 6901   4.183   5.127   9.273  0.8253 -2.2704 -0.9467
   60CHL1   C22 6902   4.311   5.421   9.129  0.1591 -0.3372  0.8183
   60CHL1  H22A 6903   4.279   5.385   9.029  0.6607 -0.0551  0.5504
   60CHL1  H22B 6904   4.290   5.529   9.145  1.0237 -0.4048  2.6014
   60CHL1   C23 6905   4.459   5.422   9.137 -0.7016 -0.1863  0.2086
   60CHL1  H23A 6906   4.495   5.492   9.216 -0.3126 -0.2893  0.1228
   60CHL1  H23B 6907   4.495   5.323   9.172  0.2199  0.0658  0.0009
   60CHL1   C24 6908   4.526   5.455   9.005  0.0913 -0.0286 -0.2931
   60CHL1  H24A 6909   4.476   5.394   8.928 -1.8314  2.0877 -0.8249
   60CHL1  H24B 6910   4.515   5.565   8.999  2.8403  0.5815  2.7251
   60CHL1   C25 6911   4.679   5.437   9.004  0.7270 -0.4459 -0.5830
   60CHL1   H25 6912   4.717   5.510   9.079  0.1623 -1.5535  0.8211
   60CHL1   C26 6913   4.732   5.304   9.052 -0.5137  0.2383  0.3015
   60CHL1  H26A 6914   4.703   5.292   9.159 -1.3382  1.8358  0.2834
   60CHL1  H26B 6915   4.685   5.224   8.991 -0.1460  0.1311  0.1520
   60CHL1  H26C 6916   4.841   5.290   9.035 -0.5109 -1.7017  1.4784
   60CHL1   C27 6917   4.737   5.472   8.864 -0.2863  0.4750 -0.7281
   60CHL1  H27A 6918   4.845   5.496   8.863 -0.1686  0.6438  3.0205
   60CHL1  H27B 6919   4.722   5.384   8.798  1.2174 -1.0268  0.8421
   60CHL1  H27C 6920   4.684   5.559   8.820 -0.7002  0.2106 -0.7604
   61CHL1    C3 6921   2.448   0.171  10.010 -0.5060  0.3542  0.0997
   61CHL1    H3 6922   2.346   0.167   9.965 -1.0086  1.6839  1.0742
   61CHL1    O3 6923   2.446   0.165  10.149 -0.2370  0.3352 -0.0327
   61CHL1   H3' 6924   2.540   0.171  10.166  0.2445 -1.1221 -1.8081
   61CHL1    C4 6925   2.531   0.055   9.946 -0.3287 -0.2600  0.1907
   61CHL1   H4A 6926   2.637   0.061   9.979 -0.4060  0.7047  0.2729
   61CHL1   H4B 6927   2.480  -0.037   9.984  1.1559 -0.4494  1.9013
   61CHL1    C5 6928   2.538   0.067   9.795 -0.1250 -0.2376 -0.5490
   61CHL1    C6 6929   2.491  -0.030   9.715  0.1991 -0.2726 -0.4206
   61CHL1    H6 6930   2.451  -0.119   9.765 -0.6157 -0.5159 -1.4803
   61CHL1    C7 6931   2.478  -0.018   9.571  0.4259  0.0127 -0.2875
   61CHL1   H7A 6932   2.495  -0.117   9.522  2.3628  0.0596  0.2095
   61CHL1   H7B 6933   2.373   0.017   9.557 -0.4054 -0.7574  3.1821
   61CHL1    C8 6934   2.576   0.080   9.512  0.0273  0.6213  0.2598
   61CHL1    H8 6935   2.675   0.031   9.522 -0.5682 -0.8540 -0.7712
   61CHL1   C14 6936   2.547   0.111   9.370 -0.6739  0.4344 -0.4542
   61CHL1   H14 6937   2.444   0.153   9.366  0.1118  2.8148  1.9165
   61CHL1   C15 6938   2.533   0.004   9.263  0.0080  0.7801 -0.4140
   61CHL1  H15A 6939   2.616  -0.070   9.269 -1.1584 -0.5343  0.2110
   61CHL1  H15B 6940   2.443  -0.055   9.289  0.4369  0.3091  0.0268
   61CHL1   C16 6941   2.539   0.065   9.128  0.7353 -0.2019  0.1606
   61CHL1  H16A 6942   2.615   0.019   9.061 -0.8035 -0.2186 -1.6775
   61CHL1  H16B 6943   2.438   0.059   9.081 -0.2815  1.6320  1.9478
   61CHL1   C17 6944   2.577   0.212   9.160  0.7840 -0.5469 -0.3287
   61CHL1   H17 6945   2.480   0.265   9.172  1.9890  1.7649 -0.1587
   61CHL1   C13 6946   2.643   0.219   9.301 -0.6906 -0.4636  0.8039
   61CHL1   C18 6947   2.789   0.169   9.300 -0.5678  0.0218 -0.0073
   61CHL1  H18A 6948   2.855   0.229   9.234 -0.8074 -0.6837 -0.9126
   61CHL1  H18B 6949   2.844   0.162   9.396 -0.4185  0.5662 -0.0524
   61CHL1  H18C 6950   2.785   0.071   9.247 -1.1178  0.8627 -1.5949
   61CHL1   C12 6951   2.630   0.354   9.378 -0.1518  0.9081  0.0143
   61CHL1  H12A 6952   2.706   0.423   9.336  1.3292 -1.1533 -0.9133
   61CHL1  H12B 6953   2.529   0.396   9.357 -1.2494 -1.1058  0.9216
   61CHL1   C11 6954   2.654   0.324   9.529 -0.3623 -0.5198 -0.4305
   61CHL1  H11A 6955   2.763   0.301   9.527 -0.1284  0.5652 -1.7329
   61CHL1  H11B 6956   2.651   0.416   9.592 -1.3113  0.5345 -1.9339
   61CHL1    C9 6957   2.566   0.211   9.592  0.5679 -0.1442  0.1891
   61CHL1    H9 6958   2.460   0.239   9.573  0.6437 -0.3173 -0.5185
   61CHL1   C10 6959   2.590   0.193   9.742 -0.4347 -0.0271 -0.2616
   61CHL1   C19 6960   2.748   0.188   9.764  0.0179  0.1084  0.9359
   61CHL1  H19A 6961   2.804   0.117   9.700  0.5840  0.9804  0.4429
   61CHL1  H19B 6962   2.784   0.289   9.734 -0.1985 -0.0442  0.1522
   61CHL1  H19C 6963   2.774   0.171   9.871 -0.0472 -0.8719  0.8036
   61CHL1    C1 6964   2.519   0.313   9.815 -0.4192 -0.3528 -0.6364
   61CHL1   H1A 6965   2.565   0.409   9.783 -0.8087 -0.0974 -0.4401
   61CHL1   H1B 6966   2.414   0.323   9.779 -0.8858  0.7009  0.8762
   61CHL1    C2 6967   2.512   0.305   9.968  0.1307  0.3794 -0.1361
   61CHL1   H2A 6968   2.437   0.378  10.006 -2.2177 -1.1831 -1.4990
   61CHL1   H2B 6969   2.610   0.310  10.019 -0.7513 -1.2535  1.8570
   61CHL1   C20 6970   2.646   0.295   9.051  0.2034  0.3744  0.4315
   61CHL1   H20 6971   2.682   0.389   9.098 -3.1362  1.7937  0.4003
   61CHL1   C21 6972   2.538   0.342   8.950  0.3612  0.1260  0.6751
   61CHL1  H21A 6973   2.477   0.427   8.987 -3.1169 -1.4319 -1.0839
   61CHL1  H21B 6974   2.463   0.261   8.941  1.1562 -0.5997  0.3408
   61CHL1  H21C 6975   2.587   0.367   8.853  0.5442 -0.0103  0.7313
   61CHL1   C22 6976   2.763   0.212   8.972 -0.2311  0.1791 -0.3998
   61CHL1  H22A 6977   2.823   0.150   9.042  2.3095  2.9357  0.0366
   61CHL1  H22B 6978   2.712   0.145   8.898  1.0050 -1.1639 -0.0920
   61CHL1   C23 6979   2.863   0.299   8.888 -0.3038  0.2284 -0.2397
   61CHL1  H23A 6980   2.810   0.354   8.808  2.0130  1.2658 -1.1436
   61CHL1  H23B 6981   2.908   0.378   8.952  0.0882 -0.5631  0.4779
   61CHL1   C24 6982   2.955   0.202   8.814  0.6631  0.3220  0.4899
   61CHL1  H24A 6983   3.017   0.146   8.887 -0.9928 -0.3025  1.4890
   61CHL1  H24B 6984   2.894   0.139   8.746  0.8940  3.8542 -3.3460
   61CHL1   C25 6985   3.050   0.281   8.716 -0.1751 -0.4040  0.1920
   61CHL1   H25 6986   2.983   0.338   8.648 -0.1447 -0.3586  0.2002
   61CHL1   C26 6987   3.147   0.379   8.793 -0.0328 -0.2051 -0.9829
   61CHL1  H26A 6988   3.210   0.437   8.722 -0.4333  0.4561 -0.8108
   61CHL1  H26B 6989   3.098   0.449   8.864 -0.1483  1.3866 -2.5538
   61CHL1  H26C 6990   3.217   0.316   8.851 -0.8724 -1.0313 -0.8492
   61CHL1   C27 6991   3.135   0.186   8.637 -0.0267 -0.7999 -0.3227
   61CHL1  H27A 6992   3.194   0.119   8.702  0.4658 -0.7481 -0.7105
   61CHL1  H27B 6993   3.065   0.123   8.578 -1.3691 -0.5771  0.9792
   61CHL1  H27C 6994   3.202   0.233   8.562  0.2326 -0.1711  0.2857
   62CHL1    C3 6995   3.528   1.869  10.185  0.4125  0.2787  0.3271
   62CHL1    H3 6996   3.632   1.890  10.153  0.3872  2.8068  1.6071
   62CHL1    O3 6997   3.522   1.863  10.329 -0.5031 -0.4078 -0.1249
   62CHL1   H3' 6998   3.512   1.956  10.352 -2.8683 -0.8738  1.0520
   62CHL1    C4 6999   3.443   1.981  10.129  0.0927 -0.7137  0.3660
   62CHL1   H4A 7000   3.338   1.969  10.161 -0.3068 -1.8247 -1.2002
   62CHL1   H4B 7001   3.481   2.069  10.184 -0.0584 -0.1817 -0.3615
   62CHL1    C5 7002   3.443   1.997   9.980  0.3980  0.0359  0.3722
   62CHL1    C6 7003   3.498   2.106   9.925  0.3826  0.9984  0.2031
   62CHL1    H6 7004   3.539   2.179   9.996  0.2790 -0.3857  1.7534
   62CHL1    C7 7005   3.504   2.131   9.782  0.2730 -0.5283 -0.0168
   62CHL1   H7A 7006   3.456   2.228   9.757 -0.6701 -1.5362 -2.4282
   62CHL1   H7B 7007   3.610   2.154   9.758  0.0942  0.3187 -0.0113
   62CHL1    C8 7008   3.435   2.021   9.691  0.0192 -0.3760  0.6779
   62CHL1    H8 7009   3.326   2.041   9.696  0.1008  0.6226 -0.7752
   62CHL1   C14 7010   3.479   2.031   9.542 -0.5873  0.2192 -0.2584
   62CHL1   H14 7011   3.587   2.003   9.547 -0.6604 -0.0105  0.0528
   62CHL1   C15 7012   3.484   2.174   9.478  0.0742  0.5105 -0.2145
   62CHL1  H15A 7013   3.388   2.223   9.508  0.7175  0.5572  1.9769
   62CHL1  H15B 7014   3.567   2.225   9.532 -1.5771 -0.2596  3.3963
   62CHL1   C16 7015   3.507   2.141   9.333  0.2430  0.1438  0.1764
   62CHL1  H16A 7016   3.438   2.199   9.268  2.0930 -3.2519 -5.5854
   62CHL1  H16B 7017   3.610   2.167   9.299  0.8236  0.6722  2.1677
   62CHL1   C17 7018   3.475   1.987   9.308 -0.3402  1.3597 -0.0002
   62CHL1   H17 7019   3.574   1.939   9.293 -0.1689  1.7645 -0.1899
   62CHL1   C13 7020   3.407   1.939   9.443 -0.4297  0.4225 -0.2287
   62CHL1   C18 7021   3.260   1.975   9.434  0.6658 -0.0127 -0.3067
   62CHL1  H18A 7022   3.247   2.075   9.388 -1.9594  0.1755  0.6325
   62CHL1  H18B 7023   3.187   1.913   9.378 -1.5646  0.7160  1.6018
   62CHL1  H18C 7024   3.210   1.984   9.533  1.8902  2.2514  0.1834
   62CHL1   C12 7025   3.432   1.797   9.501 -0.1317 -0.1498 -0.0919
   62CHL1  H12A 7026   3.378   1.725   9.436 -0.8130  0.4614 -0.2149
   62CHL1  H12B 7027   3.539   1.775   9.484 -0.4444 -0.4901 -1.7727
   62CHL1   C11 7028   3.385   1.776   9.649  0.2444 -0.4178 -0.5513
   62CHL1  H11A 7029   3.274   1.789   9.645  0.1018 -1.8264 -1.9102
   62CHL1  H11B 7030   3.419   1.676   9.683 -1.6629 -0.7897  0.4204
   62CHL1    C9 7031   3.453   1.884   9.749  0.1349  0.2853 -0.4917
   62CHL1    H9 7032   3.563   1.868   9.745  0.0216 -0.3264 -2.0499
   62CHL1   C10 7033   3.414   1.868   9.907 -0.0997  0.4449  0.0999
   62CHL1   C19 7034   3.260   1.848   9.915  0.3341  0.2824  0.2311
   62CHL1  H19A 7035   3.194   1.930   9.881  1.0458  0.0514 -1.8588
   62CHL1  H19B 7036   3.224   1.761   9.855 -1.3617  1.1494 -0.0599
   62CHL1  H19C 7037   3.234   1.829  10.021 -2.6199 -0.9982 -0.6156
   62CHL1    C1 7038   3.489   1.746   9.970 -0.2277 -0.1851  0.8237
   62CHL1   H1A 7039   3.464   1.648   9.924 -1.0508 -1.3787  3.5986
   62CHL1   H1B 7040   3.595   1.766   9.946 -0.4922  0.5163  0.1833
   62CHL1    C2 7041   3.489   1.731  10.121 -1.2430  0.0914  0.3072
   62CHL1   H2A 7042   3.557   1.656  10.165 -1.6265 -0.4362  0.0167
   62CHL1   H2B 7043   3.383   1.718  10.153 -1.6488 -0.4151 -1.1468
   62CHL1   C20 7044   3.391   1.968   9.176 -0.0362 -0.2829 -0.4172
   62CHL1   H20 7045   3.293   2.019   9.189  1.2561  2.5334 -1.1100
   62CHL1   C21 7046   3.389   1.817   9.149 -0.4764 -0.2991 -0.0347
   62CHL1  H21A 7047   3.332   1.799   9.055  0.8662 -0.5615 -0.8298
   62CHL1  H21B 7048   3.364   1.754   9.237  3.1447 -0.8649  0.7721
   62CHL1  H21C 7049   3.490   1.788   9.113 -0.3800 -2.7957  1.9530
   62CHL1   C22 7050   3.464   2.047   9.055  0.2323  0.4617  0.0570
   62CHL1  H22A 7051   3.448   2.155   9.074  0.0241  0.2566  1.1089
   62CHL1  H22B 7052   3.567   2.007   9.061 -0.5705 -1.8981 -0.5081
   62CHL1   C23 7053   3.405   2.008   8.917  0.5284  0.4886  0.0625
   62CHL1  H23A 7054   3.406   1.902   8.885 -1.8747  0.6332 -0.6672
   62CHL1  H23B 7055   3.300   2.040   8.930  0.9622  1.9457  0.2143
   62CHL1   C24 7056   3.468   2.093   8.799  0.0846 -1.0271 -0.3730
   62CHL1  H24A 7057   3.452   2.202   8.812  0.7934 -1.0029  0.3430
   62CHL1  H24B 7058   3.577   2.078   8.813  0.0456  0.1750  1.6666
   62CHL1   C25 7059   3.411   2.037   8.663  0.2367  0.2978  0.0397
   62CHL1   H25 7060   3.401   1.927   8.675 -2.2123  0.1787 -2.1281
   62CHL1   C26 7061   3.277   2.094   8.625 -0.0129 -0.4549  0.7528
   62CHL1  H26A 7062   3.209   2.104   8.713  0.4892  1.4518  0.9730
   62CHL1  H26B 7063   3.289   2.193   8.575  1.3567 -1.5404 -1.1812
   62CHL1  H26C 7064   3.215   2.031   8.558 -0.9693 -1.3642  2.4407
   62CHL1   C27 7065   3.507   2.062   8.548  0.6825  0.2022  0.1227
   62CHL1  H27A 7066   3.465   2.017   8.456 -0.9864  0.4533  0.7320
   62CHL1  H27B 7067   3.531   2.169   8.529  0.2668  0.1994 -0.4417
   62CHL1  H27C 7068   3.595   2.002   8.580 -0.5551 -1.1517  1.1336
   63CHL1    C3 7069   4.689   5.515  10.231  0.0193  0.4152 -0.0273
   63CHL1    H3 7070   4.746   5.610  10.245  0.8316 -0.1118  0.2929
   63CHL1    O3 7071   4.641   5.474  10.362  0.2279  0.5890  0.2381
   63CHL1   H3' 7072   4.630   5.553  10.414 -0.5762  1.3715 -1.0599
   63CHL1    C4 7073   4.572   5.520  10.131  0.7364 -0.2591 -0.5187
   63CHL1   H4A 7074   4.522   5.421  10.132  0.6443 -0.2644 -2.5599
   63CHL1   H4B 7075   4.497   5.591  10.173  2.4908  0.3020  1.9090
   63CHL1    C5 7076   4.615   5.539   9.984 -0.2425  0.2184  0.1821
   63CHL1    C6 7077   4.565   5.634   9.903  0.0387  0.1876 -0.3792
   63CHL1    H6 7078   4.495   5.705   9.950 -0.7773  0.0427 -1.3657
   63CHL1    C7 7079   4.607   5.662   9.763 -0.5343  0.4749  0.0330
   63CHL1   H7A 7080   4.513   5.664   9.705 -0.5382  0.2449  0.0318
   63CHL1   H7B 7081   4.663   5.758   9.754 -1.3526  1.1377  1.6461
   63CHL1    C8 7082   4.704   5.553   9.709 -0.4316  0.1918 -0.4422
   63CHL1    H8 7083   4.640   5.470   9.674 -0.8150  1.8700 -4.2249
   63CHL1   C14 7084   4.777   5.605   9.587  0.7186 -0.3940 -0.4537
   63CHL1   H14 7085   4.848   5.684   9.619 -0.6886 -0.5343  3.5394
   63CHL1   C15 7086   4.688   5.661   9.470  0.2976 -1.2726  0.9424
   63CHL1  H15A 7087   4.608   5.586   9.457 -1.9526  1.3762 -2.4117
   63CHL1  H15B 7088   4.647   5.764   9.483  0.9021 -0.7458 -0.9477
   63CHL1   C16 7089   4.778   5.648   9.347 -0.2259 -0.1422 -0.0882
   63CHL1  H16A 7090   4.729   5.567   9.288 -1.7900  1.3009 -0.8670
   63CHL1  H16B 7091   4.782   5.741   9.287 -0.3958  1.4656  2.2695
   63CHL1   C17 7092   4.915   5.603   9.399 -0.7323  0.6996 -0.0603
   63CHL1   H17 7093   4.966   5.683   9.456  0.4320 -0.6140  0.7934
   63CHL1   C13 7094   4.865   5.508   9.516  0.5098  0.2069 -0.0249
   63CHL1   C18 7095   4.797   5.379   9.459  0.7649  0.5021 -0.8393
   63CHL1  H18A 7096   4.856   5.349   9.370 -0.0199 -0.4384 -1.0649
   63CHL1  H18B 7097   4.797   5.297   9.534  0.9077  1.4941  0.2825
   63CHL1  H18C 7098   4.689   5.385   9.431  0.6703 -3.7416 -2.0525
   63CHL1   C12 7099   4.974   5.471   9.617 -0.0290 -0.1900 -0.3128
   63CHL1  H12A 7100   5.033   5.390   9.570  0.7199  1.8101 -3.1007
   63CHL1  H12B 7101   5.039   5.560   9.627 -2.3397  2.0119 -3.0648
   63CHL1   C11 7102   4.916   5.422   9.753  0.4142 -0.1302 -0.6222
   63CHL1  H11A 7103   4.881   5.318   9.735  3.9718 -1.4691 -0.5950
   63CHL1  H11B 7104   4.989   5.408   9.835  0.3489  1.8594 -0.1842
   63CHL1    C9 7105   4.804   5.510   9.815  0.2738 -0.3792  0.7094
   63CHL1    H9 7106   4.856   5.603   9.847  1.3528 -0.2134 -1.3975
   63CHL1   C10 7107   4.736   5.445   9.942  0.9649 -0.2027 -0.7453
   63CHL1   C19 7108   4.676   5.309   9.904  0.3081 -0.6513  0.1860
   63CHL1  H19A 7109   4.600   5.318   9.823  0.6538  1.2863  0.0225
   63CHL1  H19B 7110   4.754   5.235   9.877  1.1056 -0.0715  0.8488
   63CHL1  H19C 7111   4.623   5.271   9.994  4.3354 -0.0414  3.0550
   63CHL1    C1 7112   4.846   5.425  10.055  0.7134 -0.6321 -0.0079
   63CHL1   H1A 7113   4.910   5.338  10.033 -0.5139 -1.3898 -0.6893
   63CHL1   H1B 7114   4.912   5.514  10.062  0.8658 -0.8567  2.0080
   63CHL1    C2 7115   4.787   5.401  10.193 -0.4671 -0.1781 -0.1583
   63CHL1   H2A 7116   4.867   5.400  10.270 -1.1103  2.3243  0.6361
   63CHL1   H2B 7117   4.727   5.308  10.199  0.6486 -0.8960  0.2061
   63CHL1   C20 7118   5.014   5.555   9.292  1.1351  0.4144  0.2534
   63CHL1   H20 7119   4.988   5.453   9.256 -1.8730  1.1153  0.1981
   63CHL1   C21 7120   5.158   5.544   9.350 -0.2100 -0.7046 -0.1541
   63CHL1  H21A 7121   5.156   5.478   9.440 -2.6555 -0.1738  0.2505
   63CHL1  H21B 7122   5.194   5.647   9.373 -0.3491 -0.1427 -2.3009
   63CHL1  H21C 7123   5.225   5.500   9.273  0.2768  0.4000 -0.3928
   63CHL1   C22 7124   5.009   5.642   9.165 -0.1591 -0.0845 -0.4446
   63CHL1  H22A 7125   4.902   5.657   9.140 -1.0225 -1.8291  1.8114
   63CHL1  H22B 7126   5.067   5.736   9.173  0.4928 -0.3058 -2.1823
   63CHL1   C23 7127   5.075   5.581   9.035 -0.3059  0.0374 -0.4505
   63CHL1  H23A 7128   5.182   5.556   9.051 -0.5072 -0.9985 -0.6459
   63CHL1  H23B 7129   5.026   5.481   9.026  0.0885 -0.1837 -0.1587
   63CHL1   C24 7130   5.063   5.669   8.908  0.2485 -0.0796 -0.1686
   63CHL1  H24A 7131   4.966   5.723   8.903  0.4655  0.3234 -0.1236
   63CHL1  H24B 7132   5.127   5.759   8.919 -0.9304  1.0255 -1.8286
   63CHL1   C25 7133   5.111   5.594   8.784  0.6732 -0.0085  0.0381
   63CHL1   H25 7134   5.088   5.488   8.809 -1.8843  0.7484  1.2266
   63CHL1   C26 7135   5.026   5.625   8.661 -0.4759 -0.5993  1.1582
   63CHL1  H26A 7136   5.053   5.729   8.630  1.1814 -1.2301  0.3576
   63CHL1  H26B 7137   5.029   5.554   8.576 -0.0498  0.3456  0.3472
   63CHL1  H26C 7138   4.920   5.634   8.691 -1.0766  5.3353 -1.2287
   63CHL1   C27 7139   5.262   5.619   8.750 -0.1005 -0.2583  0.0472
   63CHL1  H27A 7140   5.310   5.599   8.849 -3.4348  2.5785  2.4870
   63CHL1  H27B 7141   5.292   5.542   8.675  0.1779 -2.1499  1.9850
   63CHL1  H27C 7142   5.264   5.726   8.720 -0.3388  0.2600  1.7572
   64CHL1    C3 7143   2.724   4.423   9.915 -1.3161 -0.1609 -0.0431
   64CHL1    H3 7144   2.765   4.343   9.849 -1.8079 -0.8279  0.4441
   64CHL1    O3 7145   2.705   4.363  10.037 -0.8448 -0.0143 -0.1297
   64CHL1   H3' 7146   2.655   4.429  10.085  0.3612  0.4742  0.4992
   64CHL1    C4 7147   2.820   4.538   9.931 -0.0016 -0.5979  0.4159
   64CHL1   H4A 7148   2.774   4.623   9.986 -1.9150 -0.1508 -1.7400
   64CHL1   H4B 7149   2.907   4.493   9.983  1.0968 -0.0741 -0.9466
   64CHL1    C5 7150   2.845   4.586   9.790 -0.8223 -0.2975 -0.8840
   64CHL1    C6 7151   2.969   4.573   9.740  1.0339 -0.2993  0.2300
   64CHL1    H6 7152   3.042   4.528   9.808 -0.5482 -4.6986 -0.6490
   64CHL1    C7 7153   3.012   4.613   9.602 -0.1842 -0.2287  0.1442
   64CHL1   H7A 7154   3.099   4.682   9.615  0.0505 -0.3939 -0.5471
   64CHL1   H7B 7155   3.040   4.518   9.553  2.1478  0.0189  0.8641
   64CHL1    C8 7156   2.891   4.683   9.526 -0.7901  0.6032  1.3464
   64CHL1    H8 7157   2.898   4.789   9.558  1.0393  1.0424 -0.3286
   64CHL1   C14 7158   2.927   4.694   9.380  0.6324  0.5220 -0.7623
   64CHL1   H14 7159   2.920   4.590   9.343 -1.0548 -0.8716  2.9508
   64CHL1   C15 7160   3.064   4.738   9.341 -0.4575 -0.4319  0.3473
   64CHL1  H15A 7161   3.088   4.837   9.386 -1.7935 -0.1137  0.4184
   64CHL1  H15B 7162   3.143   4.667   9.373  1.1705  1.2741  0.3004
   64CHL1   C16 7163   3.045   4.756   9.186 -0.1203 -0.2452 -0.1496
   64CHL1  H16A 7164   3.094   4.851   9.153 -2.0132  0.8284 -0.0127
   64CHL1  H16B 7165   3.085   4.662   9.143  3.0207  0.2890  1.2700
   64CHL1   C17 7166   2.896   4.755   9.159 -0.6458 -0.0173  0.1124
   64CHL1   H17 7167   2.870   4.652   9.128 -1.2618  0.0035  0.5253
   64CHL1   C13 7168   2.829   4.780   9.294 -0.7343  0.0161 -0.2521
   64CHL1   C18 7169   2.840   4.930   9.334 -0.3775 -0.0981  0.0144
   64CHL1  H18A 7170   2.828   4.937   9.444 -1.4155  0.1387 -0.1061
   64CHL1  H18B 7171   2.938   4.974   9.304 -1.2317  1.8867  0.0160
   64CHL1  H18C 7172   2.763   4.985   9.276 -1.8488  0.2890  2.2192
   64CHL1   C12 7173   2.686   4.722   9.319 -0.2201  0.4405  0.0060
   64CHL1  H12A 7174   2.608   4.784   9.270  0.3256  0.1899 -1.2297
   64CHL1  H12B 7175   2.681   4.620   9.274 -1.0872  0.7755 -0.6902
   64CHL1   C11 7176   2.649   4.708   9.465 -0.0500  0.3697 -0.6077
   64CHL1  H11A 7177   2.633   4.812   9.501  1.6472  1.0397 -1.6860
   64CHL1  H11B 7178   2.548   4.662   9.475  0.1032  0.2786  0.8299
   64CHL1    C9 7179   2.751   4.635   9.557  0.4912 -0.3307 -0.2195
   64CHL1    H9 7180   2.753   4.531   9.517 -0.7013  0.6338 -3.0178
   64CHL1   C10 7181   2.712   4.625   9.712 -1.5450 -0.2998  0.6592
   64CHL1   C19 7182   2.655   4.758   9.760 -0.0487  0.0267  0.0429
   64CHL1  H19A 7183   2.552   4.786   9.732 -1.2295  0.4853  4.1924
   64CHL1  H19B 7184   2.661   4.759   9.871 -0.3076  1.1937  0.0528
   64CHL1  H19C 7185   2.721   4.843   9.730 -0.4469  1.1607  2.1968
   64CHL1    C1 7186   2.601   4.522   9.720 -0.1884  0.1809 -0.2713
   64CHL1   H1A 7187   2.507   4.566   9.682  0.1368  1.1465  0.0230
   64CHL1   H1B 7188   2.622   4.432   9.658  0.4682 -1.1365  1.7247
   64CHL1    C2 7189   2.584   4.473   9.863 -0.4364 -0.0983 -0.4928
   64CHL1   H2A 7190   2.513   4.387   9.860  0.5140 -0.8612 -2.1154
   64CHL1   H2B 7191   2.536   4.555   9.921 -3.3237 -2.0218  0.0616
   64CHL1   C20 7192   2.860   4.825   9.023  0.2190  0.1227 -0.1961
   64CHL1   H20 7193   2.888   4.933   9.024 -0.0494  0.1890  0.1594
   64CHL1   C21 7194   2.709   4.799   9.006  0.3420  0.0703 -0.3486
   64CHL1  H21A 7195   2.656   4.855   9.087  1.9433 -0.1061  0.8483
   64CHL1  H21B 7196   2.684   4.693   9.024 -2.8062  1.1380  2.6430
   64CHL1  H21C 7197   2.688   4.834   8.902 -4.0524 -0.1560  0.2556
   64CHL1   C22 7198   2.935   4.762   8.899 -0.2597 -0.0192  0.1006
   64CHL1  H22A 7199   3.045   4.779   8.905  0.2380 -2.0664 -1.8948
   64CHL1  H22B 7200   2.903   4.656   8.896 -1.7957  0.2343  3.3306
   64CHL1   C23 7201   2.897   4.820   8.760  0.1728 -0.5486 -0.5541
   64CHL1  H23A 7202   2.795   4.789   8.728  0.1590  0.2595 -1.3031
   64CHL1  H23B 7203   2.902   4.931   8.755  0.5534 -0.6244 -2.2353
   64CHL1   C24 7204   3.007   4.781   8.656  0.0936 -0.1691 -0.0720
   64CHL1  H24A 7205   2.991   4.838   8.562 -0.1531  1.8275  1.1331
   64CHL1  H24B 7206   3.098   4.829   8.696  1.2781 -1.4630 -1.0953
   64CHL1   C25 7207   3.038   4.629   8.637 -0.2153 -0.1538  0.8252
   64CHL1   H25 7208   3.051   4.571   8.731  0.2974 -0.3056  0.6640
   64CHL1   C26 7209   2.917   4.557   8.566 -0.5631 -0.3540  0.5362
   64CHL1  H26A 7210   2.942   4.452   8.541  1.7843  0.3403 -0.3048
   64CHL1  H26B 7211   2.836   4.560   8.643 -0.0212  0.6046  1.0786
   64CHL1  H26C 7212   2.879   4.606   8.474 -1.5578  1.0001  1.6180
   64CHL1   C27 7213   3.164   4.617   8.550 -0.7700  0.5267  0.0283
   64CHL1  H27A 7214   3.258   4.649   8.601 -0.1943 -1.9751  0.7010
   64CHL1  H27B 7215   3.190   4.510   8.535  1.1670  1.0393 -0.6104
   64CHL1  H27C 7216   3.151   4.662   8.449 -0.1988  0.7414  0.0462
   65CHL1    C3 7217   1.699   3.612  10.034  0.1553 -0.0540 -0.7091
   65CHL1    H3 7218   1.774   3.534  10.010  0.3243  0.1997 -1.0207
   65CHL1    O3 7219   1.662   3.615  10.170  0.3528 -0.0522 -0.0399
   65CHL1   H3' 7220   1.642   3.524  10.192  1.7814 -0.5033 -0.4614
   65CHL1    C4 7221   1.768   3.746  10.001 -0.3975 -0.2252 -0.6494
   65CHL1   H4A 7222   1.704   3.822  10.050  0.9060 -1.7362  3.9332
   65CHL1   H4B 7223   1.858   3.738  10.065 -1.6748  0.3931  1.2919
   65CHL1    C5 7224   1.787   3.764   9.848 -0.3911  0.4023 -0.3223
   65CHL1    C6 7225   1.902   3.802   9.792 -0.4935 -0.2486  0.0431
   65CHL1    H6 7226   1.989   3.824   9.856 -0.1456  0.1435 -0.5526
   65CHL1    C7 7227   1.928   3.826   9.646  0.3282 -0.1227 -0.0181
   65CHL1   H7A 7228   2.004   3.903   9.622 -1.8841  2.1012 -0.3102
   65CHL1   H7B 7229   1.969   3.734   9.599 -0.7238  0.0132 -1.2571
   65CHL1    C8 7230   1.792   3.849   9.569 -0.4960 -0.2847  0.6528
   65CHL1    H8 7231   1.765   3.956   9.583  0.2705  0.1185 -0.7439
   65CHL1   C14 7232   1.814   3.822   9.424  0.6572 -0.4795  0.0351
   65CHL1   H14 7233   1.849   3.717   9.424  0.5633 -0.5249  1.3057
   65CHL1   C15 7234   1.923   3.906   9.366  0.0891  0.4953  0.3223
   65CHL1  H15A 7235   1.914   4.015   9.388 -3.3878 -0.0044  2.2122
   65CHL1  H15B 7236   2.019   3.856   9.390 -1.5367 -1.8536  2.4079
   65CHL1   C16 7237   1.909   3.899   9.215 -0.0731  0.3993 -0.0486
   65CHL1  H16A 7238   1.871   3.998   9.181  0.2839  0.9447  1.1168
   65CHL1  H16B 7239   1.994   3.858   9.156  0.0865  0.3614  0.2093
   65CHL1   C17 7240   1.779   3.810   9.192 -0.0430  0.2127  0.0045
   65CHL1   H17 7241   1.831   3.712   9.194  0.5975  0.5028 -1.5058
   65CHL1   C13 7242   1.701   3.826   9.322 -0.4036 -0.2015 -0.0299
   65CHL1   C18 7243   1.630   3.967   9.328 -0.2058  0.9646  0.3441
   65CHL1  H18A 7244   1.596   3.996   9.429  0.1394 -2.2720  1.4865
   65CHL1  H18B 7245   1.693   4.045   9.280  1.2403  0.5957  1.5549
   65CHL1  H18C 7246   1.536   3.952   9.271  1.1784  0.9221 -2.0736
   65CHL1   C12 7247   1.613   3.709   9.371 -0.6222 -0.2341 -0.7055
   65CHL1  H12A 7248   1.519   3.702   9.312 -1.7812 -0.4664  1.0865
   65CHL1  H12B 7249   1.667   3.612   9.360 -0.0125 -0.0376  0.4084
   65CHL1   C11 7250   1.572   3.721   9.512  0.5372  0.0288  0.2884
   65CHL1  H11A 7251   1.511   3.815   9.513  0.3987 -0.0569  0.0381
   65CHL1  H11B 7252   1.518   3.628   9.539 -0.5289  0.4850 -0.1934
   65CHL1    C9 7253   1.691   3.738   9.615 -0.3025  0.7831 -0.6614
   65CHL1    H9 7254   1.744   3.644   9.592 -1.4727  0.2584 -1.2714
   65CHL1   C10 7255   1.660   3.741   9.771 -0.3558  0.7370  0.5754
   65CHL1   C19 7256   1.563   3.867   9.790 -0.7149  0.1980  0.6525
   65CHL1  H19A 7257   1.523   3.878   9.893 -0.5405  0.3702  0.7042
   65CHL1  H19B 7258   1.600   3.966   9.755 -0.7474  0.2578  0.7875
   65CHL1  H19C 7259   1.482   3.844   9.718 -1.1393  0.7267  0.9577
   65CHL1    C1 7260   1.594   3.606   9.813  0.0227 -0.6510  0.2367
   65CHL1   H1A 7261   1.506   3.595   9.745 -1.4573  5.8564  0.3941
   65CHL1   H1B 7262   1.666   3.527   9.783  1.9270  1.8606 -2.4850
   65CHL1    C2 7263   1.572   3.593   9.958 -0.5260 -0.1745 -0.1423
   65CHL1   H2A 7264   1.525   3.500   9.998 -2.3017  0.7956  0.0869
   65CHL1   H2B 7265   1.503   3.674   9.988  0.2611  2.0201 -3.6990
   65CHL1   C20 7266   1.709   3.826   9.054 -0.2819  0.1742  0.2832
   65CHL1   H20 7267   1.661   3.926   9.044 -0.5627 -0.0079 -0.2366
   65CHL1   C21 7268   1.599   3.717   9.046 -0.3772 -0.3528  0.5537
   65CHL1  H21A 7269   1.636   3.614   9.063 -0.3008 -0.5549 -0.7422
   65CHL1  H21B 7270   1.563   3.722   8.940 -0.6403  0.0465  0.6598
   65CHL1  H21C 7271   1.509   3.736   9.108 -0.3320 -0.0584  0.5311
   65CHL1   C22 7272   1.806   3.825   8.927 -0.7793 -0.3507 -0.0975
   65CHL1  H22A 7273   1.881   3.744   8.932 -0.1850  0.2271  0.7249
   65CHL1  H22B 7274   1.752   3.803   8.833  0.1338  1.3990 -1.0957
   65CHL1   C23 7275   1.874   3.960   8.893 -0.2718  0.2166  0.5863
   65CHL1  H23A 7276   1.796   4.033   8.865 -0.2620 -0.1170 -0.3215
   65CHL1  H23B 7277   1.927   3.999   8.983  0.0318 -0.6318  0.7895
   65CHL1   C24 7278   1.974   3.947   8.775  0.4213 -0.7393 -0.4136
   65CHL1  H24A 7279   2.048   3.867   8.796  2.1033  1.1395  1.0845
   65CHL1  H24B 7280   1.917   3.898   8.692  0.0548  0.0375 -0.6327
   65CHL1   C25 7281   2.047   4.071   8.726 -0.4042 -0.2821  0.5281
   65CHL1   H25 7282   1.960   4.133   8.694 -1.5332 -2.6738 -1.3984
   65CHL1   C26 7283   2.137   4.141   8.836  0.8092 -0.4309  0.0237
   65CHL1  H26A 7284   2.196   4.225   8.793  0.7897 -0.0050  0.8137
   65CHL1  H26B 7285   2.088   4.175   8.930  0.9383  0.3775 -0.1958
   65CHL1  H26C 7286   2.214   4.067   8.869  0.2957 -1.9699 -2.0548
   65CHL1   C27 7287   2.117   4.043   8.593 -0.3766  0.3487 -0.1438
   65CHL1  H27A 7288   2.174   4.131   8.556 -1.0155 -0.3307 -2.9187
   65CHL1  H27B 7289   2.182   3.953   8.595  2.0174  1.9060 -2.4089
   65CHL1  H27C 7290   2.044   4.008   8.518 -0.3325 -0.5682  0.2304
   66CHL1    C3 7291   2.555   1.650  10.280  0.2834  0.5379 -0.3184
   66CHL1    H3 7292   2.619   1.559  10.283  0.3004  0.5633  0.2581
   66CHL1    O3 7293   2.507   1.686  10.414 -0.1093  0.7802  0.1580
   66CHL1   H3' 7294   2.468   1.772  10.403  0.9335  1.2193 -0.2620
   66CHL1    C4 7295   2.641   1.767  10.226  0.2625 -0.1659  0.1553
   66CHL1   H4A 7296   2.586   1.863  10.240  2.4645  0.8455  2.5956
   66CHL1   H4B 7297   2.721   1.783  10.300  1.6314 -1.0201 -1.0821
   66CHL1    C5 7298   2.691   1.743  10.086  0.0632 -0.4193 -0.3595
   66CHL1    C6 7299   2.820   1.747  10.058  0.1427 -0.1397  1.0614
   66CHL1    H6 7300   2.891   1.774  10.137  1.1456 -2.1516  0.8966
   66CHL1    C7 7301   2.880   1.730   9.919  0.2345  1.1318  0.2186
   66CHL1   H7A 7302   2.963   1.800   9.894  1.1353 -0.2732 -0.9000
   66CHL1   H7B 7303   2.906   1.622   9.915 -1.1169  0.8113 -0.2257
   66CHL1    C8 7304   2.773   1.746   9.804 -0.4820 -0.1402  0.6779
   66CHL1    H8 7305   2.756   1.856   9.807 -0.0378  0.0688 -1.9226
   66CHL1   C14 7306   2.819   1.691   9.670 -0.8481  0.1720  0.6757
   66CHL1   H14 7307   2.816   1.580   9.675  1.0985 -0.0169 -1.1039
   66CHL1   C15 7308   2.958   1.726   9.615 -0.0022  0.0221 -0.5724
   66CHL1  H15A 7309   2.992   1.827   9.646  0.2531 -0.2252 -0.0280
   66CHL1  H15B 7310   3.037   1.656   9.651  1.1264 -0.6907 -4.0520
   66CHL1   C16 7311   2.950   1.711   9.464 -0.6312  0.4564 -0.0747
   66CHL1  H16A 7312   2.983   1.808   9.421  0.0692  0.0815 -0.3989
   66CHL1  H16B 7313   3.015   1.628   9.429 -2.8934 -2.1784  1.5470
   66CHL1   C17 7314   2.800   1.678   9.429 -0.5430  0.1073  0.1585
   66CHL1   H17 7315   2.809   1.567   9.423 -0.6862 -0.1455  3.1649
   66CHL1   C13 7316   2.721   1.722   9.553  0.0817  0.1784 -0.6329
   66CHL1   C18 7317   2.706   1.872   9.553  0.2893  0.4440  1.0293
   66CHL1  H18A 7318   2.659   1.911   9.646 -1.9663 -1.3300  0.7062
   66CHL1  H18B 7319   2.802   1.927   9.539  0.2966  0.1554 -0.0969
   66CHL1  H18C 7320   2.643   1.909   9.469 -2.1709 -1.3171  1.9899
   66CHL1   C12 7321   2.591   1.644   9.586  0.3410  0.2719 -0.5945
   66CHL1  H12A 7322   2.514   1.665   9.508  0.0142 -0.3060 -0.4384
   66CHL1  H12B 7323   2.618   1.536   9.588 -0.2897  0.0992 -0.8959
   66CHL1   C11 7324   2.530   1.677   9.729 -0.4865  0.2783 -0.0706
   66CHL1  H11A 7325   2.488   1.777   9.706 -1.6630 -0.0356  0.6108
   66CHL1  H11B 7326   2.453   1.601   9.756  3.5015 -3.5595  1.8024
   66CHL1    C9 7327   2.641   1.675   9.844  0.2231 -0.4093  0.1636
   66CHL1    H9 7328   2.662   1.566   9.844  1.2076 -0.2591 -1.3905
   66CHL1   C10 7329   2.583   1.720   9.985  0.2502  0.1367 -0.0051
   66CHL1   C19 7330   2.477   1.837   9.978 -1.1952  0.4171 -0.4061
   66CHL1  H19A 7331   2.517   1.925   9.925  1.3096 -0.1716  0.3731
   66CHL1  H19B 7332   2.386   1.808   9.921 -2.4886  3.4559 -0.0951
   66CHL1  H19C 7333   2.447   1.866  10.081  2.0808 -1.5343  1.2875
   66CHL1    C1 7334   2.494   1.607  10.038  0.0824  1.0749  0.1937
   66CHL1   H1A 7335   2.407   1.596   9.969  1.0131  1.6934 -1.1151
   66CHL1   H1B 7336   2.560   1.518  10.046 -1.4201  0.0766  2.3281
   66CHL1    C2 7337   2.435   1.621  10.178 -0.5929 -0.8191 -0.3506
   66CHL1   H2A 7338   2.378   1.532  10.213  2.2743 -1.7855  2.2787
   66CHL1   H2B 7339   2.373   1.713  10.186  1.8390  0.7404  2.6180
   66CHL1   C20 7340   2.750   1.736   9.290  0.2049 -0.0525  0.6417
   66CHL1   H20 7341   2.759   1.847   9.290 -0.5847  0.0246 -0.1989
   66CHL1   C21 7342   2.604   1.696   9.264  0.0171 -0.9375  0.6472
   66CHL1  H21A 7343   2.541   1.763   9.325  0.5645 -0.3620  0.5956
   66CHL1  H21B 7344   2.589   1.589   9.288  0.3699 -1.4965 -1.4586
   66CHL1  H21C 7345   2.588   1.709   9.155  0.7649 -3.4238  0.1848
   66CHL1   C22 7346   2.851   1.673   9.180 -0.3949  0.2740  0.6683
   66CHL1  H22A 7347   2.955   1.702   9.205 -0.4788 -0.7965  2.3873
   66CHL1  H22B 7348   2.854   1.562   9.175  1.8393  0.2535  1.4322
   66CHL1   C23 7349   2.815   1.723   9.040 -0.2281  0.4048 -0.6812
   66CHL1  H23A 7350   2.725   1.671   8.999 -0.6077  1.8282 -1.7218
   66CHL1  H23B 7351   2.796   1.831   9.057 -0.9606  0.1798 -0.0442
   66CHL1   C24 7352   2.933   1.705   8.948  0.2244 -1.1786  0.4719
   66CHL1  H24A 7353   3.024   1.745   8.996  0.1654  1.3188 -1.3109
   66CHL1  H24B 7354   2.959   1.599   8.928  0.0681 -0.6998 -2.6761
   66CHL1   C25 7355   2.922   1.790   8.811  0.1526 -0.1206  0.2880
   66CHL1   H25 7356   2.925   1.897   8.839  2.1187  0.0231 -0.3333
   66CHL1   C26 7357   3.054   1.773   8.724 -0.3283 -0.4920 -0.5406
   66CHL1  H26A 7358   3.145   1.775   8.789 -1.0878 -0.0300  0.5371
   66CHL1  H26B 7359   3.047   1.678   8.667  1.2600 -0.8437 -0.1992
   66CHL1  H26C 7360   3.081   1.851   8.650  0.8894 -1.1950 -0.8675
   66CHL1   C27 7361   2.790   1.762   8.733  0.0903 -0.1530 -0.0691
   66CHL1  H27A 7362   2.779   1.653   8.713  0.6055 -0.1577 -0.3526
   66CHL1  H27B 7363   2.699   1.800   8.784 -0.2552 -0.5038 -0.4136
   66CHL1  H27C 7364   2.798   1.817   8.636 -1.0573 -1.3510 -0.8713
   67CHL1    C3 7365   6.615   0.629  10.172 -0.3595 -0.2955  0.2438
   67CHL1    H3 7366   6.557   0.723  10.160  1.9436  1.1020 -0.7182
   67CHL1    O3 7367   6.637   0.600  10.304  0.0794  0.0586 -0.2438
   67CHL1   H3' 7368   6.698   0.669  10.332  1.1326 -1.0904  0.3737
   67CHL1    C4 7369   6.536   0.513  10.114 -0.0014 -0.1786 -0.5317
   67CHL1   H4A 7370   6.576   0.411  10.135 -0.9528 -0.3718  0.4383
   67CHL1   H4B 7371   6.436   0.519  10.162 -0.1779  1.4491 -1.0400
   67CHL1    C5 7372   6.533   0.522   9.964  0.5558 -0.4272 -0.3858
   67CHL1    C6 7373   6.424   0.514   9.894 -0.1101  0.4441  0.2751
   67CHL1    H6 7374   6.328   0.503   9.947 -0.2151  0.6481  0.1319
   67CHL1    C7 7375   6.413   0.499   9.748  0.5938 -0.0901  0.9690
   67CHL1   H7A 7376   6.341   0.416   9.732  0.7222 -0.3405  1.6533
   67CHL1   H7B 7377   6.368   0.593   9.710 -1.4353 -1.2366  0.4051
   67CHL1    C8 7378   6.547   0.463   9.683 -1.0349 -1.0316  0.0055
   67CHL1    H8 7379   6.594   0.363   9.697 -0.0830 -0.2264  3.2291
   67CHL1   C14 7380   6.533   0.487   9.536 -0.0193  1.0184  0.1642
   67CHL1   H14 7381   6.499   0.592   9.517 -0.4013  0.5947 -1.7478
   67CHL1   C15 7382   6.429   0.404   9.462 -0.5101 -0.6086  0.1400
   67CHL1  H15A 7383   6.433   0.294   9.472 -0.8662 -0.5838  0.6100
   67CHL1  H15B 7384   6.322   0.426   9.483 -0.2675 -1.6373  2.9315
   67CHL1   C16 7385   6.455   0.439   9.314 -1.0195 -0.0871 -0.6452
   67CHL1  H16A 7386   6.432   0.349   9.252  0.1494 -0.7245 -0.1812
   67CHL1  H16B 7387   6.395   0.526   9.281  0.3223  0.8012 -0.8530
   67CHL1   C17 7388   6.607   0.482   9.307 -0.2388  0.1820  0.2516
   67CHL1   H17 7389   6.606   0.588   9.273  0.5201  0.0247 -0.3122
   67CHL1   C13 7390   6.661   0.469   9.451  0.1502 -0.6028 -0.8171
   67CHL1   C18 7391   6.731   0.325   9.470  0.3571 -0.4887  0.5637
   67CHL1  H18A 7392   6.767   0.306   9.573  0.6786 -0.0264  0.5402
   67CHL1  H18B 7393   6.669   0.239   9.435  0.9379 -0.6133 -0.1740
   67CHL1  H18C 7394   6.823   0.326   9.409 -0.8854  0.7037 -1.4157
   67CHL1   C12 7395   6.751   0.579   9.506  0.4658  0.4895  0.2125
   67CHL1  H12A 7396   6.852   0.576   9.460  0.3033 -0.3352 -0.0962
   67CHL1  H12B 7397   6.707   0.677   9.476 -0.4570  0.1993  0.5751
   67CHL1   C11 7398   6.774   0.570   9.658 -0.8100  0.2358  0.4081
   67CHL1  H11A 7399   6.838   0.481   9.676  0.1927  0.6514 -0.9587
   67CHL1  H11B 7400   6.834   0.662   9.676  2.5405 -1.8752  0.8574
   67CHL1    C9 7401   6.647   0.562   9.743 -0.7905  0.9435 -0.3377
   67CHL1    H9 7402   6.605   0.665   9.737 -1.6522  0.6655  0.8304
   67CHL1   C10 7403   6.671   0.534   9.891  0.3927 -0.1478  0.1364
   67CHL1   C19 7404   6.758   0.411   9.917 -0.0120  0.0161  0.2079
   67CHL1  H19A 7405   6.773   0.398  10.026  1.6318  1.3286  0.1789
   67CHL1  H19B 7406   6.722   0.321   9.863  0.0251  1.8566 -3.2093
   67CHL1  H19C 7407   6.861   0.436   9.884  0.5995 -1.1023  1.2111
   67CHL1    C1 7408   6.746   0.655   9.964 -0.3140 -0.4777 -0.0541
   67CHL1   H1A 7409   6.849   0.668   9.924  0.3453 -1.8260  1.0549
   67CHL1   H1B 7410   6.687   0.744   9.935 -1.5550 -1.1636  0.2921
   67CHL1    C2 7411   6.759   0.651  10.115 -0.0031  1.0791  0.0228
   67CHL1   H2A 7412   6.790   0.756  10.137 -0.8185  1.2045  0.6460
   67CHL1   H2B 7413   6.832   0.574  10.147 -0.0874  1.6919  1.8343
   67CHL1   C20 7414   6.685   0.400   9.195 -0.1376  0.0625  0.2266
   67CHL1   H20 7415   6.696   0.297   9.233 -3.5770 -1.2877 -1.9187
   67CHL1   C21 7416   6.826   0.457   9.167  0.4171  0.2474  0.1950
   67CHL1  H21A 7417   6.894   0.459   9.254 -0.4474 -1.0895  0.9399
   67CHL1  H21B 7418   6.818   0.556   9.119  0.2110 -1.0136 -2.5685
   67CHL1  H21C 7419   6.876   0.391   9.093  1.4538  0.4565  0.6964
   67CHL1   C22 7420   6.613   0.383   9.055 -0.7801 -0.5824  0.9384
   67CHL1  H22A 7421   6.689   0.333   8.991  0.2225  2.5997 -0.5817
   67CHL1  H22B 7422   6.524   0.317   9.054 -2.1612  1.0437 -3.3827
   67CHL1   C23 7423   6.573   0.521   8.984 -0.1336  0.0024  0.1223
   67CHL1  H23A 7424   6.499   0.575   9.047  1.1966  1.0893  0.8009
   67CHL1  H23B 7425   6.664   0.584   8.971 -0.6561  1.0727  1.4529
   67CHL1   C24 7426   6.516   0.487   8.850 -0.6329  0.7374  0.1444
   67CHL1  H24A 7427   6.587   0.411   8.809  0.4917  1.9311 -0.1959
   67CHL1  H24B 7428   6.425   0.426   8.864 -1.6731  2.4196  1.0150
   67CHL1   C25 7429   6.500   0.600   8.744  0.9652  0.6390 -0.3518
   67CHL1   H25 7430   6.601   0.632   8.712  1.7049  0.6978  1.8564
   67CHL1   C26 7431   6.432   0.542   8.625 -0.0879  0.1432 -0.0940
   67CHL1  H26A 7432   6.348   0.473   8.645 -1.4043  1.5862 -0.4468
   67CHL1  H26B 7433   6.388   0.612   8.551  1.0826  1.3280  0.2692
   67CHL1  H26C 7434   6.511   0.491   8.566 -0.3709 -1.0913  0.5717
   67CHL1   C27 7435   6.427   0.726   8.801 -0.5121 -1.0257  0.1144
   67CHL1  H27A 7436   6.467   0.753   8.901  1.0113 -0.9667 -0.4755
   67CHL1  H27B 7437   6.442   0.814   8.736  1.3272 -1.8200 -0.6240
   67CHL1  H27C 7438   6.319   0.707   8.817  0.1342 -3.4414  2.2411
   68CHL1    C3 7439   0.545   3.260  10.362  0.3656  0.2910 -0.8047
   68CHL1    H3 7440   0.637   3.320  10.342  1.8931 -1.6341  0.1269
   68CHL1    O3 7441   0.556   3.224  10.497  0.1994  0.7219  0.1632
   68CHL1   H3' 7442   0.578   3.308  10.536 -0.0865 -0.0894  2.1940
   68CHL1    C4 7443   0.424   3.350  10.333  0.0137 -1.1031  0.1921
   68CHL1   H4A 7444   0.329   3.303  10.368 -1.1254  1.5324  0.9311
   68CHL1   H4B 7445   0.428   3.441  10.397 -0.7216 -1.4715  0.7902
   68CHL1    C5 7446   0.407   3.381  10.183 -0.3549 -0.2309 -0.6695
   68CHL1    C6 7447   0.400   3.505  10.132  0.5842 -0.4087  0.0964
   68CHL1    H6 7448   0.390   3.583  10.209  1.5427 -0.8980  0.7359
   68CHL1    C7 7449   0.389   3.538   9.986  0.0969  0.3978 -0.3812
   68CHL1   H7A 7450   0.315   3.620   9.981 -0.6772  0.1102  3.2948
   68CHL1   H7B 7451   0.487   3.587   9.966  0.1066 -0.2464 -2.0628
   68CHL1    C8 7452   0.354   3.414   9.896 -0.3050  0.4395 -0.0799
   68CHL1    H8 7453   0.245   3.395   9.906 -0.0254 -1.3493 -0.2512
   68CHL1   C14 7454   0.386   3.444   9.753 -0.3148  0.6508 -0.0179
   68CHL1   H14 7455   0.496   3.451   9.752  0.0405 -2.5448  2.0715
   68CHL1   C15 7456   0.312   3.569   9.694 -0.7838 -0.1045 -0.4412
   68CHL1  H15A 7457   0.201   3.571   9.705 -0.6194 -0.9357  1.8707
   68CHL1  H15B 7458   0.355   3.665   9.730 -1.6892 -0.1363  0.8288
   68CHL1   C16 7459   0.351   3.549   9.544  0.1711  0.2080 -0.1099
   68CHL1  H16A 7460   0.261   3.576   9.485  0.3344 -0.8049 -0.8440
   68CHL1  H16B 7461   0.433   3.619   9.516 -0.9597  1.4517 -0.4358
   68CHL1   C17 7462   0.392   3.396   9.527 -0.3906  0.1392  0.1078
   68CHL1   H17 7463   0.503   3.395   9.530 -0.3668  1.8514  0.8739
   68CHL1   C13 7464   0.355   3.329   9.659 -0.6205  0.8823 -1.1178
   68CHL1   C18 7465   0.202   3.297   9.659  0.3001 -0.5326  0.8330
   68CHL1  H18A 7466   0.161   3.270   9.758  1.4283  0.2902  1.5344
   68CHL1  H18B 7467   0.143   3.380   9.614 -0.3312 -0.9917  0.7950
   68CHL1  H18C 7468   0.194   3.203   9.599  0.4100 -0.6256  0.9650
   68CHL1   C12 7469   0.439   3.211   9.695  0.9004  0.7834  0.1232
   68CHL1  H12A 7470   0.420   3.123   9.630  0.8033 -0.2234  1.4662
   68CHL1  H12B 7471   0.549   3.220   9.679  1.0714 -1.1924 -0.0904
   68CHL1   C11 7472   0.418   3.168   9.843  0.9381 -0.2526 -0.1911
   68CHL1  H11A 7473   0.313   3.133   9.839  1.2845 -1.1888 -1.7221
   68CHL1  H11B 7474   0.479   3.080   9.871 -0.1652 -0.6586  1.0363
   68CHL1    C9 7475   0.435   3.286   9.939 -0.2041 -0.4781 -0.3168
   68CHL1    H9 7476   0.542   3.315   9.934 -0.3985  0.0423 -3.0822
   68CHL1   C10 7477   0.410   3.253  10.089  0.2806 -0.5309 -0.3914
   68CHL1   C19 7478   0.269   3.177  10.108  0.2489  0.2256 -0.2333
   68CHL1  H19A 7479   0.258   3.075  10.066  1.7350 -1.1605  2.4620
   68CHL1  H19B 7480   0.248   3.165  10.216 -1.9046  1.9622 -0.3873
   68CHL1  H19C 7481   0.189   3.245  10.071  1.9328  1.0179 -2.7190
   68CHL1    C1 7482   0.528   3.161  10.128  0.0258 -0.1133  0.6155
   68CHL1   H1A 7483   0.526   3.067  10.069 -0.2353  0.0472  0.3631
   68CHL1   H1B 7484   0.623   3.215  10.108  0.1613 -0.6566 -0.3006
   68CHL1    C2 7485   0.538   3.134  10.277  0.4259  0.6561 -0.4519
   68CHL1   H2A 7486   0.624   3.069  10.305  2.8334  3.0561 -1.7829
   68CHL1   H2B 7487   0.436   3.097  10.301  1.4489 -1.6950  0.5277
   68CHL1   C20 7488   0.340   3.340   9.387 -0.6446 -0.8386  0.2118
   68CHL1   H20 7489   0.229   3.353   9.383 -0.3343  3.3680  0.5921
   68CHL1   C21 7490   0.384   3.192   9.366 -0.3638 -0.5518 -0.1426
   68CHL1  H21A 7491   0.494   3.178   9.376 -0.2435 -0.7949 -1.6085
   68CHL1  H21B 7492   0.340   3.140   9.279 -0.2619  0.4946 -0.8385
   68CHL1  H21C 7493   0.338   3.132   9.448 -1.7831  1.3856  0.5469
   68CHL1   C22 7494   0.407   3.414   9.272 -0.3367 -0.1340  0.5159
   68CHL1  H22A 7495   0.397   3.524   9.286  1.4997  0.1735 -0.2727
   68CHL1  H22B 7496   0.517   3.395   9.277 -0.2583  0.5697  1.9051
   68CHL1   C23 7497   0.345   3.374   9.135 -0.2426 -0.1891  0.2020
   68CHL1  H23A 7498   0.387   3.275   9.109 -1.9865 -1.0016  0.3513
   68CHL1  H23B 7499   0.236   3.357   9.150 -0.8714  2.0189 -1.3808
   68CHL1   C24 7500   0.381   3.477   9.023 -0.0181 -0.2561 -0.0880
   68CHL1  H24A 7501   0.322   3.567   9.050  2.0191  1.0926  0.1037
   68CHL1  H24B 7502   0.491   3.497   9.020  0.0652 -0.4530  1.1017
   68CHL1   C25 7503   0.324   3.448   8.883 -0.1622 -0.2776 -0.2549
   68CHL1   H25 7504   0.394   3.384   8.825 -0.1542 -2.3823  1.9059
   68CHL1   C26 7505   0.200   3.369   8.897 -0.1705  0.3382 -0.1482
   68CHL1  H26A 7506   0.138   3.362   8.805 -1.0848  1.0559  0.3954
   68CHL1  H26B 7507   0.228   3.264   8.921  3.4245  0.7418 -1.8598
   68CHL1  H26C 7508   0.136   3.408   8.979 -1.9352  1.8508 -2.1168
   68CHL1   C27 7509   0.299   3.583   8.805 -0.4833  0.0871 -0.1220
   68CHL1  H27A 7510   0.207   3.632   8.843 -1.6191 -2.4120  0.5473
   68CHL1  H27B 7511   0.390   3.647   8.800 -0.0422 -0.1409  3.1076
   68CHL1  H27C 7512   0.276   3.550   8.701  0.8522 -0.1996 -0.3506
   69CHL1    C3 7513   5.247   0.406   6.817  0.1803 -0.3340  0.0406
   69CHL1    H3 7514   5.353   0.439   6.824 -0.7315  2.7085  0.7606
   69CHL1    O3 7515   5.208   0.423   6.682 -0.1685  0.1490 -0.3356
   69CHL1   H3' 7516   5.116   0.395   6.676  0.1432 -0.9273 -0.3427
   69CHL1    C4 7517   5.235   0.257   6.860 -0.1670  0.2146 -0.0373
   69CHL1   H4A 7518   5.125   0.245   6.852 -0.2297  1.6097 -2.3719
   69CHL1   H4B 7519   5.284   0.199   6.778  1.1749 -0.0168  0.8956
   69CHL1    C5 7520   5.266   0.235   7.005 -0.0881 -0.4588  0.5324
   69CHL1    C6 7521   5.364   0.148   7.041 -0.3729  0.3857 -0.1645
   69CHL1    H6 7522   5.432   0.093   6.974  0.3841  1.4996 -0.3422
   69CHL1    C7 7523   5.393   0.137   7.188 -0.9164  0.3420 -0.5415
   69CHL1   H7A 7524   5.422   0.032   7.209 -0.9968  0.4801  0.2809
   69CHL1   H7B 7525   5.483   0.197   7.212 -0.2393 -1.3768  1.4969
   69CHL1    C8 7526   5.286   0.175   7.292  0.6825 -0.3280 -0.4480
   69CHL1    H8 7527   5.196   0.110   7.282 -0.2419  0.4684  1.9556
   69CHL1   C14 7528   5.347   0.177   7.433  0.2652  0.2811  0.3619
   69CHL1   H14 7529   5.430   0.250   7.442  1.3417 -0.9183  0.4551
   69CHL1   C15 7530   5.400   0.039   7.472 -0.2819  0.3448  0.3260
   69CHL1  H15A 7531   5.325  -0.036   7.440  1.4872 -0.7686 -1.4984
   69CHL1  H15B 7532   5.497   0.008   7.427 -0.5020  2.9795 -2.2421
   69CHL1   C16 7533   5.403   0.044   7.622  0.4329 -0.9516 -0.4832
   69CHL1  H16A 7534   5.324  -0.025   7.659  0.4375 -0.9631 -0.4947
   69CHL1  H16B 7535   5.497   0.016   7.674  0.1041 -0.6136  0.2999
   69CHL1   C17 7536   5.347   0.185   7.663 -0.2387 -0.3234  0.0571
   69CHL1   H17 7537   5.428   0.259   7.653 -2.6736  2.1650 -3.9382
   69CHL1   C13 7538   5.253   0.225   7.544 -0.2257 -0.2628 -0.7311
   69CHL1   C18 7539   5.121   0.138   7.554  0.5060 -0.3323  0.6384
   69CHL1  H18A 7540   5.071   0.169   7.648 -0.6843  1.3337 -0.4938
   69CHL1  H18B 7541   5.051   0.156   7.470  0.4966 -0.7152  0.5622
   69CHL1  H18C 7542   5.149   0.030   7.551  1.2996 -0.1620  1.3818
   69CHL1   C12 7543   5.219   0.373   7.512 -0.0146 -0.0034  0.2365
   69CHL1  H12A 7544   5.147   0.415   7.585 -1.0526  0.4344 -0.9986
   69CHL1  H12B 7545   5.319   0.420   7.521 -0.5987  1.6491 -1.4037
   69CHL1   C11 7546   5.170   0.396   7.368  0.3564  0.4254 -0.0455
   69CHL1  H11A 7547   5.063   0.365   7.372  0.6847 -0.7661 -0.2053
   69CHL1  H11B 7548   5.176   0.502   7.335 -1.1479  0.0777 -1.5685
   69CHL1    C9 7549   5.250   0.316   7.255 -0.6336 -0.1861 -0.6540
   69CHL1    H9 7550   5.348   0.367   7.259 -0.1380 -1.1849  1.7062
   69CHL1   C10 7551   5.189   0.328   7.106 -0.8224  0.3490 -0.4013
   69CHL1   C19 7552   5.043   0.287   7.108  0.2238  0.0584 -0.3070
   69CHL1  H19A 7553   4.990   0.345   7.186  1.2794  1.3097 -0.4995
   69CHL1  H19B 7554   4.991   0.311   7.012  1.5223 -0.4203 -1.1548
   69CHL1  H19C 7555   5.029   0.177   7.124 -0.3831  0.4325  2.1154
   69CHL1    C1 7556   5.202   0.474   7.062 -0.7114 -0.0811 -0.2532
   69CHL1   H1A 7557   5.123   0.537   7.108 -0.4504  1.1550 -1.4278
   69CHL1   H1B 7558   5.304   0.510   7.090 -0.4459  0.8523 -2.2358
   69CHL1    C2 7559   5.174   0.504   6.910 -0.1789 -0.3043  0.1360
   69CHL1   H2A 7560   5.217   0.601   6.876 -1.3205 -0.1398 -0.9016
   69CHL1   H2B 7561   5.064   0.503   6.896 -0.5048  3.3217  1.4191
   69CHL1   C20 7562   5.296   0.195   7.804 -0.1766 -1.1372 -0.1438
   69CHL1   H20 7563   5.206   0.134   7.828  0.0321 -0.8110  1.6232
   69CHL1   C21 7564   5.263   0.342   7.844  0.1136  1.0257 -0.1045
   69CHL1  H21A 7565   5.223   0.339   7.947 -2.0609 -0.8911 -0.9294
   69CHL1  H21B 7566   5.193   0.390   7.773 -0.7255 -1.6916 -1.2484
   69CHL1  H21C 7567   5.354   0.406   7.842  1.8658 -1.3216  0.1730
   69CHL1   C22 7568   5.413   0.144   7.900  0.7958  0.0943  0.5084
   69CHL1  H22A 7569   5.423   0.034   7.888  1.0775 -0.0527  1.8993
   69CHL1  H22B 7570   5.510   0.192   7.876  0.7799  0.2994  0.8382
   69CHL1   C23 7571   5.378   0.152   8.048  0.0363 -0.0462  0.1412
   69CHL1  H23A 7572   5.367   0.260   8.073  1.2930 -0.2482  1.7301
   69CHL1  H23B 7573   5.275   0.115   8.067  0.0738 -0.1313  0.1775
   69CHL1   C24 7574   5.470   0.071   8.141  0.0495  0.2879  0.5561
   69CHL1  H24A 7575   5.435  -0.034   8.138  0.1357  0.2860 -1.8072
   69CHL1  H24B 7576   5.576   0.066   8.108 -0.3503 -2.0030 -0.5237
   69CHL1   C25 7577   5.480   0.106   8.298  0.3856  0.0543  0.0695
   69CHL1   H25 7578   5.504   0.214   8.313  0.2299 -0.0892  1.4795
   69CHL1   C26 7579   5.343   0.091   8.371 -0.1533  0.7436  0.9076
   69CHL1  H26A 7580   5.344   0.162   8.456  0.4239  4.2088 -1.7893
   69CHL1  H26B 7581   5.260   0.133   8.312 -0.8400  0.1453  1.4231
   69CHL1  H26C 7582   5.337  -0.019   8.387  1.7623  0.7346  1.9640
   69CHL1   C27 7583   5.588   0.033   8.376 -0.1653  0.1763 -1.1533
   69CHL1  H27A 7584   5.592   0.047   8.486 -0.8396 -1.1046 -0.9468
   69CHL1  H27B 7585   5.567  -0.075   8.359 -1.9083  0.6545 -2.3213
   69CHL1  H27C 7586   5.687   0.050   8.329 -0.1092  0.0914 -1.0659
   70CHL1    C3 7587   5.595   3.291   7.065  0.1107 -0.0092 -0.3347
   70CHL1    H3 7588   5.596   3.395   7.026  3.0862  0.2613  0.2292
   70CHL1    O3 7589   5.564   3.194   6.970  0.0047  0.0474 -0.2170
   70CHL1   H3' 7590   5.639   3.162   6.919 -0.5767 -0.4804 -0.7573
   70CHL1    C4 7591   5.741   3.261   7.115 -0.2984  0.3495  0.0046
   70CHL1   H4A 7592   5.762   3.153   7.133 -0.8213  0.3610  0.7021
   70CHL1   H4B 7593   5.811   3.295   7.035 -0.0053 -1.3678 -0.5176
   70CHL1    C5 7594   5.783   3.340   7.235 -0.1258 -0.4812 -0.2373
   70CHL1    C6 7595   5.899   3.413   7.233  0.3709 -0.2909 -0.6401
   70CHL1    H6 7596   5.964   3.417   7.145 -1.0455  0.0443 -1.7060
   70CHL1    C7 7597   5.936   3.504   7.352  0.0762 -0.1879  0.5666
   70CHL1   H7A 7598   6.047   3.498   7.359  0.2522 -0.0882 -1.5070
   70CHL1   H7B 7599   5.921   3.610   7.322  1.2215 -0.2522 -0.3312
   70CHL1    C8 7600   5.867   3.460   7.485  0.4541 -0.3237  0.1879
   70CHL1    H8 7601   5.912   3.365   7.520  0.2085 -0.5176 -0.0219
   70CHL1   C14 7602   5.902   3.561   7.588 -0.8357  0.5775  0.3950
   70CHL1   H14 7603   5.867   3.663   7.561  1.9927  1.5758  0.2114
   70CHL1   C15 7604   6.055   3.590   7.610 -0.4711  0.5861 -0.0025
   70CHL1  H15A 7605   6.111   3.495   7.596 -0.3896  0.8093 -1.3866
   70CHL1  H15B 7606   6.092   3.654   7.526  0.9669 -1.3977 -0.9576
   70CHL1   C16 7607   6.058   3.662   7.740 -0.1413 -0.1992 -0.5473
   70CHL1  H16A 7608   6.143   3.632   7.805  0.0625 -0.7147 -1.0510
   70CHL1  H16B 7609   6.086   3.768   7.721  0.4636  0.3252  2.6868
   70CHL1   C17 7610   5.913   3.648   7.804 -0.2922  0.5463  0.2187
   70CHL1   H17 7611   5.868   3.744   7.772 -1.9575 -0.2341  0.0816
   70CHL1   C13 7612   5.841   3.537   7.725 -0.0686 -0.9769  0.8268
   70CHL1   C18 7613   5.887   3.402   7.787 -0.2464  0.6546  0.4930
   70CHL1  H18A 7614   5.850   3.326   7.715  2.9930 -0.3664 -0.2592
   70CHL1  H18B 7615   5.996   3.387   7.803 -0.2956 -0.1271  0.1368
   70CHL1  H18C 7616   5.829   3.385   7.880  1.5992 -2.9147  1.1746
   70CHL1   C12 7617   5.691   3.545   7.696 -0.1692 -0.3544 -0.1901
   70CHL1  H12A 7618   5.622   3.550   7.783  0.7493 -0.6140  0.5758
   70CHL1  H12B 7619   5.678   3.643   7.646  2.9571  0.9403  1.2394
   70CHL1   C11 7620   5.646   3.436   7.600  0.1991  0.2525  0.2174
   70CHL1  H11A 7621   5.655   3.340   7.655  0.7102  1.0246  1.5104
   70CHL1  H11B 7622   5.536   3.442   7.590 -0.3081 -4.6805  0.0571
   70CHL1    C9 7623   5.717   3.449   7.468  0.2666 -0.9716 -0.7025
   70CHL1    H9 7624   5.695   3.548   7.423  1.7005 -0.8044 -1.1082
   70CHL1   C10 7625   5.684   3.345   7.357 -0.3803  0.2477  0.0026
   70CHL1   C19 7626   5.682   3.207   7.421  0.4270  0.2808  0.0977
   70CHL1  H19A 7627   5.677   3.128   7.343  0.3938  0.7622 -0.3985
   70CHL1  H19B 7628   5.780   3.190   7.472  1.6307  2.0729 -1.4578
   70CHL1  H19C 7629   5.592   3.203   7.486 -0.9550  1.6584 -1.6187
   70CHL1    C1 7630   5.551   3.380   7.296 -0.0752 -0.2177  0.6990
   70CHL1   H1A 7631   5.478   3.393   7.378  1.1563  2.7376  1.4676
   70CHL1   H1B 7632   5.549   3.478   7.244  1.0435  0.1747  1.3545
   70CHL1    C2 7633   5.502   3.283   7.181 -0.0852 -0.5717 -0.6775
   70CHL1   H2A 7634   5.397   3.308   7.156 -0.2133 -0.6030 -0.1977
   70CHL1   H2B 7635   5.512   3.180   7.223  0.3195 -0.3718 -0.2685
   70CHL1   C20 7636   5.906   3.646   7.958  0.3250  0.1735  1.1195
   70CHL1   H20 7637   5.933   3.545   7.997 -0.7920 -0.2760  0.7785
   70CHL1   C21 7638   5.763   3.668   8.008  0.4486  0.7824 -0.1264
   70CHL1  H21A 7639   5.702   3.579   7.980 -1.2822  0.5139  3.8473
   70CHL1  H21B 7640   5.729   3.753   7.946  0.2535 -0.7342 -2.2379
   70CHL1  H21C 7641   5.745   3.679   8.117  1.3922  1.6189 -0.0509
   70CHL1   C22 7642   5.984   3.755   8.021 -0.1544 -0.0327  0.1430
   70CHL1  H22A 7643   6.084   3.772   7.975  0.5481  3.9550  2.6259
   70CHL1  H22B 7644   5.936   3.853   8.001 -0.9034 -0.5141 -0.4911
   70CHL1   C23 7645   6.006   3.749   8.177 -0.9165  0.2467  0.2289
   70CHL1  H23A 7646   5.902   3.756   8.216 -0.8261 -0.2232  0.5536
   70CHL1  H23B 7647   6.057   3.655   8.206 -1.2587  0.6265  2.2318
   70CHL1   C24 7648   6.107   3.853   8.234  0.1515 -0.3232 -0.4558
   70CHL1  H24A 7649   6.208   3.812   8.212  0.4127 -1.5040  2.4853
   70CHL1  H24B 7650   6.090   3.955   8.193  0.5612  0.0230  0.2242
   70CHL1   C25 7651   6.116   3.847   8.389  0.0687 -0.3964 -0.3688
   70CHL1   H25 7652   6.134   3.738   8.400  1.4761 -0.1768 -0.2141
   70CHL1   C26 7653   6.240   3.921   8.447 -0.5686 -0.1024 -0.7445
   70CHL1  H26A 7654   6.222   3.923   8.557 -0.4435 -0.3812 -0.7182
   70CHL1  H26B 7655   6.336   3.870   8.421  2.1833  1.3455  4.8845
   70CHL1  H26C 7656   6.257   4.026   8.414  3.0871 -0.7131 -1.3229
   70CHL1   C27 7657   5.984   3.883   8.455  0.1715 -0.1046  0.5971
   70CHL1  H27A 7658   5.913   3.829   8.389  0.8981  2.9900 -3.0083
   70CHL1  H27B 7659   5.979   3.861   8.564  0.3940 -1.7066  0.3113
   70CHL1  H27C 7660   5.968   3.992   8.441  3.2097  0.4758  0.8374
   71CHL1    C3 7661   3.486   0.830   6.881 -1.1921  0.0575 -0.1552
   71CHL1    H3 7662   3.492   0.940   6.885 -1.2167  0.0406  0.4185
   71CHL1    O3 7663   3.476   0.810   6.737  0.0945  0.3621 -0.5999
   71CHL1   H3' 7664   3.482   0.714   6.734 -3.7809 -0.0353 -0.5092
   71CHL1    C4 7665   3.626   0.771   6.910 -0.4463 -0.1431  0.1471
   71CHL1   H4A 7666   3.643   0.670   6.865  2.8205  0.3537  0.0494
   71CHL1   H4B 7667   3.703   0.836   6.864 -0.8434  0.9193  0.9540
   71CHL1    C5 7668   3.646   0.773   7.064 -1.1837 -0.4978  0.5734
   71CHL1    C6 7669   3.747   0.839   7.117  0.4407 -0.0195 -0.3136
   71CHL1    H6 7670   3.815   0.892   7.049 -1.2822  1.4481 -0.9871
   71CHL1    C7 7671   3.779   0.827   7.268 -0.2674  0.2461  0.0873
   71CHL1   H7A 7672   3.888   0.844   7.280 -0.1631  0.0298 -0.5266
   71CHL1   H7B 7673   3.727   0.915   7.310  0.0843  1.0173 -1.0353
   71CHL1    C8 7674   3.715   0.703   7.332 -0.4228 -0.0293  0.2856
   71CHL1    H8 7675   3.764   0.606   7.310 -1.4149 -0.2891 -0.9203
   71CHL1   C14 7676   3.722   0.718   7.487 -0.0561  0.0193 -0.3193
   71CHL1   H14 7677   3.660   0.808   7.507  1.9527  0.9466  2.2607
   71CHL1   C15 7678   3.857   0.750   7.555  0.0033  0.2529 -0.8070
   71CHL1  H15A 7679   3.934   0.679   7.517  1.1941  2.0649 -1.8941
   71CHL1  H15B 7680   3.907   0.849   7.553  0.4509  0.1698  1.9495
   71CHL1   C16 7681   3.828   0.716   7.704 -0.0459  0.2785  0.1576
   71CHL1  H16A 7682   3.897   0.643   7.751  0.2815  2.1438  2.7915
   71CHL1  H16B 7683   3.847   0.804   7.769  0.3534 -1.3700  2.3928
   71CHL1   C17 7684   3.682   0.660   7.711  0.7162 -1.0063 -0.1211
   71CHL1   H17 7685   3.616   0.748   7.725 -0.5608 -1.8571 -0.5886
   71CHL1   C13 7686   3.649   0.609   7.574  0.5332 -0.0673  0.0414
   71CHL1   C18 7687   3.717   0.473   7.558 -0.2063  0.1071 -0.2819
   71CHL1  H18A 7688   3.681   0.421   7.467  0.0230  0.9673 -0.8737
   71CHL1  H18B 7689   3.826   0.485   7.545  0.1460 -0.3536  1.8267
   71CHL1  H18C 7690   3.706   0.403   7.643 -1.9765  0.4394 -0.1917
   71CHL1   C12 7691   3.504   0.599   7.531 -0.0854 -0.3871  0.0371
   71CHL1  H12A 7692   3.447   0.513   7.572 -1.8583  2.1844  3.4556
   71CHL1  H12B 7693   3.461   0.696   7.565 -0.4565 -1.1030  1.7010
   71CHL1   C11 7694   3.493   0.593   7.380  0.7037 -0.2141  0.2377
   71CHL1  H11A 7695   3.523   0.490   7.351 -4.0653 -1.7998  0.0922
   71CHL1  H11B 7696   3.384   0.589   7.362  1.0412 -1.5322 -1.7736
   71CHL1    C9 7697   3.562   0.694   7.297 -0.5444 -0.2148  0.7535
   71CHL1    H9 7698   3.535   0.797   7.330  2.7610  1.1941 -0.4800
   71CHL1   C10 7699   3.539   0.687   7.139  1.2081 -0.4310 -0.5178
   71CHL1   C19 7700   3.551   0.541   7.104  0.0680  0.2745  0.1482
   71CHL1  H19A 7701   3.526   0.513   6.999  1.4250  0.4744 -0.2468
   71CHL1  H19B 7702   3.645   0.496   7.143 -0.0280 -0.9345 -0.9410
   71CHL1  H19C 7703   3.474   0.478   7.153 -0.2138  1.2412  0.9550
   71CHL1    C1 7704   3.397   0.742   7.107  0.2586  0.0600  0.1203
   71CHL1   H1A 7705   3.315   0.683   7.153  0.9276 -0.4579  0.6680
   71CHL1   H1B 7706   3.391   0.839   7.161 -0.3472 -0.2009  0.5320
   71CHL1    C2 7707   3.377   0.756   6.956  0.0990 -0.3345 -0.3221
   71CHL1   H2A 7708   3.284   0.816   6.947  1.8365  2.7065  0.3628
   71CHL1   H2B 7709   3.351   0.655   6.919  1.4950 -1.3623  1.3931
   71CHL1   C20 7710   3.641   0.584   7.841 -0.3932  0.4020  0.3165
   71CHL1   H20 7711   3.694   0.486   7.834 -2.1846 -0.7287  1.6593
   71CHL1   C21 7712   3.499   0.538   7.847  0.7765 -0.2784 -0.2739
   71CHL1  H21A 7713   3.467   0.492   7.943  1.6311 -1.4358 -0.5203
   71CHL1  H21B 7714   3.486   0.472   7.759 -0.1851  1.3482 -1.4016
   71CHL1  H21C 7715   3.446   0.634   7.829 -0.3105 -0.9779 -0.9101
   71CHL1   C22 7716   3.687   0.646   7.976 -0.1345 -0.4885  0.0722
   71CHL1  H22A 7717   3.671   0.577   8.062 -2.6449  0.3724  0.3927
   71CHL1  H22B 7718   3.794   0.673   7.966  0.3495 -0.7901  3.3796
   71CHL1   C23 7719   3.601   0.765   8.013 -0.2469  0.5561 -0.2138
   71CHL1  H23A 7720   3.608   0.830   7.924  1.3662 -1.9549 -2.0346
   71CHL1  H23B 7721   3.493   0.750   8.034 -0.1670  1.7266  1.2044
   71CHL1   C24 7722   3.646   0.834   8.141  0.2469 -0.0687 -1.0489
   71CHL1  H24A 7723   3.663   0.760   8.222 -1.0149 -3.5366 -3.7249
   71CHL1  H24B 7724   3.749   0.867   8.118  0.8991 -1.4591 -0.2497
   71CHL1   C25 7725   3.564   0.955   8.180  0.4555  0.2029  0.5902
   71CHL1   H25 7726   3.540   1.010   8.086 -1.9708 -0.1296  0.9490
   71CHL1   C26 7727   3.424   0.925   8.237 -0.1364  0.3622  0.3033
   71CHL1  H26A 7728   3.347   0.934   8.156  1.7970  0.9472 -1.5498
   71CHL1  H26B 7729   3.416   0.829   8.293  1.9491  0.1119  0.2228
   71CHL1  H26C 7730   3.385   1.003   8.306 -0.3749  0.6537 -0.1525
   71CHL1   C27 7731   3.646   1.061   8.260  0.1389  0.2401 -0.4415
   71CHL1  H27A 7732   3.593   1.158   8.251 -2.7340 -1.0233  1.2767
   71CHL1  H27B 7733   3.662   1.026   8.364 -1.6601  1.8153  0.4195
   71CHL1  H27C 7734   3.743   1.069   8.206  0.9698 -0.5564  0.8545
   72CHL1    C3 7735   6.009   4.397   7.122  0.3653  0.5303 -0.4905
   72CHL1    H3 7736   6.044   4.492   7.075  1.1991  0.9602  0.9424
   72CHL1    O3 7737   5.958   4.300   7.027  0.2020 -0.5863 -0.1328
   72CHL1   H3' 7738   5.874   4.333   6.995 -0.3331 -1.9407 -0.2265
   72CHL1    C4 7739   6.105   4.334   7.223 -0.5007  0.3617  0.2025
   72CHL1   H4A 7740   6.053   4.238   7.244 -1.5603  0.1965 -2.6933
   72CHL1   H4B 7741   6.200   4.302   7.175  1.4040  1.9163  2.6827
   72CHL1    C5 7742   6.129   4.428   7.342  0.4956 -0.1400 -0.5092
   72CHL1    C6 7743   6.250   4.485   7.359 -0.4853  0.4116  0.3129
   72CHL1    H6 7744   6.332   4.468   7.287  0.2605  0.4155  1.1359
   72CHL1    C7 7745   6.280   4.580   7.470  0.5518  0.2390 -0.7970
   72CHL1   H7A 7746   6.381   4.554   7.510  2.0291  0.9606 -3.7905
   72CHL1   H7B 7747   6.286   4.687   7.440 -0.9002 -0.1385 -2.5923
   72CHL1    C8 7748   6.171   4.562   7.584  0.3679 -0.7448 -0.6453
   72CHL1    H8 7749   6.189   4.467   7.638  1.8748  0.9718  2.0860
   72CHL1   C14 7750   6.193   4.666   7.690  0.6187  0.1423  0.0498
   72CHL1   H14 7751   6.195   4.761   7.631 -2.1567 -1.0702 -2.2697
   72CHL1   C15 7752   6.327   4.667   7.766 -0.0873  0.5505  0.0634
   72CHL1  H15A 7753   6.367   4.567   7.794 -1.3167  0.0561  0.1607
   72CHL1  H15B 7754   6.410   4.705   7.703 -1.0078  1.1858 -0.7966
   72CHL1   C16 7755   6.310   4.754   7.892  0.4403  0.2536  0.4530
   72CHL1  H16A 7756   6.344   4.699   7.982  1.3756 -1.3030 -0.7944
   72CHL1  H16B 7757   6.374   4.845   7.892  0.1865  0.4680  2.1672
   72CHL1   C17 7758   6.160   4.785   7.907  0.8963  0.2408 -0.6501
   72CHL1   H17 7759   6.145   4.886   7.864 -2.1727 -0.0149 -0.3749
   72CHL1   C13 7760   6.089   4.681   7.810  0.5347 -0.2012 -0.1145
   72CHL1   C18 7761   6.073   4.546   7.882 -0.8942  0.1459 -0.2416
   72CHL1  H18A 7762   6.050   4.461   7.814 -1.1489  0.4169 -0.4980
   72CHL1  H18B 7763   6.172   4.518   7.923 -0.8531  0.6986  0.0545
   72CHL1  H18C 7764   6.009   4.542   7.972  1.1859  1.2181  1.3880
   72CHL1   C12 7765   5.957   4.716   7.735  0.1862  0.1229 -0.5649
   72CHL1  H12A 7766   5.868   4.728   7.801 -0.1520 -2.2508 -0.5030
   72CHL1  H12B 7767   5.964   4.810   7.677 -0.6171  3.2795  3.9420
   72CHL1   C11 7768   5.917   4.624   7.628  0.1973  0.4812  0.3942
   72CHL1  H11A 7769   5.883   4.528   7.673 -2.8470  1.3665  0.1571
   72CHL1  H11B 7770   5.839   4.669   7.563  0.0141  0.4934  0.6244
   72CHL1    C9 7771   6.030   4.584   7.525 -0.2829 -0.1303 -0.2436
   72CHL1    H9 7772   6.031   4.676   7.463 -0.8797 -0.5391 -0.8775
   72CHL1   C10 7773   6.000   4.472   7.425  0.5640  0.2222 -0.1963
   72CHL1   C19 7774   5.932   4.356   7.497 -0.4439  0.1982  0.2255
   72CHL1  H19A 7775   5.826   4.384   7.516 -0.6462 -0.6092  0.3366
   72CHL1  H19B 7776   5.949   4.260   7.444  1.3743 -0.9070  2.6055
   72CHL1  H19C 7777   5.992   4.345   7.590  0.0849  1.3422  0.0350
   72CHL1    C1 7778   5.904   4.534   7.320  0.6302 -0.0150 -0.7174
   72CHL1   H1A 7779   5.817   4.570   7.380 -1.0430 -1.1620 -2.3554
   72CHL1   H1B 7780   5.951   4.627   7.282 -0.1085  0.7756  0.2397
   72CHL1    C2 7781   5.880   4.436   7.197  0.0803 -0.2454  0.7324
   72CHL1   H2A 7782   5.814   4.488   7.124  0.1902 -2.5001 -1.1264
   72CHL1   H2B 7783   5.828   4.346   7.236  0.1428 -0.5065  0.2341
   72CHL1   C20 7784   6.110   4.791   8.052 -0.8682 -0.5634 -0.1403
   72CHL1   H20 7785   6.114   4.689   8.097  1.1541 -0.4862 -0.0383
   72CHL1   C21 7786   5.963   4.824   8.052  0.3524 -0.4456  0.5201
   72CHL1  H21A 7787   5.930   4.844   8.156  1.2423  3.9590  0.1229
   72CHL1  H21B 7788   5.908   4.739   8.005  1.9431 -1.2519  0.0614
   72CHL1  H21C 7789   5.938   4.915   7.994 -2.1543 -0.5473  1.3167
   72CHL1   C22 7790   6.194   4.886   8.136 -0.5973 -0.8891 -0.0825
   72CHL1  H22A 7791   6.298   4.897   8.099  0.2902 -1.7373  2.0167
   72CHL1  H22B 7792   6.137   4.981   8.142  0.5825 -0.2355  1.2336
   72CHL1   C23 7793   6.207   4.843   8.288  0.6918 -0.5254 -0.3670
   72CHL1  H23A 7794   6.105   4.830   8.331  1.3054 -3.5220  0.4460
   72CHL1  H23B 7795   6.245   4.739   8.301  1.0954 -0.2576  0.7385
   72CHL1   C24 7796   6.301   4.937   8.369 -0.7654  0.3853  0.1495
   72CHL1  H24A 7797   6.388   4.953   8.301 -1.1411 -0.0987 -0.4617
   72CHL1  H24B 7798   6.262   5.038   8.393  0.5794  0.7227  1.0144
   72CHL1   C25 7799   6.357   4.861   8.494  0.1289  0.2756 -0.5152
   72CHL1   H25 7800   6.404   4.772   8.446  0.8409  1.0991 -1.3936
   72CHL1   C26 7801   6.471   4.945   8.557  0.6755  1.0771 -0.4832
   72CHL1  H26A 7802   6.541   4.963   8.473  0.9564  2.6079  0.0447
   72CHL1  H26B 7803   6.432   5.036   8.608 -0.9490 -1.0862  2.5263
   72CHL1  H26C 7804   6.522   4.885   8.635  0.2603  0.6862 -0.5037
   72CHL1   C27 7805   6.240   4.812   8.589 -0.6982  0.1248 -0.0581
   72CHL1  H27A 7806   6.168   4.738   8.546  0.9353 -0.9978 -0.9715
   72CHL1  H27B 7807   6.286   4.757   8.673 -3.5307 -0.1218  1.4509
   72CHL1  H27C 7808   6.185   4.904   8.618 -2.6555 -1.6769  2.3416
   73CHL1    C3 7809   3.766   1.221   6.919 -0.0990  1.1951  0.1514
   73CHL1    H3 7810   3.728   1.117   6.930  0.8607  0.7387 -0.7363
   73CHL1    O3 7811   3.735   1.263   6.788 -0.1194 -0.3621 -0.3381
   73CHL1   H3' 7812   3.705   1.354   6.793  1.9121  0.3017  2.1026
   73CHL1    C4 7813   3.688   1.312   7.020 -0.0363  0.9395  0.3626
   73CHL1   H4A 7814   3.732   1.412   7.001  2.4040 -0.0113  0.6180
   73CHL1   H4B 7815   3.582   1.303   6.990  0.0755  1.2246 -0.1291
   73CHL1    C5 7816   3.718   1.275   7.161 -0.6508  0.0598 -0.1083
   73CHL1    C6 7817   3.621   1.242   7.247  0.6742  0.4486 -0.6740
   73CHL1    H6 7818   3.520   1.230   7.206  0.3517 -2.3119  0.7005
   73CHL1    C7 7819   3.644   1.202   7.390 -0.3794 -0.0008  0.4912
   73CHL1   H7A 7820   3.571   1.239   7.465  1.2679 -3.2329  4.0082
   73CHL1   H7B 7821   3.622   1.093   7.391 -2.8457  0.4276  0.0298
   73CHL1    C8 7822   3.785   1.242   7.444 -0.7376 -0.3163  1.3520
   73CHL1    H8 7823   3.788   1.349   7.472  1.6499  0.2245 -0.5739
   73CHL1   C14 7824   3.810   1.168   7.570  0.1889  0.0284  0.4881
   73CHL1   H14 7825   3.826   1.063   7.538  0.9529 -0.1915  1.5325
   73CHL1   C15 7826   3.703   1.156   7.678 -0.4187 -1.0133  0.0820
   73CHL1  H15A 7827   3.643   1.248   7.692  0.9994  0.2415 -1.6587
   73CHL1  H15B 7828   3.640   1.068   7.650 -2.2021  0.2915 -0.1635
   73CHL1   C16 7829   3.794   1.120   7.803  0.4858  0.1616  0.5496
   73CHL1  H16A 7830   3.792   1.188   7.891 -2.1481 -1.6001  1.9737
   73CHL1  H16B 7831   3.762   1.021   7.841  2.1991 -1.2411 -1.4249
   73CHL1   C17 7832   3.944   1.108   7.758  0.1503 -0.0915  0.7146
   73CHL1   H17 7833   3.958   1.003   7.724 -0.2505 -0.1916  0.8635
   73CHL1   C13 7834   3.945   1.205   7.633  0.0792  0.4169 -0.3288
   73CHL1   C18 7835   3.957   1.349   7.686 -0.1073  0.0256  0.1232
   73CHL1  H18A 7836   3.956   1.425   7.605  0.0232  0.7028  0.7440
   73CHL1  H18B 7837   3.868   1.380   7.745  0.9783 -2.1633  3.1536
   73CHL1  H18C 7838   4.047   1.359   7.750 -0.3381 -0.7152  0.5768
   73CHL1   C12 7839   4.054   1.175   7.523 -0.1899  0.0147  0.4443
   73CHL1  H12A 7840   4.154   1.206   7.560  0.7129 -0.6860 -1.2710
   73CHL1  H12B 7841   4.068   1.067   7.504 -0.9035 -0.0878  0.4651
   73CHL1   C11 7842   4.033   1.249   7.393 -0.0998  1.0747 -0.0066
   73CHL1  H11A 7843   4.033   1.358   7.416 -1.0534  1.3256 -1.1296
   73CHL1  H11B 7844   4.117   1.231   7.323 -0.3817 -3.6742  0.5310
   73CHL1    C9 7845   3.898   1.215   7.336 -0.0499 -0.7653  0.7593
   73CHL1    H9 7846   3.876   1.112   7.300 -0.7987  0.9429 -4.5383
   73CHL1   C10 7847   3.868   1.276   7.195 -0.2504 -0.3226  0.4415
   73CHL1   C19 7848   3.901   1.432   7.213 -0.2298  0.0604  0.3627
   73CHL1  H19A 7849   3.887   1.493   7.122 -0.4800 -1.0939 -0.3998
   73CHL1  H19B 7850   3.840   1.489   7.286  1.3412  0.9122  1.0471
   73CHL1  H19C 7851   4.010   1.445   7.225 -0.2600  0.7260 -0.0603
   73CHL1    C1 7852   3.952   1.206   7.087  0.4969 -0.4312  0.1632
   73CHL1   H1A 7853   4.051   1.254   7.104 -0.4252  1.0257  1.7694
   73CHL1   H1B 7854   3.972   1.097   7.093  1.6054 -0.2330  0.4123
   73CHL1    C2 7855   3.919   1.231   6.940  0.4976  0.4090 -0.4858
   73CHL1   H2A 7856   3.961   1.164   6.861 -1.4650 -0.6427 -0.7101
   73CHL1   H2B 7857   3.948   1.335   6.914 -1.8933  1.0067 -1.0094
   73CHL1   C20 7858   4.040   1.133   7.876  0.3034  0.3644 -0.2830
   73CHL1   H20 7859   4.035   1.238   7.914  0.4358 -0.0552  0.9485
   73CHL1   C21 7860   4.180   1.101   7.826  0.1429 -0.0759 -0.4884
   73CHL1  H21A 7861   4.194   1.175   7.744 -3.1537  1.6094  0.2905
   73CHL1  H21B 7862   4.198   0.999   7.785  3.6144  0.8256 -1.5861
   73CHL1  H21C 7863   4.258   1.116   7.904 -0.3632  0.2507 -0.0365
   73CHL1   C22 7864   4.013   1.035   7.997 -0.3664 -0.1666  0.0159
   73CHL1  H22A 7865   3.909   0.998   8.008 -0.5188  0.8562  2.7534
   73CHL1  H22B 7866   4.074   0.944   7.982  1.0690  0.4439  1.7878
   73CHL1   C23 7867   4.041   1.106   8.129 -0.3064 -0.3304 -0.6768
   73CHL1  H23A 7868   4.142   1.153   8.133 -1.1034  1.4609  2.7581
   73CHL1  H23B 7869   3.965   1.182   8.157  1.2620  0.5110  1.5739
   73CHL1   C24 7870   4.032   1.014   8.252 -0.4454 -0.9309  0.3210
   73CHL1  H24A 7871   4.042   1.068   8.348 -0.3061 -0.3893  0.0109
   73CHL1  H24B 7872   3.931   0.970   8.260 -1.3853  1.1927  0.8622
   73CHL1   C25 7873   4.137   0.895   8.256  0.5496 -0.1831 -0.2090
   73CHL1   H25 7874   4.098   0.824   8.180 -0.7788  1.2413 -0.8989
   73CHL1   C26 7875   4.281   0.931   8.235  0.4775 -0.0499 -0.4280
   73CHL1  H26A 7876   4.330   0.845   8.184  0.1830 -0.1924 -0.4715
   73CHL1  H26B 7877   4.292   1.021   8.170 -2.3227  0.4492 -0.3293
   73CHL1  H26C 7878   4.320   0.964   8.334 -0.2410 -1.6486  0.4085
   73CHL1   C27 7879   4.121   0.815   8.382  0.4051 -0.4086  0.7155
   73CHL1  H27A 7880   4.012   0.798   8.399  0.7790 -2.1081  1.6338
   73CHL1  H27B 7881   4.170   0.715   8.387 -0.3339 -0.8271 -0.0638
   73CHL1  H27C 7882   4.157   0.875   8.468 -0.7830  0.9886  0.2656
   74CHL1    C3 7883   3.469   6.210   6.797 -0.2606 -0.0043 -0.3191
   74CHL1    H3 7884   3.572   6.172   6.778 -0.2873 -0.3089  0.1357
   74CHL1    O3 7885   3.434   6.258   6.669  0.3449  0.5403 -0.5389
   74CHL1   H3' 7886   3.481   6.199   6.610  3.5107  2.3788 -0.0808
   74CHL1    C4 7887   3.371   6.108   6.842 -0.0133 -0.6942  0.5052
   74CHL1   H4A 7888   3.271   6.154   6.834 -0.1386 -1.1365 -0.7526
   74CHL1   H4B 7889   3.361   6.021   6.773 -2.5974  0.7378 -1.0854
   74CHL1    C5 7890   3.395   6.062   6.982 -0.2131  0.3437 -0.4622
   74CHL1    C6 7891   3.414   5.930   7.013  0.2096 -0.2044  0.1970
   74CHL1    H6 7892   3.396   5.856   6.934 -0.0773 -0.8936  0.8980
   74CHL1    C7 7893   3.443   5.871   7.147 -0.5802  0.1531  0.5103
   74CHL1   H7A 7894   3.393   5.776   7.174  0.4905 -0.7573 -0.5930
   74CHL1   H7B 7895   3.551   5.843   7.150 -0.8771 -1.0331  0.8027
   74CHL1    C8 7896   3.413   5.976   7.260 -0.5369  0.3151  0.2368
   74CHL1    H8 7897   3.305   5.983   7.288  0.1033  1.6280  2.7575
   74CHL1   C14 7898   3.493   5.936   7.388 -0.4440  0.9265 -0.4574
   74CHL1   H14 7899   3.599   5.938   7.355  0.7357 -0.3779  2.8381
   74CHL1   C15 7900   3.486   5.790   7.435  0.8336 -0.3531 -0.1921
   74CHL1  H15A 7901   3.382   5.751   7.445  0.1621  1.4709  0.3476
   74CHL1  H15B 7902   3.541   5.713   7.377 -0.5119 -1.6238  0.1307
   74CHL1   C16 7903   3.537   5.795   7.576 -0.9462  0.5067 -0.2834
   74CHL1  H16A 7904   3.451   5.766   7.641 -0.2023 -0.8678  0.1300
   74CHL1  H16B 7905   3.613   5.715   7.589 -1.5961 -0.1659 -0.5190
   74CHL1   C17 7906   3.572   5.945   7.605  0.4611  0.3196 -0.3613
   74CHL1   H17 7907   3.678   5.963   7.578 -0.5537  4.7715 -2.1947
   74CHL1   C13 7908   3.477   6.025   7.508 -0.0360  0.2331 -0.2081
   74CHL1   C18 7909   3.326   6.009   7.566  0.4478  0.7230 -0.0581
   74CHL1  H18A 7910   3.312   6.094   7.638  0.6951  0.5126  0.2402
   74CHL1  H18B 7911   3.251   6.037   7.489 -1.9915  1.7571  2.4754
   74CHL1  H18C 7912   3.299   5.915   7.617 -1.6463  2.2298  1.8251
   74CHL1   C12 7913   3.509   6.166   7.475 -0.0010 -0.5573 -0.0597
   74CHL1  H12A 7914   3.471   6.224   7.561 -0.4922 -1.7368  0.5361
   74CHL1  H12B 7915   3.619   6.180   7.470 -0.1695  0.8417 -0.3641
   74CHL1   C11 7916   3.438   6.209   7.349  0.1597 -0.4301  0.0543
   74CHL1  H11A 7917   3.333   6.233   7.376  0.9043  2.5751  0.7339
   74CHL1  H11B 7918   3.473   6.312   7.326  0.9202  0.0175  2.8619
   74CHL1    C9 7919   3.466   6.118   7.230 -0.7137 -1.2600  0.4561
   74CHL1    H9 7920   3.577   6.107   7.220 -0.4926 -1.5352  2.8157
   74CHL1   C10 7921   3.404   6.173   7.096  0.1791 -0.2752  0.3985
   74CHL1   C19 7922   3.252   6.221   7.110 -0.5510 -0.2973 -0.6188
   74CHL1  H19A 7923   3.241   6.294   7.193  2.1163  1.2153 -1.4727
   74CHL1  H19B 7924   3.222   6.271   7.015 -1.3318  1.3226  0.4187
   74CHL1  H19C 7925   3.198   6.127   7.134  0.4601 -0.4108  1.4211
   74CHL1    C1 7926   3.490   6.289   7.039  0.4154 -0.4095  0.0743
   74CHL1   H1A 7927   3.461   6.375   7.103  1.2115  2.0187 -2.5918
   74CHL1   H1B 7928   3.593   6.254   7.058  0.5400  0.0589  0.2676
   74CHL1    C2 7929   3.470   6.334   6.893  0.0609  0.9457  0.5447
   74CHL1   H2A 7930   3.537   6.415   6.857  1.3051  0.0203  0.6970
   74CHL1   H2B 7931   3.362   6.361   6.894 -0.3205 -0.4875  0.1659
   74CHL1   C20 7932   3.554   5.974   7.755  0.9508  0.9419  0.4779
   74CHL1   H20 7933   3.448   5.973   7.787  0.0368 -0.2884 -2.3051
   74CHL1   C21 7934   3.622   6.105   7.790  0.4427  0.6279  0.6442
   74CHL1  H21A 7935   3.570   6.136   7.883 -3.3115 -2.7589 -0.0515
   74CHL1  H21B 7936   3.617   6.185   7.713  1.3049 -0.7588 -0.9350
   74CHL1  H21C 7937   3.731   6.084   7.796  0.2349 -0.0812  2.9087
   74CHL1   C22 7938   3.634   5.860   7.833  0.1507 -0.4412  0.0503
   74CHL1  H22A 7939   3.577   5.765   7.823  2.8512 -1.9546 -2.7188
   74CHL1  H22B 7940   3.730   5.838   7.782 -0.2015 -0.2696 -0.6985
   74CHL1   C23 7941   3.656   5.886   7.983  0.7731  0.4772  0.1727
   74CHL1  H23A 7942   3.718   5.977   7.993 -4.0738  4.5300 -1.7377
   74CHL1  H23B 7943   3.554   5.913   8.018 -0.1931 -2.2792 -0.2895
   74CHL1   C24 7944   3.697   5.759   8.062  0.2707  0.1958  0.2000
   74CHL1  H24A 7945   3.613   5.686   8.057  1.2355 -0.9184 -0.2533
   74CHL1  H24B 7946   3.771   5.725   7.987 -1.7839 -1.0091 -1.4218
   74CHL1   C25 7947   3.755   5.778   8.203 -0.0133  0.5410 -0.1861
   74CHL1   H25 7948   3.802   5.679   8.223  2.2864  1.5935  0.0144
   74CHL1   C26 7949   3.859   5.882   8.230  0.0895 -0.0720 -0.0848
   74CHL1  H26A 7950   3.959   5.863   8.186  0.5655  2.4651 -0.2610
   74CHL1  H26B 7951   3.822   5.979   8.191 -2.3438 -1.2017 -0.7565
   74CHL1  H26C 7952   3.882   5.901   8.337 -1.6227 -0.8706  0.4623
   74CHL1   C27 7953   3.636   5.785   8.306  0.4089 -0.3616  0.0517
   74CHL1  H27A 7954   3.560   5.863   8.284 -0.7460 -1.7128 -0.9469
   74CHL1  H27B 7955   3.583   5.688   8.303 -0.4986  0.0591 -4.3822
   74CHL1  H27C 7956   3.669   5.800   8.411 -1.2856  2.1260  0.3297
   75CHL1    C3 7957   0.058   6.158   6.657 -0.1770 -0.0877 -0.1678
   75CHL1    H3 7958  -0.024   6.094   6.696 -0.7837  0.7322 -0.0564
   75CHL1    O3 7959   0.073   6.120   6.522 -0.4095  0.3330  0.4630
   75CHL1   H3' 7960   0.104   6.196   6.472  0.0044 -0.1200  0.0234
   75CHL1    C4 7961   0.003   6.299   6.655 -0.8932 -0.4355 -0.5140
   75CHL1   H4A 7962   0.063   6.362   6.586  1.0966 -1.4640  0.2050
   75CHL1   H4B 7963  -0.098   6.303   6.609 -1.3273  1.3112  0.4884
   75CHL1    C5 7964   0.007   6.360   6.798  0.1060 -0.1788  0.0819
   75CHL1    C6 7965  -0.103   6.415   6.844 -1.0820 -0.5373  0.0519
   75CHL1    H6 7966  -0.191   6.436   6.782 -0.5579  0.1703 -0.4834
   75CHL1    C7 7967  -0.100   6.493   6.974 -0.2977 -0.3010  0.2069
   75CHL1   H7A 7968  -0.146   6.593   6.956  1.0246  0.1707 -0.6635
   75CHL1   H7B 7969  -0.161   6.436   7.048 -0.0326 -0.2201  0.4906
   75CHL1    C8 7970   0.036   6.510   7.041  0.6591  0.0376  0.2451
   75CHL1    H8 7971   0.101   6.585   6.990  1.1113  1.7543  3.1511
   75CHL1   C14 7972   0.020   6.555   7.188 -0.3009  0.6627  0.3541
   75CHL1   H14 7973  -0.046   6.484   7.242 -0.0509 -0.7965 -1.1997
   75CHL1   C15 7974  -0.030   6.699   7.216 -0.2247  0.2551  0.5583
   75CHL1  H15A 7975   0.027   6.774   7.158  0.4284 -0.3592  0.3927
   75CHL1  H15B 7976  -0.135   6.722   7.187 -0.3678 -1.4371 -0.4621
   75CHL1   C16 7977   0.004   6.729   7.366 -0.5656  0.1415  0.1701
   75CHL1  H16A 7978   0.047   6.831   7.380  1.4984 -0.6667  0.0255
   75CHL1  H16B 7979  -0.087   6.721   7.428  0.5442  1.0012  2.0006
   75CHL1   C17 7980   0.101   6.614   7.403  0.3083  0.0032 -0.0782
   75CHL1   H17 7981   0.037   6.530   7.437 -2.0856  1.0007 -1.7847
   75CHL1   C13 7982   0.153   6.559   7.265  0.0771  0.0734 -0.5421
   75CHL1   C18 7983   0.262   6.661   7.214 -0.0974  0.3381  0.0236
   75CHL1  H18A 7984   0.222   6.763   7.232 -2.6650 -0.6561  0.5282
   75CHL1  H18B 7985   0.359   6.656   7.267 -0.5222 -1.7000  0.7080
   75CHL1  H18C 7986   0.295   6.651   7.109 -2.1779  0.6098 -0.7132
   75CHL1   C12 7987   0.212   6.416   7.264  0.6067 -0.8184 -0.4059
   75CHL1  H12A 7988   0.306   6.403   7.320 -0.8072 -1.8459  1.8886
   75CHL1  H12B 7989   0.128   6.355   7.305 -1.2420  0.3625 -2.1981
   75CHL1   C11 7990   0.226   6.366   7.123 -0.6023  0.5188 -0.4481
   75CHL1  H11A 7991   0.319   6.413   7.083 -0.3071  0.5246  0.2355
   75CHL1  H11B 7992   0.251   6.259   7.138  0.6316  1.0630  1.8561
   75CHL1    C9 7993   0.104   6.375   7.033 -0.2852 -0.7547 -0.4218
   75CHL1    H9 7994   0.028   6.302   7.066  0.5515 -1.3292  0.2808
   75CHL1   C10 7995   0.136   6.337   6.880 -0.4726  0.8543  0.3887
   75CHL1   C19 7996   0.246   6.430   6.820 -0.1717 -0.1838 -0.8587
   75CHL1  H19A 7997   0.243   6.442   6.710  2.8688  0.1431 -0.9912
   75CHL1  H19B 7998   0.234   6.537   6.848 -3.0535 -0.0717 -2.1446
   75CHL1  H19C 7999   0.348   6.402   6.855  1.0038  2.9462 -1.4457
   75CHL1    C1 8000   0.178   6.186   6.870 -0.0563 -0.6008 -0.2895
   75CHL1   H1A 8001   0.275   6.167   6.920 -0.8338 -3.7575  0.2160
   75CHL1   H1B 8002   0.093   6.139   6.923 -0.4248  1.2131  0.7819
   75CHL1    C2 8003   0.196   6.141   6.720  0.3190  0.1056 -0.0848
   75CHL1   H2A 8004   0.228   6.035   6.717 -0.7193 -0.2735  1.0108
   75CHL1   H2B 8005   0.272   6.201   6.667  1.0401 -1.3563 -0.7452
   75CHL1   C20 8006   0.199   6.654   7.516 -0.1208 -0.4401 -0.4696
   75CHL1   H20 8007   0.289   6.706   7.476  0.5249 -1.0062  0.2311
   75CHL1   C21 8008   0.234   6.531   7.599  0.0597  0.8269  0.3370
   75CHL1  H21A 8009   0.148   6.463   7.619  0.7576 -0.9867 -2.2752
   75CHL1  H21B 8010   0.272   6.560   7.699  0.9488 -1.8566  0.8610
   75CHL1  H21C 8011   0.318   6.480   7.547  1.5557  1.7969  1.6898
   75CHL1   C22 8012   0.145   6.762   7.605 -0.2427 -0.5893 -0.4814
   75CHL1  H22A 8013   0.219   6.772   7.688 -0.8645  0.3527 -0.0275
   75CHL1  H22B 8014   0.133   6.860   7.555  2.4510  0.2242  0.3149
   75CHL1   C23 8015   0.022   6.728   7.688  0.3174  0.0705  0.1381
   75CHL1  H23A 8016  -0.055   6.676   7.627 -1.6130  3.1649 -0.2642
   75CHL1  H23B 8017   0.049   6.651   7.764  0.2212  0.3873  0.4957
   75CHL1   C24 8018  -0.031   6.859   7.744  0.1714 -0.9157  0.2669
   75CHL1  H24A 8019  -0.031   6.948   7.678 -1.4584  2.5105  4.4141
   75CHL1  H24B 8020  -0.138   6.842   7.771  0.0456 -0.6311 -0.0587
   75CHL1   C25 8021   0.040   6.916   7.868 -0.2202 -0.1842  0.3904
   75CHL1   H25 8022   0.124   6.982   7.838  1.0649 -1.1155  1.8271
   75CHL1   C26 8023  -0.063   7.002   7.942  0.2764 -0.5190 -0.4655
   75CHL1  H26A 8024  -0.146   6.937   7.977  0.6838 -0.4764  0.6055
   75CHL1  H26B 8025  -0.004   7.055   8.020  1.0742 -1.5075 -0.3743
   75CHL1  H26C 8026  -0.101   7.085   7.879 -1.6591 -1.3833 -0.4980
   75CHL1   C27 8027   0.092   6.811   7.973  0.6579  0.0981  0.1012
   75CHL1  H27A 8028   0.014   6.751   8.024  1.4136  0.5123  1.7878
   75CHL1  H27B 8029   0.173   6.750   7.926 -0.5283  0.2115 -2.2429
   75CHL1  H27C 8030   0.143   6.866   8.055 -1.2315  0.6133  0.9851
   76CHL1    C3 8031   3.302   3.467   7.212  0.5642  0.2508  0.2021
   76CHL1    H3 8032   3.355   3.377   7.251 -0.0347  0.0530  0.5927
   76CHL1    O3 8033   3.276   3.447   7.074 -0.1624  0.3668  0.5304
   76CHL1   H3' 8034   3.345   3.498   7.032 -0.9904  1.2145  0.1728
   76CHL1    C4 8035   3.163   3.489   7.277  0.2664  0.3916  0.5166
   76CHL1   H4A 8036   3.108   3.562   7.214  0.2199  0.5849  0.7792
   76CHL1   H4B 8037   3.113   3.390   7.275  0.1374  0.4610  0.0992
   76CHL1    C5 8038   3.169   3.536   7.422  0.0695 -0.3841 -0.2589
   76CHL1    C6 8039   3.104   3.470   7.524  0.2587 -0.0310  0.1698
   76CHL1    H6 8040   3.037   3.386   7.498  0.7365 -0.1639 -0.6828
   76CHL1    C7 8041   3.108   3.500   7.666  0.6496  0.2157 -0.8792
   76CHL1   H7A 8042   3.006   3.505   7.709  0.7553  1.0501 -0.7140
   76CHL1   H7B 8043   3.153   3.408   7.709 -2.4184 -1.0193 -0.0579
   76CHL1    C8 8044   3.183   3.634   7.692 -0.7882 -0.1603  0.1336
   76CHL1    H8 8045   3.100   3.707   7.679 -0.6370  0.2331  1.2546
   76CHL1   C14 8046   3.224   3.634   7.837 -0.3654  0.5828  0.2460
   76CHL1   H14 8047   3.303   3.557   7.842 -0.0987  0.9334  2.3022
   76CHL1   C15 8048   3.112   3.606   7.940 -0.3256 -0.0820 -0.7953
   76CHL1  H15A 8049   3.028   3.676   7.922  0.1096  0.4482 -0.8061
   76CHL1  H15B 8050   3.068   3.504   7.939 -2.3591  0.7143  0.7677
   76CHL1   C16 8051   3.175   3.644   8.079 -0.4081  0.4603 -0.2888
   76CHL1  H16A 8052   3.097   3.705   8.129  0.9623  1.5120  0.6528
   76CHL1  H16B 8053   3.206   3.557   8.141  0.3294  0.7513 -0.2334
   76CHL1   C17 8054   3.300   3.725   8.042 -0.7058  0.5570  0.3949
   76CHL1   H17 8055   3.377   3.645   8.038  0.3332  1.5789 -3.0230
   76CHL1   C13 8056   3.296   3.762   7.886  0.1739 -0.7821  0.1859
   76CHL1   C18 8057   3.201   3.884   7.871 -0.1362 -0.7457 -0.0417
   76CHL1  H18A 8058   3.181   3.888   7.762 -1.3214 -0.7023  0.1662
   76CHL1  H18B 8059   3.102   3.865   7.918 -0.3972  0.3312 -0.1336
   76CHL1  H18C 8060   3.241   3.980   7.909  1.4588 -0.5062 -2.1175
   76CHL1   C12 8061   3.426   3.775   7.807 -0.0949 -0.0554 -0.0351
   76CHL1  H12A 8062   3.494   3.855   7.843  3.2149 -2.9398  0.6178
   76CHL1  H12B 8063   3.484   3.680   7.811  1.5380  0.9142 -0.2296
   76CHL1   C11 8064   3.394   3.775   7.651 -0.0015 -0.5370 -0.0142
   76CHL1  H11A 8065   3.336   3.868   7.632  0.4835 -0.0521  0.8429
   76CHL1  H11B 8066   3.495   3.782   7.606  0.3062  0.9030  0.8299
   76CHL1    C9 8067   3.307   3.654   7.601 -0.2111  0.0300  0.2759
   76CHL1    H9 8068   3.373   3.568   7.625 -0.1499  0.3232  1.1646
   76CHL1   C10 8069   3.272   3.644   7.452 -0.2513  0.4241  0.3830
   76CHL1   C19 8070   3.219   3.778   7.400 -0.2054 -0.6119  0.0310
   76CHL1  H19A 8071   3.197   3.778   7.291 -0.3854 -1.3832  0.0627
   76CHL1  H19B 8072   3.126   3.802   7.457  1.8767  2.0461  2.6366
   76CHL1  H19C 8073   3.288   3.864   7.418 -0.7182  0.0884 -1.1711
   76CHL1    C1 8074   3.409   3.621   7.378  0.2052 -0.1888  0.5249
   76CHL1   H1A 8075   3.483   3.702   7.398  0.7328  0.2175 -2.6490
   76CHL1   H1B 8076   3.457   3.530   7.420  0.2417  0.7275  2.6257
   76CHL1    C2 8077   3.393   3.589   7.228 -0.0246 -0.5405 -0.5695
   76CHL1   H2A 8078   3.495   3.572   7.189  0.6496 -1.0322  1.3195
   76CHL1   H2B 8079   3.356   3.679   7.175 -0.0248  0.1180  0.5281
   76CHL1   C20 8080   3.349   3.830   8.136  0.3828 -0.0114 -0.9025
   76CHL1   H20 8081   3.419   3.889   8.073  0.7834 -0.0477 -0.4961
   76CHL1   C21 8082   3.431   3.766   8.242 -0.0617 -0.1276 -0.5877
   76CHL1  H21A 8083   3.386   3.690   8.309  1.5547 -1.5149 -0.9957
   76CHL1  H21B 8084   3.464   3.845   8.312  2.0364 -1.9600  0.6176
   76CHL1  H21C 8085   3.521   3.715   8.202 -0.0986 -1.5812  1.0645
   76CHL1   C22 8086   3.233   3.917   8.193 -0.6401  0.3862  0.3784
   76CHL1  H22A 8087   3.144   3.925   8.128 -0.2421 -1.0186 -0.3884
   76CHL1  H22B 8088   3.202   3.860   8.284 -1.9269 -1.3144 -1.0586
   76CHL1   C23 8089   3.289   4.053   8.238  0.5337 -0.4954  0.8914
   76CHL1  H23A 8090   3.346   4.043   8.333  4.4498  1.3540 -1.0197
   76CHL1  H23B 8091   3.359   4.094   8.162 -0.3345 -0.0634  0.2976
   76CHL1   C24 8092   3.167   4.152   8.253  0.3910  0.6870  0.2488
   76CHL1  H24A 8093   3.203   4.257   8.260  3.0201 -0.1101 -0.2257
   76CHL1  H24B 8094   3.118   4.168   8.155 -1.0227 -0.7740  0.6614
   76CHL1   C25 8095   3.064   4.127   8.367 -0.8289  0.2241  1.1934
   76CHL1   H25 8096   3.029   4.021   8.368  0.4950 -0.5117 -3.5322
   76CHL1   C26 8097   3.126   4.165   8.501  0.5833 -0.3427  0.4812
   76CHL1  H26A 8098   3.208   4.092   8.524 -0.3073 -2.3200 -2.1117
   76CHL1  H26B 8099   3.157   4.271   8.488 -0.8954 -0.0912 -1.3112
   76CHL1  H26C 8100   3.048   4.158   8.580 -0.0154  2.1692  0.1687
   76CHL1   C27 8101   2.939   4.200   8.331 -0.4693 -0.4748  0.2392
   76CHL1  H27A 8102   2.854   4.171   8.396 -0.6797 -0.9826 -0.2548
   76CHL1  H27B 8103   2.954   4.309   8.343 -0.9743 -0.3785  0.0127
   76CHL1  H27C 8104   2.901   4.194   8.227  0.8053  1.6706 -0.4051
   77CHL1    C3 8105   5.545   0.971   6.866 -0.5497  0.1113  0.0428
   77CHL1    H3 8106   5.575   0.864   6.859 -0.4359  0.0882  0.7951
   77CHL1    O3 8107   5.561   1.038   6.749  0.9153 -0.5996 -0.2889
   77CHL1   H3' 8108   5.516   0.993   6.678  0.7677 -0.7407 -0.1063
   77CHL1    C4 8109   5.400   0.980   6.909  0.1599 -0.0520  0.2870
   77CHL1   H4A 8110   5.367   1.085   6.894  0.5558 -0.2682 -2.7359
   77CHL1   H4B 8111   5.341   0.926   6.831 -0.2417  0.0075  0.5503
   77CHL1    C5 8112   5.379   0.935   7.050 -0.2410  0.1417 -0.4316
   77CHL1    C6 8113   5.295   0.832   7.072  0.1327 -0.1232  0.2631
   77CHL1    H6 8114   5.240   0.789   6.987  1.4709 -0.4080 -0.4860
   77CHL1    C7 8115   5.269   0.785   7.212 -0.2634  0.0481  0.0080
   77CHL1   H7A 8116   5.161   0.762   7.218  0.0031 -1.2556  0.3163
   77CHL1   H7B 8117   5.327   0.692   7.231 -0.8801 -0.9280 -2.4674
   77CHL1    C8 8118   5.304   0.883   7.326 -1.2332 -0.4077 -0.3942
   77CHL1    H8 8119   5.224   0.960   7.327 -0.7964  0.0657  1.3051
   77CHL1   C14 8120   5.292   0.822   7.472 -0.1228 -0.6680 -0.7361
   77CHL1   H14 8121   5.358   0.733   7.476  1.0795  0.1949 -0.5844
   77CHL1   C15 8122   5.155   0.762   7.516  0.0877 -0.0910 -0.3853
   77CHL1  H15A 8123   5.092   0.849   7.488 -2.0137 -1.6471 -0.7660
   77CHL1  H15B 8124   5.139   0.668   7.458 -0.0670 -1.1546  1.3112
   77CHL1   C16 8125   5.181   0.742   7.665 -0.0079  0.1068  0.2136
   77CHL1  H16A 8126   5.089   0.764   7.723  0.4066  0.9222  0.5777
   77CHL1  H16B 8127   5.210   0.636   7.684 -0.5795 -0.2467 -0.7510
   77CHL1   C17 8128   5.306   0.824   7.702 -0.0936 -0.2011 -0.1217
   77CHL1   H17 8129   5.396   0.758   7.705  0.1533  0.1652  0.9822
   77CHL1   C13 8130   5.332   0.915   7.582  0.9447  0.1557 -0.4737
   77CHL1   C18 8131   5.235   1.040   7.589 -0.2285  0.0006 -0.2544
   77CHL1  H18A 8132   5.135   1.012   7.629 -1.3615  1.6584 -1.7423
   77CHL1  H18B 8133   5.275   1.112   7.664  0.1460 -1.3545  0.8845
   77CHL1  H18C 8134   5.235   1.084   7.487  2.0980  1.8529  0.4665
   77CHL1   C12 8135   5.475   0.953   7.558 -1.0182 -0.0394 -1.0413
   77CHL1  H12A 8136   5.520   1.007   7.644  0.3588 -3.5673  0.6370
   77CHL1  H12B 8137   5.531   0.858   7.544  0.1683  0.0549  2.3138
   77CHL1   C11 8138   5.497   1.024   7.425 -0.7012 -0.2904  0.7351
   77CHL1  H11A 8139   5.447   1.123   7.424  1.1710  0.6983  0.3133
   77CHL1  H11B 8140   5.606   1.044   7.423 -0.8855  0.9980  2.0272
   77CHL1    C9 8141   5.447   0.940   7.299 -0.4436  0.5458 -0.6358
   77CHL1    H9 8142   5.509   0.848   7.300  0.3093  1.0265  1.1376
   77CHL1   C10 8143   5.453   1.007   7.164  0.2954  0.0381 -0.4551
   77CHL1   C19 8144   5.402   1.155   7.179 -0.6878  0.2776  0.0446
   77CHL1  H19A 8145   5.475   1.221   7.230  1.0931  0.5210 -2.5835
   77CHL1  H19B 8146   5.390   1.208   7.082  2.6358 -0.3280 -0.8130
   77CHL1  H19C 8147   5.304   1.160   7.231 -0.8496 -0.1636 -0.2125
   77CHL1    C1 8148   5.601   1.009   7.115  0.7676  0.3055 -1.2951
   77CHL1   H1A 8149   5.661   1.072   7.185 -1.8637  0.7040  0.7458
   77CHL1   H1B 8150   5.639   0.907   7.135  0.4515  0.6590  1.6060
   77CHL1    C2 8151   5.630   1.050   6.967 -0.1575 -0.1958 -0.6601
   77CHL1   H2A 8152   5.735   1.023   6.946 -0.3459 -2.4539  0.8802
   77CHL1   H2B 8153   5.628   1.160   6.950  1.8447  0.4227  2.2958
   77CHL1   C20 8154   5.291   0.880   7.845 -0.6265  0.1435 -0.1437
   77CHL1   H20 8155   5.193   0.929   7.861 -0.5824  0.7164 -1.4433
   77CHL1   C21 8156   5.412   0.973   7.868  0.4081  0.6901 -0.3707
   77CHL1  H21A 8157   5.505   0.913   7.853  0.0919  0.2746 -0.6882
   77CHL1  H21B 8158   5.412   1.010   7.973 -0.8215  0.4918 -0.2794
   77CHL1  H21C 8159   5.411   1.064   7.806  0.2263  1.5404  0.8385
   77CHL1   C22 8160   5.292   0.767   7.952  0.0296  0.4372 -0.3393
   77CHL1  H22A 8161   5.238   0.680   7.909 -0.7945  1.5054 -1.5545
   77CHL1  H22B 8162   5.396   0.739   7.981  0.9047  3.3493 -0.2899
   77CHL1   C23 8163   5.224   0.803   8.078  0.2179  0.4582 -0.8863
   77CHL1  H23A 8164   5.245   0.903   8.123  0.2081 -0.0869  0.3705
   77CHL1  H23B 8165   5.115   0.807   8.058  0.0704  2.6941  0.0159
   77CHL1   C24 8166   5.260   0.709   8.197  0.1465 -0.1018 -0.0954
   77CHL1  H24A 8167   5.246   0.601   8.175 -1.2468  0.1025 -0.2680
   77CHL1  H24B 8168   5.366   0.733   8.223  0.0050  1.7952 -1.0444
   77CHL1   C25 8169   5.186   0.740   8.336 -0.0609 -0.0843  0.3521
   77CHL1   H25 8170   5.239   0.696   8.423  1.0228  2.7140  1.2356
   77CHL1   C26 8171   5.172   0.892   8.380 -0.6122  0.1697 -0.2947
   77CHL1  H26A 8172   5.093   0.940   8.320  0.6878  3.6629  0.5465
   77CHL1  H26B 8173   5.152   0.899   8.489 -0.4596 -2.1827 -0.0619
   77CHL1  H26C 8174   5.265   0.946   8.349 -1.5098  0.8756 -1.8465
   77CHL1   C27 8175   5.042   0.673   8.333 -0.1562 -0.0945 -0.1502
   77CHL1  H27A 8176   5.055   0.563   8.318 -3.4761 -0.8858  1.6296
   77CHL1  H27B 8177   4.977   0.703   8.418  1.7573  1.3703  0.8585
   77CHL1  H27C 8178   4.997   0.708   8.238 -2.0797  1.5568  1.2789
   78CHL1    C3 8179   1.290   4.001   6.501 -0.6096  0.2122  0.2580
   78CHL1    H3 8180   1.267   4.098   6.550 -1.6360 -2.0162  4.7659
   78CHL1    O3 8181   1.272   4.004   6.363 -0.1438 -0.2999  0.3024
   78CHL1   H3' 8182   1.352   4.047   6.330 -0.4905  0.6041  0.6040
   78CHL1    C4 8183   1.441   3.973   6.529  1.1896 -0.2958 -0.1900
   78CHL1   H4A 8184   1.469   3.876   6.484  0.3862  0.2300 -1.9391
   78CHL1   H4B 8185   1.496   4.054   6.476  1.7678 -1.3744 -1.2907
   78CHL1    C5 8186   1.472   3.983   6.680 -0.1521  0.4218 -0.1880
   78CHL1    C6 8187   1.568   4.064   6.726 -0.3637  0.8747  0.0440
   78CHL1    H6 8188   1.641   4.115   6.662  0.0983  1.6851  1.2016
   78CHL1    C7 8189   1.587   4.068   6.875 -0.4721  0.1855  0.1938
   78CHL1   H7A 8190   1.695   4.068   6.901 -1.0127  0.9081  2.7345
   78CHL1   H7B 8191   1.551   4.164   6.918  1.1571  0.4582  1.0461
   78CHL1    C8 8192   1.533   3.942   6.954 -0.0602 -0.4832 -0.2512
   78CHL1    H8 8193   1.602   3.859   6.927  1.3123  0.0952  1.2910
   78CHL1   C14 8194   1.544   3.983   7.100 -0.1122  0.4946  0.2496
   78CHL1   H14 8195   1.493   4.079   7.122 -0.4819  0.1841  0.7766
   78CHL1   C15 8196   1.685   4.011   7.151  0.2366 -0.8244  0.1143
   78CHL1  H15A 8197   1.757   3.928   7.132  0.8945 -0.7170  1.9770
   78CHL1  H15B 8198   1.721   4.108   7.110 -1.0636 -0.7873 -1.0310
   78CHL1   C16 8199   1.663   4.009   7.307  0.0955 -0.2907  0.4865
   78CHL1  H16A 8200   1.747   3.950   7.348  0.8336  0.8059  0.6116
   78CHL1  H16B 8201   1.671   4.113   7.347 -1.2010  0.2921 -0.6675
   78CHL1   C17 8202   1.520   3.942   7.334 -0.1355  0.9650 -0.4612
   78CHL1   H17 8203   1.447   4.022   7.354  0.0264  0.7369  1.1292
   78CHL1   C13 8204   1.485   3.876   7.194 -1.4819  0.5243 -0.6239
   78CHL1   C18 8205   1.571   3.741   7.176  0.4838 -0.8048  0.0897
   78CHL1  H18A 8206   1.669   3.745   7.228  0.3245 -2.6825  0.6175
   78CHL1  H18B 8207   1.527   3.644   7.211  1.0700 -1.6814 -1.5020
   78CHL1  H18C 8208   1.593   3.725   7.068 -0.4917 -0.8062 -0.1205
   78CHL1   C12 8209   1.340   3.858   7.157 -0.0563  0.2636 -0.4346
   78CHL1  H12A 8210   1.304   3.779   7.226  0.7692 -2.2338 -2.7035
   78CHL1  H12B 8211   1.307   3.958   7.194 -0.6526  0.1933 -0.7615
   78CHL1   C11 8212   1.315   3.821   7.008  0.2195  0.3010  0.2669
   78CHL1  H11A 8213   1.368   3.726   6.984 -0.0169  0.8974 -3.1005
   78CHL1  H11B 8214   1.207   3.806   6.985  0.7284 -0.2831 -1.9180
   78CHL1    C9 8215   1.386   3.920   6.913  0.0553  0.7826  0.2727
   78CHL1    H9 8216   1.349   4.024   6.927  2.0598  1.2897  2.3761
   78CHL1   C10 8217   1.376   3.893   6.762  0.5465  0.1438 -0.6134
   78CHL1   C19 8218   1.409   3.743   6.729 -0.0850 -0.6802 -0.1053
   78CHL1  H19A 8219   1.509   3.704   6.757  0.4939  1.9034  1.9536
   78CHL1  H19B 8220   1.332   3.686   6.786 -0.7900  1.0715  0.7818
   78CHL1  H19C 8221   1.402   3.728   6.620 -2.6001  0.4925 -0.1957
   78CHL1    C1 8222   1.230   3.911   6.722  0.6099 -0.7917  0.5202
   78CHL1   H1A 8223   1.167   3.834   6.772 -0.6985  0.9381  1.6680
   78CHL1   H1B 8224   1.193   4.011   6.752  2.9651  0.0234  0.8918
   78CHL1    C2 8225   1.198   3.898   6.566 -0.3034  0.1292  0.9919
   78CHL1   H2A 8226   1.095   3.929   6.538  0.9138  1.5790 -2.4107
   78CHL1   H2B 8227   1.213   3.794   6.531  3.4093  1.0964 -0.9184
   78CHL1   C20 8228   1.515   3.831   7.446  0.2456 -0.1045  0.1367
   78CHL1   H20 8229   1.601   3.764   7.423  1.1022  1.1442 -0.4391
   78CHL1   C21 8230   1.390   3.742   7.457  0.4121  0.7408 -0.3994
   78CHL1  H21A 8231   1.376   3.661   7.383 -1.7806  1.1777 -0.5204
   78CHL1  H21B 8232   1.291   3.788   7.440 -2.0168 -4.3788 -2.4120
   78CHL1  H21C 8233   1.395   3.693   7.557 -0.7766  0.3791 -0.5051
   78CHL1   C22 8234   1.545   3.892   7.585  0.0165 -1.0829 -0.7863
   78CHL1  H22A 8235   1.593   3.991   7.571 -0.0934 -0.7669  0.8176
   78CHL1  H22B 8236   1.449   3.919   7.633  1.3586  2.6989  0.1435
   78CHL1   C23 8237   1.618   3.803   7.681  0.0197 -0.7494 -0.4935
   78CHL1  H23A 8238   1.569   3.710   7.717  1.8326 -1.0404  1.3983
   78CHL1  H23B 8239   1.713   3.774   7.631 -1.2263 -2.3759 -2.0501
   78CHL1   C24 8240   1.647   3.873   7.818  0.5851 -0.0759 -0.6808
   78CHL1  H24A 8241   1.690   3.973   7.795  1.5030 -0.2775  0.0739
   78CHL1  H24B 8242   1.551   3.896   7.868  0.9084 -1.9894  0.9583
   78CHL1   C25 8243   1.716   3.787   7.923 -0.0569 -0.0531 -0.1061
   78CHL1   H25 8244   1.666   3.690   7.944 -0.0826 -0.1824 -0.7365
   78CHL1   C26 8245   1.866   3.755   7.896 -0.4250 -0.3139 -0.4349
   78CHL1  H26A 8246   1.922   3.847   7.866 -0.1371 -0.0771  0.7814
   78CHL1  H26B 8247   1.914   3.722   7.990  1.1465  3.1349  0.1540
   78CHL1  H26C 8248   1.868   3.680   7.814 -0.8341  0.4142 -1.1353
   78CHL1   C27 8249   1.709   3.860   8.052 -0.4183 -0.6752  0.1028
   78CHL1  H27A 8250   1.748   3.962   8.029 -0.8940 -0.9032 -1.9859
   78CHL1  H27B 8251   1.601   3.870   8.078 -0.5323 -2.3019  0.3313
   78CHL1  H27C 8252   1.768   3.813   8.133  1.8519  1.1120 -0.4087
   79CHL1    C3 8253   4.825   1.185   7.091 -0.0271 -0.9850 -0.1659
   79CHL1    H3 8254   4.804   1.082   7.056 -0.9830 -0.9699  0.3175
   79CHL1    O3 8255   4.846   1.271   6.975  0.4587 -0.1187 -0.0163
   79CHL1   H3' 8256   4.820   1.353   7.019  1.2205 -1.1869  2.6647
   79CHL1    C4 8257   4.682   1.230   7.146 -0.2771  0.7252 -0.7773
   79CHL1   H4A 8258   4.694   1.338   7.173  0.8475  1.6605 -4.4339
   79CHL1   H4B 8259   4.605   1.232   7.067 -0.4165 -0.3467 -0.6737
   79CHL1    C5 8260   4.658   1.160   7.283 -0.1027  0.0462 -0.4986
   79CHL1    C6 8261   4.546   1.096   7.301 -0.0435  0.3712 -0.8917
   79CHL1    H6 8262   4.470   1.081   7.224 -0.5252 -1.7500 -0.0478
   79CHL1    C7 8263   4.511   1.040   7.436 -0.6896  0.4269  0.1079
   79CHL1   H7A 8264   4.411   1.076   7.469  0.7096  2.4691  2.5019
   79CHL1   H7B 8265   4.510   0.929   7.434 -0.3668  0.4091  0.7424
   79CHL1    C8 8266   4.611   1.085   7.551 -0.3665  0.0797  0.4723
   79CHL1    H8 8267   4.576   1.187   7.580 -2.9708 -0.0914 -1.7229
   79CHL1   C14 8268   4.597   0.995   7.666 -0.5666  0.0367  1.1660
   79CHL1   H14 8269   4.625   0.899   7.618 -3.4624 -0.4872  0.3468
   79CHL1   C15 8270   4.455   0.976   7.720 -0.4642  1.0517  0.2944
   79CHL1  H15A 8271   4.409   1.075   7.738 -1.4028  0.6043  0.4266
   79CHL1  H15B 8272   4.388   0.913   7.657  0.4452 -1.3083  1.5544
   79CHL1   C16 8273   4.478   0.910   7.853 -0.0737  0.6456 -0.6763
   79CHL1  H16A 8274   4.437   0.983   7.926 -0.6249  0.6010 -0.9363
   79CHL1  H16B 8275   4.446   0.804   7.867  0.4568  0.4064 -1.2102
   79CHL1   C17 8276   4.635   0.907   7.867  0.3960 -1.0049  0.5555
   79CHL1   H17 8277   4.674   0.817   7.816  1.0288 -1.7768  2.3048
   79CHL1   C13 8278   4.689   1.024   7.788  1.0175 -1.1017  0.4468
   79CHL1   C18 8279   4.654   1.165   7.843  0.1252  0.8806  0.4006
   79CHL1  H18A 8280   4.690   1.243   7.772 -1.2763 -1.5390 -3.3008
   79CHL1  H18B 8281   4.546   1.193   7.847  0.2084  1.3232 -0.2887
   79CHL1  H18C 8282   4.695   1.172   7.946 -2.1251  2.5490  1.2678
   79CHL1   C12 8283   4.832   1.020   7.741  0.2176  0.0853  0.5614
   79CHL1  H12A 8284   4.905   1.033   7.824  0.2638 -1.5479  0.8076
   79CHL1  H12B 8285   4.866   0.920   7.706  2.0295 -0.2828  3.0503
   79CHL1   C11 8286   4.859   1.106   7.620  0.3844  0.5490  0.7407
   79CHL1  H11A 8287   4.843   1.209   7.660 -2.2365 -0.0821  1.4790
   79CHL1  H11B 8288   4.964   1.096   7.586 -0.1620  1.3501 -1.3503
   79CHL1    C9 8289   4.754   1.090   7.507  0.1349  0.1527  1.3407
   79CHL1    H9 8290   4.773   0.986   7.470 -1.6596  0.3153 -0.1434
   79CHL1   C10 8291   4.774   1.182   7.381 -0.1937  0.0556 -0.2107
   79CHL1   C19 8292   4.771   1.330   7.424  0.2557  0.6148  0.9280
   79CHL1  H19A 8293   4.789   1.400   7.340 -0.0660 -0.3433  0.0426
   79CHL1  H19B 8294   4.679   1.352   7.482 -0.6603 -2.0558  0.6382
   79CHL1  H19C 8295   4.851   1.353   7.498 -0.0764  1.6076  0.9905
   79CHL1    C1 8296   4.909   1.142   7.319  0.1947 -0.7760 -0.6603
   79CHL1   H1A 8297   4.990   1.178   7.385  0.1002 -0.1759 -0.8602
   79CHL1   H1B 8298   4.919   1.032   7.326  0.7151 -0.6210  1.9380
   79CHL1    C2 8299   4.947   1.196   7.177 -0.3592  0.0847 -0.2188
   79CHL1   H2A 8300   5.027   1.136   7.129 -0.7713 -0.9075  0.3157
   79CHL1   H2B 8301   4.986   1.300   7.188 -1.7642  0.6330 -0.2118
   79CHL1   C20 8302   4.677   0.913   8.019  0.4877 -0.0972  0.2664
   79CHL1   H20 8303   4.654   1.010   8.066  2.4247  1.2596 -1.4283
   79CHL1   C21 8304   4.827   0.896   8.035 -0.4720  1.1098 -0.0695
   79CHL1  H21A 8305   4.867   0.865   8.134 -1.8567  1.1823  0.5325
   79CHL1  H21B 8306   4.885   0.987   8.008 -3.2753  2.5724 -1.4783
   79CHL1  H21C 8307   4.857   0.810   7.971 -0.8498 -0.7432  2.0733
   79CHL1   C22 8308   4.607   0.800   8.107  0.0980 -0.2409 -0.2811
   79CHL1  H22A 8309   4.498   0.798   8.085 -0.0392 -1.5872  0.4028
   79CHL1  H22B 8310   4.643   0.701   8.070 -1.5060 -0.9235 -0.0694
   79CHL1   C23 8311   4.618   0.805   8.257 -0.4626 -0.1489  0.3274
   79CHL1  H23A 8312   4.725   0.803   8.286 -0.0788 -1.1489 -1.0823
   79CHL1  H23B 8313   4.578   0.901   8.297 -1.8216 -0.6386  0.1877
   79CHL1   C24 8314   4.538   0.693   8.318  0.0384  0.4095 -0.8634
   79CHL1  H24A 8315   4.431   0.705   8.289  0.1360 -0.9354 -1.9190
   79CHL1  H24B 8316   4.568   0.591   8.283 -4.0815 -3.1972  4.4201
   79CHL1   C25 8317   4.558   0.685   8.468  0.5606  0.4024  0.8405
   79CHL1   H25 8318   4.668   0.697   8.479  0.9271  0.1189 -1.8643
   79CHL1   C26 8319   4.477   0.784   8.543 -0.0487  0.2969  0.4747
   79CHL1  H26A 8320   4.534   0.879   8.531  2.0926 -1.0518 -0.5690
   79CHL1  H26B 8321   4.371   0.788   8.510  0.1147 -1.1213 -0.2782
   79CHL1  H26C 8322   4.501   0.763   8.649  2.8141  0.3183 -0.0974
   79CHL1   C27 8323   4.509   0.543   8.511 -0.1222  0.5410  0.0510
   79CHL1  H27A 8324   4.527   0.526   8.620  2.3684  4.1840  0.3952
   79CHL1  H27B 8325   4.405   0.533   8.474 -0.1924 -0.6536  0.5232
   79CHL1  H27C 8326   4.568   0.463   8.462  0.7354  1.8765 -1.1773
   80CHL1    C3 8327   4.380   3.152   7.114  0.1203  0.2657  0.0540
   80CHL1    H3 8328   4.465   3.081   7.122  1.6697  1.9116 -0.9819
   80CHL1    O3 8329   4.413   3.232   7.003  0.5622  0.4346 -0.7251
   80CHL1   H3' 8330   4.342   3.295   6.991  1.5023  1.6071 -0.2537
   80CHL1    C4 8331   4.251   3.083   7.081 -0.1607 -0.6519 -0.4240
   80CHL1   H4A 8332   4.185   3.162   7.040  1.5124  0.2662 -1.5125
   80CHL1   H4B 8333   4.258   3.010   6.997 -0.8903 -0.8593 -0.3098
   80CHL1    C5 8334   4.189   3.018   7.205  0.1147  0.0350  0.3325
   80CHL1    C6 8335   4.180   2.884   7.215 -0.0405  0.4300 -0.6543
   80CHL1    H6 8336   4.199   2.819   7.128 -2.6680 -0.1252 -0.8953
   80CHL1    C7 8337   4.125   2.805   7.334 -0.5601  0.1803  0.4100
   80CHL1   H7A 8338   4.043   2.737   7.302 -1.0715  1.6028 -1.4951
   80CHL1   H7B 8339   4.204   2.741   7.377  1.3767  1.4940 -1.0231
   80CHL1    C8 8340   4.064   2.901   7.449 -0.1331 -0.8227  0.8596
   80CHL1    H8 8341   3.962   2.930   7.415  0.9931  2.0114 -0.4557
   80CHL1   C14 8342   4.060   2.836   7.584 -0.3472 -0.9624 -0.1832
   80CHL1   H14 8343   4.166   2.833   7.616 -0.2054  2.9385  0.1727
   80CHL1   C15 8344   4.005   2.692   7.598  0.2498 -0.1041  0.2544
   80CHL1  H15A 8345   3.924   2.686   7.523 -1.1718 -0.2833  1.7299
   80CHL1  H15B 8346   4.082   2.613   7.586  1.4136  1.2135 -1.3156
   80CHL1   C16 8347   3.949   2.680   7.737 -0.5625 -0.0379 -0.5321
   80CHL1  H16A 8348   3.842   2.660   7.755 -0.7210  1.6602  0.7186
   80CHL1  H16B 8349   4.007   2.600   7.788  2.8258  1.7685 -1.1998
   80CHL1   C17 8350   3.987   2.818   7.812  0.2356 -0.2612 -0.0208
   80CHL1   H17 8351   4.090   2.809   7.853  0.7160  0.6874 -0.9714
   80CHL1   C13 8352   3.985   2.920   7.691  0.2398  0.0539 -0.0619
   80CHL1   C18 8353   3.833   2.945   7.652 -0.4125  0.2795  0.0003
   80CHL1  H18A 8354   3.776   2.856   7.620 -0.3621  1.1460 -2.7532
   80CHL1  H18B 8355   3.775   2.993   7.734 -0.9241  0.1114 -0.2629
   80CHL1  H18C 8356   3.843   3.017   7.568  0.5016  0.3033  0.1217
   80CHL1   C12 8357   4.073   3.050   7.706  0.5267  0.2401  0.2181
   80CHL1  H12A 8358   4.022   3.117   7.778 -1.5778 -0.0213 -0.9671
   80CHL1  H12B 8359   4.179   3.026   7.730  0.6947  0.3478 -0.4003
   80CHL1   C11 8360   4.090   3.123   7.576  0.2577  0.1028  0.1738
   80CHL1  H11A 8361   3.988   3.155   7.545 -0.9622 -1.4509  2.2776
   80CHL1  H11B 8362   4.152   3.214   7.590 -2.1865  2.0629 -1.0362
   80CHL1    C9 8363   4.143   3.034   7.462 -0.1630 -0.2639  0.4772
   80CHL1    H9 8364   4.244   3.002   7.495  0.2124 -0.7379 -1.0504
   80CHL1   C10 8365   4.178   3.105   7.329  0.8331 -0.6136  0.3043
   80CHL1   C19 8366   4.060   3.202   7.312  0.5001 -0.3761  0.1489
   80CHL1  H19A 8367   3.963   3.148   7.315  0.3659 -0.1022  1.8849
   80CHL1  H19B 8368   4.064   3.279   7.392  2.1508 -0.8136  0.5299
   80CHL1  H19C 8369   4.071   3.253   7.214 -0.7013 -0.7980 -0.2206
   80CHL1    C1 8370   4.317   3.177   7.346 -0.1434  0.1992 -0.1943
   80CHL1   H1A 8371   4.307   3.232   7.442  2.4215 -0.7986  0.7470
   80CHL1   H1B 8372   4.387   3.092   7.364 -1.1317 -0.5673  0.1662
   80CHL1    C2 8373   4.373   3.255   7.235 -0.3516  0.4260  0.8120
   80CHL1   H2A 8374   4.479   3.285   7.249 -0.4751  1.6277 -0.5615
   80CHL1   H2B 8375   4.310   3.340   7.202 -0.3669  0.0064 -0.2920
   80CHL1   C20 8376   3.897   2.844   7.933 -0.3557 -0.5226  0.3958
   80CHL1   H20 8377   3.796   2.882   7.904  0.4028  1.2392 -0.1114
   80CHL1   C21 8378   3.964   2.945   8.023  0.3683 -0.4045  0.3309
   80CHL1  H21A 8379   4.017   3.019   7.959 -0.7538  0.1766  0.0436
   80CHL1  H21B 8380   4.053   2.899   8.070  2.3309 -0.4935 -3.1450
   80CHL1  H21C 8381   3.893   2.997   8.091 -0.2024 -1.2572  0.3927
   80CHL1   C22 8382   3.859   2.725   8.031  0.5934  0.6944  0.1235
   80CHL1  H22A 8383   3.791   2.663   7.969  0.8037 -0.8086  1.3143
   80CHL1  H22B 8384   3.953   2.672   8.058  0.0179  0.6794  2.2884
   80CHL1   C23 8385   3.760   2.767   8.146 -1.0099 -0.0983 -0.0881
   80CHL1  H23A 8386   3.830   2.800   8.225  0.5703  0.2321 -1.5612
   80CHL1  H23B 8387   3.687   2.838   8.102 -0.7746  0.0938 -0.1708
   80CHL1   C24 8388   3.680   2.642   8.202 -0.2544  0.2768  0.6094
   80CHL1  H24A 8389   3.614   2.626   8.114 -0.6589  0.4905  0.8695
   80CHL1  H24B 8390   3.751   2.560   8.226  0.0514  0.6457  0.9785
   80CHL1   C25 8391   3.576   2.652   8.314  0.1455  0.2015  0.7716
   80CHL1   H25 8392   3.505   2.735   8.292  0.4294  0.2575  0.0538
   80CHL1   C26 8393   3.508   2.513   8.316  0.1934 -0.2463 -0.2954
   80CHL1  H26A 8394   3.452   2.503   8.412 -0.4294  1.2717 -0.4698
   80CHL1  H26B 8395   3.433   2.511   8.233  0.7309 -1.2903 -0.7652
   80CHL1  H26C 8396   3.576   2.429   8.292 -1.4052 -1.8156  0.4181
   80CHL1   C27 8397   3.640   2.653   8.453  0.6422 -1.0844  0.2447
   80CHL1  H27A 8398   3.566   2.651   8.536 -1.7969  1.4023 -1.6806
   80CHL1  H27B 8399   3.718   2.574   8.460  1.6495 -0.0679  1.0014
   80CHL1  H27C 8400   3.703   2.744   8.464 -1.3322  0.1053  3.0424
   81CHL1    C3 8401   0.299   1.320   6.753  0.3377  0.2210 -0.5072
   81CHL1    H3 8402   0.358   1.414   6.758 -0.4942  0.6803  1.3020
   81CHL1    O3 8403   0.267   1.291   6.620  0.0504  0.7352  0.6616
   81CHL1   H3' 8404   0.351   1.268   6.580  1.0525  2.3845  1.6413
   81CHL1    C4 8405   0.374   1.202   6.814 -1.0242  0.7648 -0.5469
   81CHL1   H4A 8406   0.312   1.113   6.789 -0.2312  0.2455 -0.7035
   81CHL1   H4B 8407   0.464   1.182   6.753  0.5185  1.2573  1.4556
   81CHL1    C5 8408   0.405   1.213   6.960  0.1663 -1.1569 -0.4996
   81CHL1    C6 8409   0.527   1.191   7.009 -0.4480  0.3591  0.1911
   81CHL1    H6 8410   0.609   1.170   6.939 -0.3793  0.9921  0.0744
   81CHL1    C7 8411   0.559   1.205   7.157 -0.2176 -0.1051  0.0293
   81CHL1   H7A 8412   0.625   1.120   7.186  1.7692  1.4033  0.0685
   81CHL1   H7B 8413   0.619   1.297   7.169 -1.3290  0.7601 -0.8785
   81CHL1    C8 8414   0.440   1.211   7.253 -0.3933  0.4738 -0.4419
   81CHL1    H8 8415   0.394   1.110   7.260  1.0379 -0.1849 -0.3154
   81CHL1   C14 8416   0.492   1.254   7.396  0.5980 -1.1586  0.7481
   81CHL1   H14 8417   0.532   1.356   7.376 -0.5077 -0.4872  1.7721
   81CHL1   C15 8418   0.609   1.187   7.467 -0.3100  0.3107 -1.1283
   81CHL1  H15A 8419   0.580   1.080   7.464 -0.2680  0.2718 -0.3068
   81CHL1  H15B 8420   0.704   1.207   7.413  0.2794  1.4329  0.2697
   81CHL1   C16 8421   0.596   1.238   7.614 -0.0050  0.3136  0.5029
   81CHL1  H16A 8422   0.605   1.152   7.683 -1.0356  1.8719  2.6901
   81CHL1  H16B 8423   0.685   1.299   7.641  0.2040 -0.0049  0.5423
   81CHL1   C17 8424   0.462   1.323   7.619  1.1165  0.1745  0.6419
   81CHL1   H17 8425   0.493   1.427   7.596 -2.1278  0.7208 -1.9635
   81CHL1   C13 8426   0.378   1.274   7.497 -0.0825  0.1973  0.7310
   81CHL1   C18 8427   0.309   1.140   7.509 -0.1609  0.0805 -1.1059
   81CHL1  H18A 8428   0.372   1.069   7.567 -0.9026 -0.0768 -0.4693
   81CHL1  H18B 8429   0.218   1.160   7.570  0.5409 -0.0517  0.0074
   81CHL1  H18C 8430   0.271   1.091   7.417  0.4107 -0.2848 -1.1505
   81CHL1   C12 8431   0.270   1.372   7.441 -0.5965  0.3081  0.2838
   81CHL1  H12A 8432   0.181   1.373   7.508 -1.5273  1.6404 -0.9193
   81CHL1  H12B 8433   0.315   1.473   7.448  2.9745 -0.9406 -1.8948
   81CHL1   C11 8434   0.226   1.335   7.304 -0.5246  0.2981 -0.0267
   81CHL1  H11A 8435   0.158   1.248   7.319  2.3514 -2.2487 -0.4892
   81CHL1  H11B 8436   0.159   1.411   7.259 -0.5589  0.1576 -0.2155
   81CHL1    C9 8437   0.336   1.303   7.200 -0.3453 -0.6049  0.0907
   81CHL1    H9 8438   0.383   1.400   7.171 -3.3447  1.8950  2.8427
   81CHL1   C10 8439   0.291   1.263   7.056  0.6202 -0.9513  0.1380
   81CHL1   C19 8440   0.184   1.149   7.075 -0.2534 -0.1680  0.0423
   81CHL1  H19A 8441   0.086   1.196   7.100 -0.0122  0.1035  0.5054
   81CHL1  H19B 8442   0.155   1.096   6.982 -3.2758  0.0208  0.7564
   81CHL1  H19C 8443   0.210   1.074   7.152 -0.2151  0.3884  0.5843
   81CHL1    C1 8444   0.212   1.386   6.984 -0.5556  0.5884 -0.0466
   81CHL1   H1A 8445   0.119   1.410   7.041 -0.5122 -3.0995  1.8722
   81CHL1   H1B 8446   0.286   1.467   7.001  0.0496 -0.2114  1.2940
   81CHL1    C2 8447   0.177   1.343   6.839 -0.3109 -0.6666 -0.7950
   81CHL1   H2A 8448   0.115   1.417   6.783  2.0467  0.0047 -2.6806
   81CHL1   H2B 8449   0.108   1.256   6.838 -0.5340 -0.5371  0.5468
   81CHL1   C20 8450   0.403   1.326   7.758  0.0734  0.4238 -0.0613
   81CHL1   H20 8451   0.355   1.226   7.771 -1.3445  1.0180 -0.5392
   81CHL1   C21 8452   0.300   1.433   7.765 -0.1040  0.1644  0.6883
   81CHL1  H21A 8453   0.210   1.376   7.736  0.3911 -1.5964  2.4364
   81CHL1  H21B 8454   0.331   1.514   7.695  2.3242 -0.0309  1.4475
   81CHL1  H21C 8455   0.294   1.474   7.868  0.4187  1.7919  0.1169
   81CHL1   C22 8456   0.490   1.326   7.884 -0.3347 -0.0103 -0.2588
   81CHL1  H22A 8457   0.431   1.329   7.978 -0.8531  1.1800 -0.6030
   81CHL1  H22B 8458   0.546   1.230   7.884 -0.1211  0.0950  0.7777
   81CHL1   C23 8459   0.598   1.437   7.897 -0.0629  0.1773  0.2989
   81CHL1  H23A 8460   0.667   1.413   7.813  0.2883 -1.3253  0.9887
   81CHL1  H23B 8461   0.555   1.537   7.878 -1.8204 -0.8073 -1.3417
   81CHL1   C24 8462   0.682   1.429   8.016  0.2496 -0.0109 -0.0649
   81CHL1  H24A 8463   0.737   1.332   8.019  0.0005 -0.3255 -2.7755
   81CHL1  H24B 8464   0.759   1.508   8.024 -0.3286  0.6470 -0.8507
   81CHL1   C25 8465   0.604   1.450   8.147  0.2733  0.9458 -0.7050
   81CHL1   H25 8466   0.524   1.374   8.141  0.6418  0.3815  0.9423
   81CHL1   C26 8467   0.684   1.413   8.278  0.2845 -0.8453  0.1297
   81CHL1  H26A 8468   0.778   1.473   8.277 -0.0384 -0.1932 -3.2911
   81CHL1  H26B 8469   0.617   1.426   8.366  2.6753 -1.9601  2.2174
   81CHL1  H26C 8470   0.710   1.305   8.276 -0.0695 -0.9397  0.4417
   81CHL1   C27 8471   0.546   1.595   8.169 -0.1284  0.3900  0.4295
   81CHL1  H27A 8472   0.499   1.611   8.070  0.2073 -1.4531 -0.0714
   81CHL1  H27B 8473   0.470   1.607   8.250 -1.1905 -1.1369 -0.2890
   81CHL1  H27C 8474   0.634   1.657   8.195  0.5109 -0.8961  1.4546
   82CHL1    C3 8475   2.430   0.533   6.893  0.8523  0.0575  0.0351
   82CHL1    H3 8476   2.323   0.555   6.911  0.5890  2.1098 -3.1262
   82CHL1    O3 8477   2.438   0.575   6.756 -0.4398  0.3739  0.5631
   82CHL1   H3' 8478   2.522   0.538   6.729 -0.2135  2.0906 -1.2856
   82CHL1    C4 8479   2.519   0.614   6.984 -0.3984 -0.4158  0.9508
   82CHL1   H4A 8480   2.623   0.619   6.944 -0.5998  1.8804  0.5482
   82CHL1   H4B 8481   2.483   0.719   6.984  0.3857 -0.0239 -2.7320
   82CHL1    C5 8482   2.541   0.559   7.122  1.1942  0.2132 -1.2483
   82CHL1    C6 8483   2.503   0.622   7.234  0.0602  0.0447 -0.8731
   82CHL1    H6 8484   2.466   0.726   7.227  1.6410  0.6123 -1.1759
   82CHL1    C7 8485   2.520   0.587   7.377  0.1681  0.5130  0.4028
   82CHL1   H7A 8486   2.545   0.676   7.439 -2.8326 -0.1586  2.8209
   82CHL1   H7B 8487   2.423   0.557   7.423  1.2851 -1.9374  1.3510
   82CHL1    C8 8488   2.614   0.458   7.386  0.1161 -0.3257  0.7836
   82CHL1    H8 8489   2.720   0.484   7.367 -0.0600  0.5120  0.9402
   82CHL1   C14 8490   2.605   0.399   7.534  0.7659  0.7977  0.2852
   82CHL1   H14 8491   2.502   0.361   7.547  1.4284 -0.9807  0.6644
   82CHL1   C15 8492   2.625   0.493   7.649 -0.7298 -0.0894 -0.1818
   82CHL1  H15A 8493   2.716   0.555   7.638 -0.4863 -0.7301 -2.1932
   82CHL1  H15B 8494   2.544   0.567   7.667  0.6825  1.7152 -0.9406
   82CHL1   C16 8495   2.642   0.401   7.768 -0.3402  1.1828  0.1103
   82CHL1  H16A 8496   2.730   0.423   7.832 -1.4608  1.5850  1.5717
   82CHL1  H16B 8497   2.551   0.401   7.831 -0.9979  0.6175 -0.8229
   82CHL1   C17 8498   2.658   0.254   7.712  0.3116  0.3492  0.1086
   82CHL1   H17 8499   2.558   0.206   7.724  0.8958 -0.8111  0.4838
   82CHL1   C13 8500   2.689   0.273   7.560  0.2025 -0.4736 -0.1197
   82CHL1   C18 8501   2.835   0.312   7.544  0.3145  0.3124  0.5032
   82CHL1  H18A 8502   2.856   0.381   7.460 -0.8197 -0.8320 -0.7663
   82CHL1  H18B 8503   2.870   0.355   7.641 -0.2394 -1.4971  1.5469
   82CHL1  H18C 8504   2.899   0.222   7.535  0.0922 -0.0209  1.9863
   82CHL1   C12 8505   2.646   0.164   7.459 -0.0356  0.3214 -0.3062
   82CHL1  H12A 8506   2.704   0.069   7.467 -1.3044 -0.3020  3.3288
   82CHL1  H12B 8507   2.540   0.130   7.458  0.8691 -2.8727 -0.3039
   82CHL1   C11 8508   2.655   0.219   7.311  0.2722  0.0194 -0.3194
   82CHL1  H11A 8509   2.761   0.244   7.288 -0.0211 -0.2314 -2.0537
   82CHL1  H11B 8510   2.619   0.143   7.239  1.9187  0.2615 -1.4609
   82CHL1    C9 8511   2.574   0.353   7.282 -0.8267 -0.3553 -0.2078
   82CHL1    H9 8512   2.471   0.321   7.308 -0.2345 -1.3952  0.9493
   82CHL1   C10 8513   2.579   0.413   7.134 -0.7017  0.3510  0.1363
   82CHL1   C19 8514   2.721   0.393   7.086  0.9996  0.5376 -0.3405
   82CHL1  H19A 8515   2.798   0.427   7.159  1.3995  3.4585 -1.9797
   82CHL1  H19B 8516   2.739   0.288   7.053  2.2875  0.8824 -0.8242
   82CHL1  H19C 8517   2.751   0.449   6.996  2.6471 -2.0022 -1.4901
   82CHL1    C1 8518   2.481   0.339   7.048 -0.3256  0.5135  0.0632
   82CHL1   H1A 8519   2.502   0.231   7.062 -2.5744  0.1944  1.4956
   82CHL1   H1B 8520   2.376   0.335   7.084 -1.2297 -2.8810 -2.3654
   82CHL1    C2 8521   2.482   0.389   6.898 -0.3882  0.9298 -0.7274
   82CHL1   H2A 8522   2.420   0.318   6.839  0.0696  1.2031 -1.5533
   82CHL1   H2B 8523   2.584   0.381   6.854 -0.8456  2.6440 -2.1913
   82CHL1   C20 8524   2.750   0.164   7.794  0.1615 -0.5805  0.7527
   82CHL1   H20 8525   2.845   0.222   7.804  0.0013  0.0867 -1.0830
   82CHL1   C21 8526   2.779   0.031   7.738 -0.2838 -0.1695  0.0440
   82CHL1  H21A 8527   2.816   0.038   7.633 -1.4797  2.5326 -0.2668
   82CHL1  H21B 8528   2.689  -0.034   7.732  0.6644 -1.4795 -0.9121
   82CHL1  H21C 8529   2.855  -0.025   7.796  0.0639  2.8159  2.7236
   82CHL1   C22 8530   2.696   0.153   7.939 -0.0487  0.7565 -0.0109
   82CHL1  H22A 8531   2.633   0.238   7.971  2.7887  3.4611 -1.0134
   82CHL1  H22B 8532   2.632   0.062   7.938  0.7579  0.1430  1.1480
   82CHL1   C23 8533   2.806   0.135   8.053 -0.1873  0.0957  0.9745
   82CHL1  H23A 8534   2.874   0.051   8.026  0.2765 -0.6572  4.0474
   82CHL1  H23B 8535   2.856   0.234   8.051  1.1723 -0.5120  2.3991
   82CHL1   C24 8536   2.747   0.117   8.189  0.6356  0.3700  0.2265
   82CHL1  H24A 8537   2.659   0.180   8.215 -0.0276 -0.7121  0.6789
   82CHL1  H24B 8538   2.693   0.025   8.219  0.0842  0.4908 -0.3804
   82CHL1   C25 8539   2.849   0.149   8.308  0.0979 -0.4076 -0.3995
   82CHL1   H25 8540   2.946   0.099   8.289 -0.2024 -1.2917  0.3318
   82CHL1   C26 8541   2.876   0.297   8.311 -0.0331 -0.1098  0.1713
   82CHL1  H26A 8542   2.793   0.358   8.352  2.1724  2.0218  1.7938
   82CHL1  H26B 8543   2.961   0.312   8.381  1.9918  1.2657 -2.4092
   82CHL1  H26C 8544   2.906   0.338   8.213 -1.1433  0.1695 -0.0690
   82CHL1   C27 8545   2.775   0.105   8.433  0.4275 -0.3335 -0.0136
   82CHL1  H27A 8546   2.771  -0.005   8.450  1.9999 -0.0550  2.8940
   82CHL1  H27B 8547   2.844   0.142   8.513  1.7887 -2.0794 -0.3215
   82CHL1  H27C 8548   2.670   0.139   8.447 -0.1006 -0.3749 -3.1609
   83CHL1    C3 8549   4.764   0.656   7.031  0.3056 -0.2593  0.1548
   83CHL1    H3 8550   4.848   0.584   7.021  0.6498 -0.2248  2.3262
   83CHL1    O3 8551   4.724   0.721   6.904  0.6327  0.3297 -0.3421
   83CHL1   H3' 8552   4.678   0.800   6.931 -0.5374 -1.2382  2.8304
   83CHL1    C4 8553   4.649   0.564   7.081  0.2262  0.1688 -0.0318
   83CHL1   H4A 8554   4.560   0.630   7.088 -0.9039 -1.1406 -1.4047
   83CHL1   H4B 8555   4.621   0.482   7.011 -0.0926 -0.7559  1.1356
   83CHL1    C5 8556   4.682   0.497   7.221  0.1605  0.2175  0.9588
   83CHL1    C6 8557   4.676   0.363   7.241 -0.0436 -0.2415 -0.6798
   83CHL1    H6 8558   4.640   0.289   7.168 -2.1684  0.8929 -0.8514
   83CHL1    C7 8559   4.712   0.293   7.377  0.5039 -0.5684  0.4499
   83CHL1   H7A 8560   4.633   0.217   7.397 -0.1828 -0.0450 -0.1750
   83CHL1   H7B 8561   4.813   0.249   7.363  0.4234 -0.5758 -0.1703
   83CHL1    C8 8562   4.713   0.394   7.491  0.4321  0.4036 -0.6210
   83CHL1    H8 8563   4.609   0.424   7.514  0.2876 -1.4607  1.3908
   83CHL1   C14 8564   4.781   0.342   7.618  0.5553 -0.0413  0.3635
   83CHL1   H14 8565   4.884   0.320   7.583 -0.5500 -3.4176 -1.2557
   83CHL1   C15 8566   4.728   0.206   7.668  0.2469 -0.8553  0.6762
   83CHL1  H15A 8567   4.617   0.195   7.661  0.0647  1.0923 -0.2581
   83CHL1  H15B 8568   4.778   0.128   7.607  1.2750 -1.5340  2.3323
   83CHL1   C16 8569   4.777   0.205   7.808  0.6644  0.3285  0.7508
   83CHL1  H16A 8570   4.680   0.192   7.861  0.0079  1.0844 -0.2391
   83CHL1  H16B 8571   4.853   0.125   7.824  2.1158  1.4680 -0.2418
   83CHL1   C17 8572   4.845   0.341   7.834  0.3110 -0.1434  0.6991
   83CHL1   H17 8573   4.952   0.323   7.811  0.1848  0.3527 -0.3080
   83CHL1   C13 8574   4.791   0.438   7.729 -0.0507 -0.1905  0.2265
   83CHL1   C18 8575   4.656   0.479   7.778  0.4627 -0.8134 -0.2079
   83CHL1  H18A 8576   4.600   0.535   7.701 -0.4611  1.9637  2.2775
   83CHL1  H18B 8577   4.597   0.398   7.825 -0.7113  1.4314  2.4250
   83CHL1  H18C 8578   4.670   0.548   7.864 -2.1141 -0.5800  0.1002
   83CHL1   C12 8579   4.870   0.561   7.695 -0.0588 -1.0197 -0.6333
   83CHL1  H12A 8580   4.858   0.639   7.772 -0.5595 -0.6655 -1.0641
   83CHL1  H12B 8581   4.977   0.547   7.665  0.2179  0.6914 -0.5438
   83CHL1   C11 8582   4.812   0.626   7.566  0.6065 -0.1870 -0.6184
   83CHL1  H11A 8583   4.723   0.684   7.597  2.0556  2.9262 -1.8436
   83CHL1  H11B 8584   4.886   0.704   7.536  1.2152  0.7950  2.8912
   83CHL1    C9 8585   4.788   0.523   7.451  0.5124 -0.1565 -0.3423
   83CHL1    H9 8586   4.888   0.486   7.418  0.0167 -0.3066 -1.7524
   83CHL1   C10 8587   4.735   0.598   7.326 -0.0728 -0.1227 -0.0165
   83CHL1   C19 8588   4.610   0.679   7.360  0.3747 -0.6707 -0.3737
   83CHL1  H19A 8589   4.549   0.716   7.276  0.9023  0.2883 -0.3525
   83CHL1  H19B 8590   4.549   0.612   7.425  2.0600 -1.6656  0.2585
   83CHL1  H19C 8591   4.630   0.771   7.420 -2.7521  1.8096 -2.8066
   83CHL1    C1 8592   4.851   0.699   7.271  0.3711  0.4022  0.3534
   83CHL1   H1A 8593   4.883   0.774   7.346  2.7146 -1.3739  1.2367
   83CHL1   H1B 8594   4.941   0.638   7.251  0.6634  0.8085  0.4243
   83CHL1    C2 8595   4.792   0.758   7.141  0.4372 -0.4229  0.5605
   83CHL1   H2A 8596   4.864   0.835   7.106  0.0296 -0.0516  0.5234
   83CHL1   H2B 8597   4.702   0.817   7.170  1.3345  0.2362  2.1887
   83CHL1   C20 8598   4.848   0.380   7.986  0.3464  0.4768  0.4065
   83CHL1   H20 8599   4.745   0.391   8.025  0.1477 -0.9760  0.3717
   83CHL1   C21 8600   4.935   0.507   8.008  0.3166  0.0327  0.6300
   83CHL1  H21A 8601   4.888   0.601   7.973  2.0077  0.3936 -0.7964
   83CHL1  H21B 8602   5.025   0.492   7.946  0.9057 -1.7008  1.8235
   83CHL1  H21C 8603   4.953   0.515   8.118 -1.4415 -1.9536  1.1485
   83CHL1   C22 8604   4.909   0.260   8.076  0.2729 -0.2029  0.2188
   83CHL1  H22A 8605   4.849   0.168   8.059  0.7931 -0.7930  1.5156
   83CHL1  H22B 8606   5.013   0.250   8.039  0.0752  0.5988 -0.5880
   83CHL1   C23 8607   4.907   0.292   8.230 -0.8766  0.3333  0.0820
   83CHL1  H23A 8608   4.990   0.364   8.250 -0.1521 -0.4424 -0.0427
   83CHL1  H23B 8609   4.811   0.342   8.255 -0.4652  2.0774 -1.5599
   83CHL1   C24 8610   4.921   0.168   8.314  0.0327 -0.1829 -0.3719
   83CHL1  H24A 8611   4.836   0.104   8.281 -1.5924  0.8639  1.5576
   83CHL1  H24B 8612   5.017   0.115   8.295  0.8593  1.5179 -1.0746
   83CHL1   C25 8613   4.902   0.192   8.465  0.5040 -0.0080 -0.2224
   83CHL1   H25 8614   4.826   0.271   8.483  1.8511  1.3745 -0.4340
   83CHL1   C26 8615   4.867   0.065   8.547 -0.7041  0.3675  0.4141
   83CHL1  H26A 8616   4.894   0.080   8.654  2.2362 -1.7588  0.0899
   83CHL1  H26B 8617   4.760   0.046   8.528 -1.2375  4.1936 -1.2748
   83CHL1  H26C 8618   4.939  -0.013   8.513  0.6633  2.2616 -1.2656
   83CHL1   C27 8619   5.034   0.246   8.533  0.5424 -0.1273  0.1547
   83CHL1  H27A 8620   5.051   0.352   8.501 -0.9930 -0.4003 -1.7719
   83CHL1  H27B 8621   5.016   0.255   8.642 -1.3322 -0.5013 -0.0950
   83CHL1  H27C 8622   5.129   0.196   8.502  1.9994  1.6104  1.5615
   84CHL1    C3 8623   6.598   5.929   6.887  0.3493 -0.5359  0.0187
   84CHL1    H3 8624   6.488   5.921   6.902  0.5263 -2.2098  0.7263
   84CHL1    O3 8625   6.630   5.891   6.752  0.1836 -0.1792 -0.1597
   84CHL1   H3' 8626   6.726   5.880   6.758  0.0571 -0.8033  0.9883
   84CHL1    C4 8627   6.646   6.066   6.902  0.0545 -0.0796  1.2953
   84CHL1   H4A 8628   6.752   6.076   6.871 -0.4347  2.0736  0.0982
   84CHL1   H4B 8629   6.593   6.132   6.830  3.1037  1.4410  0.2889
   84CHL1    C5 8630   6.632   6.121   7.045  0.5909 -0.3215 -0.7708
   84CHL1    C6 8631   6.558   6.231   7.069 -0.1603 -0.2085 -0.0689
   84CHL1    H6 8632   6.512   6.283   6.984 -0.7152  0.3978  0.5843
   84CHL1    C7 8633   6.542   6.293   7.207 -0.0325 -0.8780  0.2710
   84CHL1   H7A 8634   6.550   6.404   7.205 -1.7960 -0.7181 -1.0337
   84CHL1   H7B 8635   6.434   6.284   7.231 -0.0956  0.7395  0.7327
   84CHL1    C8 8636   6.633   6.230   7.313 -0.5390  0.5081  0.3109
   84CHL1    H8 8637   6.736   6.260   7.286 -0.9124 -0.8517 -3.1498
   84CHL1   C14 8638   6.588   6.276   7.448  0.5158  0.2266 -0.8222
   84CHL1   H14 8639   6.481   6.245   7.454  0.8719 -0.8467  1.8118
   84CHL1   C15 8640   6.575   6.428   7.482 -0.0955  0.0027  0.2565
   84CHL1  H15A 8641   6.672   6.479   7.470 -0.6663  1.5054  1.6908
   84CHL1  H15B 8642   6.497   6.477   7.419 -2.5523 -1.9762  1.5430
   84CHL1   C16 8643   6.532   6.426   7.627 -0.2033 -0.1622 -0.2210
   84CHL1  H16A 8644   6.597   6.491   7.691 -1.2642  0.0209  0.7159
   84CHL1  H16B 8645   6.428   6.458   7.648  0.4343  1.7232  0.2772
   84CHL1   C17 8646   6.557   6.271   7.675  0.4710  0.2330 -0.1271
   84CHL1   H17 8647   6.455   6.227   7.666  2.0867 -3.4513 -3.1878
   84CHL1   C13 8648   6.639   6.205   7.567  0.4122  0.5481 -0.6366
   84CHL1   C18 8649   6.793   6.249   7.581  0.5306 -0.0060  0.2091
   84CHL1  H18A 8650   6.809   6.353   7.619  1.3686 -0.3830  0.9290
   84CHL1  H18B 8651   6.840   6.186   7.660 -0.1298 -2.3437 -1.1830
   84CHL1  H18C 8652   6.845   6.258   7.483  2.0292 -0.7909  0.9019
   84CHL1   C12 8653   6.616   6.050   7.544  0.4878  0.2090  0.2632
   84CHL1  H12A 8654   6.652   5.992   7.631  1.6645 -0.4008 -0.5999
   84CHL1  H12B 8655   6.507   6.028   7.547  0.1772  1.6895  1.9459
   84CHL1   C11 8656   6.685   6.002   7.411  0.0181 -0.0878 -0.4916
   84CHL1  H11A 8657   6.791   6.020   7.439  0.0644  2.2541 -1.8870
   84CHL1  H11B 8658   6.674   5.892   7.400  3.5992 -0.9181  2.3735
   84CHL1    C9 8659   6.628   6.078   7.297 -0.1674  0.3556 -0.0001
   84CHL1    H9 8660   6.519   6.057   7.290 -0.6174  2.7352 -1.3268
   84CHL1   C10 8661   6.690   6.034   7.161  0.3660  0.2567  0.3713
   84CHL1   C19 8662   6.843   6.040   7.169 -0.0640  0.2487 -0.0966
   84CHL1  H19A 8663   6.880   6.138   7.207  0.3472  0.0800 -0.0628
   84CHL1  H19B 8664   6.883   5.962   7.237 -0.4929 -0.8064 -1.0244
   84CHL1  H19C 8665   6.891   6.013   7.072  1.4076  1.9629  0.1050
   84CHL1    C1 8666   6.645   5.887   7.129  1.0257 -0.3335 -0.4211
   84CHL1   H1A 8667   6.691   5.816   7.201  1.7813 -1.5915 -2.0830
   84CHL1   H1B 8668   6.536   5.904   7.144  0.8564 -1.4644 -0.3231
   84CHL1    C2 8669   6.669   5.838   6.988 -0.0729  0.2591 -0.1427
   84CHL1   H2A 8670   6.634   5.732   6.986 -0.2435  0.2782  1.0057
   84CHL1   H2B 8671   6.775   5.829   6.955  0.1842 -1.3636  0.9612
   84CHL1   C20 8672   6.591   6.239   7.826  0.1661 -0.2427  0.3855
   84CHL1   H20 8673   6.641   6.140   7.817  2.0015  0.7818 -1.6557
   84CHL1   C21 8674   6.450   6.231   7.895  0.8218 -0.0540  0.2477
   84CHL1  H21A 8675   6.378   6.159   7.851 -0.5749  0.8562  0.9732
   84CHL1  H21B 8676   6.402   6.331   7.888  0.1285 -0.4950 -2.2990
   84CHL1  H21C 8677   6.469   6.208   8.002 -0.0267 -0.0104  0.4112
   84CHL1   C22 8678   6.684   6.340   7.889 -0.2274 -0.2856  0.0903
   84CHL1  H22A 8679   6.777   6.371   7.836  0.9876 -1.4582  1.4395
   84CHL1  H22B 8680   6.622   6.430   7.905 -0.4545 -0.2224 -1.0846
   84CHL1   C23 8681   6.740   6.299   8.027  0.4470  0.2493  0.1371
   84CHL1  H23A 8682   6.648   6.324   8.084  0.7958 -0.8244  1.2177
   84CHL1  H23B 8683   6.760   6.190   8.032 -0.8360  0.0385  1.7106
   84CHL1   C24 8684   6.845   6.389   8.084 -0.1772 -0.5977  0.0797
   84CHL1  H24A 8685   6.942   6.384   8.029  0.0508 -2.5552  0.5977
   84CHL1  H24B 8686   6.813   6.495   8.095  0.0907 -0.6953  2.3106
   84CHL1   C25 8687   6.880   6.372   8.233 -0.0992 -0.0428  0.2972
   84CHL1   H25 8688   6.907   6.265   8.247  0.9242  0.0575 -0.7884
   84CHL1   C26 8689   6.997   6.454   8.277 -0.0106 -0.1991  0.3816
   84CHL1  H26A 8690   7.006   6.449   8.388 -1.5700 -0.9911  0.5088
   84CHL1  H26B 8691   7.094   6.429   8.229 -0.4235  0.3262 -0.7840
   84CHL1  H26C 8692   6.975   6.559   8.249  2.0149  0.4096  0.9018
   84CHL1   C27 8693   6.761   6.398   8.324  0.3054 -0.7009 -0.2098
   84CHL1  H27A 8694   6.733   6.505   8.319  2.8299  0.2210  2.5231
   84CHL1  H27B 8695   6.675   6.329   8.307 -0.0187 -0.2851 -0.2861
   84CHL1  H27C 8696   6.795   6.375   8.427  0.7448  1.8614  0.2844
   85CHL1    C3 8697   0.456   2.775   6.792  0.0087 -0.3224 -0.4138
   85CHL1    H3 8698   0.521   2.865   6.790 -0.2738 -0.1392 -1.6566
   85CHL1    O3 8699   0.435   2.733   6.659 -0.6272  0.1973 -0.2798
   85CHL1   H3' 8700   0.364   2.669   6.657 -0.1966 -0.2618 -1.4651
   85CHL1    C4 8701   0.528   2.663   6.871 -0.5045  0.2874  0.4598
   85CHL1   H4A 8702   0.474   2.566   6.863 -1.9764  1.0905  0.2391
   85CHL1   H4B 8703   0.626   2.655   6.821 -0.8618 -3.7429  0.0726
   85CHL1    C5 8704   0.543   2.703   7.018  0.2009  0.6225 -0.2176
   85CHL1    C6 8705   0.664   2.696   7.076  0.7489  0.6487  0.1188
   85CHL1    H6 8706   0.752   2.662   7.018  0.5896  2.2522 -1.1624
   85CHL1    C7 8707   0.682   2.735   7.224 -0.1078  0.2131 -0.1330
   85CHL1   H7A 8708   0.753   2.666   7.276  1.4015  2.0855  0.4081
   85CHL1   H7B 8709   0.723   2.838   7.226  1.6553 -0.4500  1.2712
   85CHL1    C8 8710   0.546   2.745   7.307 -0.2953 -0.4048 -0.2831
   85CHL1    H8 8711   0.508   2.643   7.327  0.9363 -0.8435 -0.0881
   85CHL1   C14 8712   0.567   2.811   7.440  0.5094 -0.0638 -1.3304
   85CHL1   H14 8713   0.607   2.908   7.404  0.0443  0.4988 -0.3759
   85CHL1   C15 8714   0.666   2.745   7.531  0.2855 -0.2455  0.8010
   85CHL1  H15A 8715   0.653   2.635   7.542  1.8699 -0.7890 -1.8209
   85CHL1  H15B 8716   0.766   2.760   7.484  0.2024 -2.3720 -0.1919
   85CHL1   C16 8717   0.650   2.824   7.662  0.0882 -0.3349 -0.3227
   85CHL1  H16A 8718   0.626   2.747   7.738  0.8788  0.6883  1.0298
   85CHL1  H16B 8719   0.736   2.888   7.693 -2.2214  2.9039 -0.0523
   85CHL1   C17 8720   0.516   2.911   7.649 -0.4661  0.8133 -0.4580
   85CHL1   H17 8721   0.541   3.015   7.619 -0.4636  1.3809  1.4223
   85CHL1   C13 8722   0.448   2.843   7.529 -0.1453  0.0679 -0.6789
   85CHL1   C18 8723   0.383   2.714   7.574 -0.7138 -0.0564 -0.0691
   85CHL1  H18A 8724   0.347   2.653   7.489  0.7961 -1.4190  0.2051
   85CHL1  H18B 8725   0.452   2.650   7.634 -1.1572  1.3369  2.0649
   85CHL1  H18C 8726   0.295   2.726   7.640 -0.9177  3.1749 -0.7506
   85CHL1   C12 8727   0.355   2.928   7.445 -0.0629 -0.4398 -0.1035
   85CHL1  H12A 8728   0.259   2.941   7.499  0.7075 -0.6478  1.3640
   85CHL1  H12B 8729   0.401   3.028   7.430 -0.7253  0.0260  0.8976
   85CHL1   C11 8730   0.327   2.862   7.306  0.0182 -1.2551 -0.2938
   85CHL1  H11A 8731   0.263   2.772   7.320 -1.7070  0.0400  0.5569
   85CHL1  H11B 8732   0.263   2.936   7.253  1.5780  0.1502 -0.2932
   85CHL1    C9 8733   0.448   2.828   7.228 -1.2503 -0.2525  0.8127
   85CHL1    H9 8734   0.509   2.918   7.205 -0.6418 -0.5817  1.1014
   85CHL1   C10 8735   0.421   2.764   7.087 -0.1642  0.7663 -0.2655
   85CHL1   C19 8736   0.336   2.640   7.108 -0.1724 -1.4539  0.0762
   85CHL1  H19A 8737   0.231   2.668   7.131  0.8038  1.0824  1.8477
   85CHL1  H19B 8738   0.325   2.573   7.020 -2.8974 -1.4741  0.3380
   85CHL1  H19C 8739   0.379   2.572   7.185 -0.0979 -1.7900 -0.2602
   85CHL1    C1 8740   0.343   2.855   6.998  0.2985 -0.9533 -0.3707
   85CHL1   H1A 8741   0.237   2.865   7.032 -0.2913 -2.0989 -1.7418
   85CHL1   H1B 8742   0.389   2.956   6.998  0.6386 -1.1088 -1.0634
   85CHL1    C2 8743   0.325   2.813   6.852  0.9058  0.1733 -0.6360
   85CHL1   H2A 8744   0.266   2.890   6.799  0.2026 -0.9129 -1.4859
   85CHL1   H2B 8745   0.281   2.711   6.847  1.0745 -0.0555  1.4881
   85CHL1   C20 8746   0.441   2.927   7.784  0.1226  0.2958  0.1656
   85CHL1   H20 8747   0.412   2.824   7.813  1.7839 -0.7041 -1.4526
   85CHL1   C21 8748   0.305   3.002   7.760 -0.0315  0.8737 -0.1518
   85CHL1  H21A 8749   0.285   3.052   7.857  0.4883 -0.2919  0.5885
   85CHL1  H21B 8750   0.234   2.922   7.729  3.1166 -2.4882  0.5375
   85CHL1  H21C 8751   0.310   3.077   7.679 -0.9705  1.8869  0.7063
   85CHL1   C22 8752   0.531   2.985   7.899 -0.4243  0.3852  0.2666
   85CHL1  H22A 8753   0.637   2.985   7.868 -0.5834  1.7397 -0.3676
   85CHL1  H22B 8754   0.504   3.093   7.902 -3.0188 -0.1294 -0.9894
   85CHL1   C23 8755   0.521   2.905   8.028  0.1289  0.4341  0.5714
   85CHL1  H23A 8756   0.421   2.933   8.067  0.0492  1.6869 -0.4473
   85CHL1  H23B 8757   0.535   2.797   8.004  0.3296  0.7509 -0.8367
   85CHL1   C24 8758   0.615   2.962   8.139 -0.0765 -0.1705  0.0156
   85CHL1  H24A 8759   0.721   2.942   8.112 -0.1017  3.1874 -3.3459
   85CHL1  H24B 8760   0.592   3.070   8.144 -0.1657 -0.2289  1.0218
   85CHL1   C25 8761   0.588   2.912   8.285  0.6867  0.1996 -0.6092
   85CHL1   H25 8762   0.484   2.944   8.309  1.3002  2.3688 -0.6592
   85CHL1   C26 8763   0.584   2.758   8.297 -0.2258  1.0361  0.7814
   85CHL1  H26A 8764   0.518   2.716   8.375 -2.2902  3.4176  0.4234
   85CHL1  H26B 8765   0.549   2.715   8.201 -0.3710  2.7879  0.0158
   85CHL1  H26C 8766   0.690   2.727   8.309 -0.3707  1.0406  2.2550
   85CHL1   C27 8767   0.683   2.978   8.380  0.1440  0.2725 -0.4503
   85CHL1  H27A 8768   0.790   2.964   8.356  0.4953 -0.1326  1.2483
   85CHL1  H27B 8769   0.676   3.089   8.387 -0.5750  0.3238 -1.6185
   85CHL1  H27C 8770   0.679   2.927   8.478 -0.7649 -0.3594 -0.7996
   86CHL1    C3 8771   0.923   1.239   6.893  0.1709 -0.0331  0.2109
   86CHL1    H3 8772   0.847   1.170   6.937 -0.7416  0.2167 -0.9055
   86CHL1    O3 8773   0.901   1.229   6.756  0.3394  0.3910  0.3001
   86CHL1   H3' 8774   0.820   1.268   6.722 -1.1315 -2.9973 -0.4901
   86CHL1    C4 8775   0.894   1.384   6.929 -0.0155 -0.0630 -0.1962
   86CHL1   H4A 8776   0.966   1.450   6.876  1.0310 -0.6724  0.4307
   86CHL1   H4B 8777   0.790   1.411   6.901 -0.2098 -1.7722 -1.2263
   86CHL1    C5 8778   0.922   1.411   7.075  0.7202  0.5116 -0.8775
   86CHL1    C6 8779   0.827   1.456   7.147 -0.2746 -0.4142  0.9892
   86CHL1    H6 8780   0.731   1.485   7.102 -0.2372  1.1519  1.8391
   86CHL1    C7 8781   0.831   1.471   7.302  0.0058  0.0028  0.8803
   86CHL1   H7A 8782   0.788   1.570   7.328  0.9662  1.0593 -1.3181
   86CHL1   H7B 8783   0.773   1.386   7.344  1.2209 -1.7955 -0.9204
   86CHL1    C8 8784   0.973   1.458   7.354  0.0363  0.5171 -0.9488
   86CHL1    H8 8785   1.031   1.550   7.334  2.9503 -0.7900  0.8350
   86CHL1   C14 8786   0.978   1.425   7.500 -0.2442 -0.5910 -0.0739
   86CHL1   H14 8787   0.938   1.323   7.514  2.1277 -1.6062 -0.2762
   86CHL1   C15 8788   0.900   1.522   7.592  0.1749 -0.0987 -0.1299
   86CHL1  H15A 8789   0.899   1.630   7.570  1.1747  0.1390  0.9013
   86CHL1  H15B 8790   0.793   1.493   7.583 -0.4153  1.6948  0.6854
   86CHL1   C16 8791   0.955   1.489   7.734 -0.1118  0.0378  0.0890
   86CHL1  H16A 8792   0.976   1.589   7.779  0.9556  0.0797 -0.4652
   86CHL1  H16B 8793   0.872   1.443   7.792  1.0508 -1.1982  0.8263
   86CHL1   C17 8794   1.085   1.399   7.720  0.1202 -0.1765 -0.4510
   86CHL1   H17 8795   1.053   1.293   7.728  1.7470 -0.7148 -0.7204
   86CHL1   C13 8796   1.117   1.412   7.568 -0.3419  0.3022  0.8480
   86CHL1   C18 8797   1.188   1.550   7.549  0.1689 -0.6900  0.0550
   86CHL1  H18A 8798   1.211   1.584   7.446 -1.4934 -0.5966 -0.3227
   86CHL1  H18B 8799   1.127   1.625   7.603 -1.7882 -2.6657  0.7589
   86CHL1  H18C 8800   1.284   1.546   7.605  2.0872 -0.1406 -2.9588
   86CHL1   C12 8801   1.183   1.298   7.493 -0.2120 -0.6497 -0.1489
   86CHL1  H12A 8802   1.289   1.301   7.526 -0.0400  0.8483 -0.7868
   86CHL1  H12B 8803   1.133   1.199   7.502 -0.5934 -0.3139  2.0941
   86CHL1   C11 8804   1.196   1.333   7.348  0.3142 -0.1126  0.0057
   86CHL1  H11A 8805   1.259   1.424   7.335  2.2340 -1.2778  0.6923
   86CHL1  H11B 8806   1.248   1.252   7.292 -1.4981 -1.0887 -0.3319
   86CHL1    C9 8807   1.051   1.343   7.288 -0.6032  0.2277  0.4790
   86CHL1    H9 8808   0.998   1.251   7.322 -0.4454  0.1498  0.5210
   86CHL1   C10 8809   1.052   1.355   7.133  0.4584  0.1899  0.1646
   86CHL1   C19 8810   1.156   1.458   7.080 -0.1272  0.1550  1.0381
   86CHL1  H19A 8811   1.162   1.452   6.969  2.0214 -0.4331  1.1316
   86CHL1  H19B 8812   1.123   1.563   7.093  1.0875  1.1441 -2.7778
   86CHL1  H19C 8813   1.258   1.439   7.120  0.4732 -0.7712 -0.8028
   86CHL1    C1 8814   1.096   1.226   7.064  0.3022  0.0118  0.1932
   86CHL1   H1A 8815   1.205   1.210   7.083  0.3722 -1.0664 -1.0194
   86CHL1   H1B 8816   1.035   1.144   7.108 -1.3658  1.6754  1.1234
   86CHL1    C2 8817   1.066   1.206   6.918 -1.1323  0.0765 -0.0003
   86CHL1   H2A 8818   1.077   1.101   6.882 -1.6101  0.6723 -1.9802
   86CHL1   H2B 8819   1.134   1.260   6.849 -1.0248 -1.0243 -0.8004
   86CHL1   C20 8820   1.195   1.423   7.821 -0.4989  0.6864 -0.4013
   86CHL1   H20 8821   1.225   1.530   7.820 -0.9780  0.8762  1.6993
   86CHL1   C21 8822   1.321   1.336   7.805 -0.7027  0.3763  0.4982
   86CHL1  H21A 8823   1.301   1.233   7.770  1.3812 -0.2250  0.9624
   86CHL1  H21B 8824   1.379   1.319   7.897 -1.2891  0.1240  0.8275
   86CHL1  H21C 8825   1.387   1.374   7.724  0.7656 -0.4683  1.2810
   86CHL1   C22 8826   1.133   1.401   7.970  0.7790 -1.2974 -0.1380
   86CHL1  H22A 8827   1.032   1.447   7.969  1.4805  0.3325  0.4474
   86CHL1  H22B 8828   1.115   1.293   7.989  0.0832 -0.7037  3.2940
   86CHL1   C23 8829   1.205   1.477   8.081 -0.5963 -0.2253 -0.2452
   86CHL1  H23A 8830   1.307   1.439   8.102  0.2192  1.1003 -1.5971
   86CHL1  H23B 8831   1.216   1.583   8.051 -1.6591  1.1302  3.5457
   86CHL1   C24 8832   1.125   1.459   8.215  0.5197 -0.6612  0.5065
   86CHL1  H24A 8833   1.035   1.520   8.195  0.6792 -0.6476 -0.2010
   86CHL1  H24B 8834   1.093   1.354   8.235  0.6761 -1.4150 -2.6637
   86CHL1   C25 8835   1.191   1.518   8.332  0.3590 -0.5523 -0.3142
   86CHL1   H25 8836   1.292   1.475   8.345  1.3152  0.9960 -2.0464
   86CHL1   C26 8837   1.207   1.671   8.321  0.7417  0.0594 -0.2449
   86CHL1  H26A 8838   1.276   1.699   8.404  0.0059 -0.2636  0.4898
   86CHL1  H26B 8839   1.257   1.698   8.225  1.6205 -0.2056  0.1234
   86CHL1  H26C 8840   1.110   1.721   8.342  0.8619  0.3103 -0.2811
   86CHL1   C27 8841   1.106   1.478   8.460 -0.5937  0.1135 -0.3297
   86CHL1  H27A 8842   1.150   1.532   8.547 -2.3808  1.7636 -0.3732
   86CHL1  H27B 8843   1.008   1.532   8.459 -0.0309  1.2864  1.4280
   86CHL1  H27C 8844   1.095   1.370   8.482 -0.7199  0.1512 -0.1977
   87CHL1    C3 8845   2.434   1.310   6.963 -0.2316 -0.0370  0.1375
   87CHL1    H3 8846   2.382   1.391   7.018 -0.9975 -0.0462 -0.5538
   87CHL1    O3 8847   2.422   1.336   6.827  0.4622  0.7760  0.5310
   87CHL1   H3' 8848   2.477   1.271   6.782 -3.6439 -2.3616 -0.5919
   87CHL1    C4 8849   2.578   1.322   6.990 -0.1947 -0.2570  0.5773
   87CHL1   H4A 8850   2.636   1.254   6.924  0.0941  1.6635 -1.2320
   87CHL1   H4B 8851   2.605   1.427   6.965 -3.1804  0.1381 -1.6007
   87CHL1    C5 8852   2.595   1.287   7.135 -0.4043 -0.4540 -0.0363
   87CHL1    C6 8853   2.646   1.373   7.217 -0.0636 -0.4994  0.0733
   87CHL1    H6 8854   2.669   1.471   7.172  2.6610 -0.1378  1.9991
   87CHL1    C7 8855   2.691   1.348   7.359  0.3235 -0.3810  0.6705
   87CHL1   H7A 8856   2.796   1.380   7.376 -0.0109  0.0891  1.9484
   87CHL1   H7B 8857   2.631   1.425   7.412  2.9569  1.8233  0.7006
   87CHL1    C8 8858   2.678   1.202   7.397  0.2943  0.2985  0.0471
   87CHL1    H8 8859   2.761   1.143   7.352  1.3194  1.4538  0.3807
   87CHL1   C14 8860   2.665   1.199   7.542  0.0770 -0.3280 -0.1338
   87CHL1   H14 8861   2.564   1.237   7.569  0.1577 -0.7958  0.8556
   87CHL1   C15 8862   2.779   1.265   7.621 -0.5070 -0.9294  0.1015
   87CHL1  H15A 8863   2.871   1.229   7.571  0.0972  2.0424 -1.1028
   87CHL1  H15B 8864   2.763   1.375   7.620  2.2289 -0.4628 -1.6118
   87CHL1   C16 8865   2.757   1.209   7.761  0.3798  0.3346  0.0224
   87CHL1  H16A 8866   2.844   1.168   7.816  0.5685  1.5299  0.6304
   87CHL1  H16B 8867   2.716   1.286   7.830 -0.3112  0.0647 -0.0743
   87CHL1   C17 8868   2.657   1.086   7.749 -0.5399 -0.5614 -0.3690
   87CHL1   H17 8869   2.557   1.131   7.766  0.9841  4.2300 -2.5333
   87CHL1   C13 8870   2.660   1.054   7.598  0.6497 -0.8703 -1.2313
   87CHL1   C18 8871   2.779   0.964   7.562 -0.1564  0.2353  0.3297
   87CHL1  H18A 8872   2.867   0.973   7.629 -0.2819  1.6317  0.3172
   87CHL1  H18B 8873   2.750   0.856   7.562 -1.6156  0.5910 -0.4670
   87CHL1  H18C 8874   2.812   0.983   7.458 -1.7086  1.4404  0.0228
   87CHL1   C12 8875   2.527   0.994   7.542 -0.8468  0.8521  0.4498
   87CHL1  H12A 8876   2.533   0.892   7.584 -2.1785  1.4978  2.3561
   87CHL1  H12B 8877   2.441   1.046   7.590 -0.9109  1.2165 -0.0501
   87CHL1   C11 8878   2.522   0.989   7.390 -0.7183  0.0429 -0.2389
   87CHL1  H11A 8879   2.606   0.922   7.364 -0.3363  0.4865 -0.1690
   87CHL1  H11B 8880   2.427   0.945   7.354 -0.3380 -3.2401  2.3185
   87CHL1    C9 8881   2.556   1.133   7.333 -0.4138 -0.6070 -0.0999
   87CHL1    H9 8882   2.467   1.193   7.362 -0.3127 -0.1396 -0.7470
   87CHL1   C10 8883   2.556   1.145   7.179 -0.7894 -0.6039  0.3497
   87CHL1   C19 8884   2.637   1.027   7.123  1.0966  0.5360 -0.5350
   87CHL1  H19A 8885   2.658   1.043   7.015  2.9060  0.0102 -0.2997
   87CHL1  H19B 8886   2.726   1.017   7.189 -0.4342 -0.9976  1.4184
   87CHL1  H19C 8887   2.580   0.932   7.135 -1.7245  2.3957  2.3657
   87CHL1    C1 8888   2.408   1.132   7.134 -0.0758  0.8164 -0.0655
   87CHL1   H1A 8889   2.376   1.028   7.157 -2.3814  0.9200 -2.4054
   87CHL1   H1B 8890   2.344   1.200   7.195 -1.4116 -0.1062 -0.4088
   87CHL1    C2 8891   2.376   1.175   6.994  0.5875 -0.2721 -0.7738
   87CHL1   H2A 8892   2.266   1.175   6.982  0.5328  2.0573 -0.7746
   87CHL1   H2B 8893   2.426   1.106   6.923  2.0697  1.4843 -1.5387
   87CHL1   C20 8894   2.691   0.984   7.848 -0.0943  1.0487 -0.3524
   87CHL1   H20 8895   2.791   0.940   7.827 -2.1542 -2.9637 -2.8697
   87CHL1   C21 8896   2.602   0.860   7.843 -0.7921  0.0393  0.4670
   87CHL1  H21A 8897   2.618   0.788   7.926 -1.9088 -2.5113 -1.3920
   87CHL1  H21B 8898   2.615   0.808   7.745 -1.1685  2.1227 -0.7551
   87CHL1  H21C 8899   2.498   0.899   7.851 -1.7204 -2.3261  0.9893
   87CHL1   C22 8900   2.693   1.025   8.002  0.3964 -0.5330 -0.5321
   87CHL1  H22A 8901   2.687   1.136   8.011 -0.6537 -0.7286  1.7071
   87CHL1  H22B 8902   2.603   0.986   8.053  1.3305 -1.3929  0.5238
   87CHL1   C23 8903   2.818   0.988   8.080  0.2824  0.6127 -0.2649
   87CHL1  H23A 8904   2.912   1.032   8.039 -1.0645  3.5787 -0.4345
   87CHL1  H23B 8905   2.811   1.055   8.168  1.2238  2.0224 -1.2121
   87CHL1   C24 8906   2.837   0.839   8.120  0.5855  0.0690  0.1998
   87CHL1  H24A 8907   2.752   0.780   8.080  1.9416 -0.3515 -2.2606
   87CHL1  H24B 8908   2.923   0.797   8.064  0.9406 -0.3746  1.0707
   87CHL1   C25 8909   2.866   0.823   8.270 -0.3066 -0.7512  0.0522
   87CHL1   H25 8910   2.784   0.872   8.326 -0.7473 -2.6176  1.1105
   87CHL1   C26 8911   2.879   0.680   8.326 -0.5198 -0.3492  1.0955
   87CHL1  H26A 8912   2.790   0.618   8.303  0.2551 -0.6681 -1.2807
   87CHL1  H26B 8913   2.964   0.633   8.273 -1.3734 -0.5536 -0.1247
   87CHL1  H26C 8914   2.903   0.677   8.435 -0.7525  1.3071  1.2177
   87CHL1   C27 8915   2.994   0.897   8.320  0.1261  0.1820 -0.6130
   87CHL1  H27A 8916   3.081   0.868   8.258  0.8037  1.7948 -0.4558
   87CHL1  H27B 8917   2.977   1.007   8.324 -0.3853  0.0811  1.4467
   87CHL1  H27C 8918   3.029   0.874   8.423 -0.4709  0.7980 -0.2636
   88CHL1    C3 8919   6.144   4.846   6.742 -0.1395 -0.3928 -0.4327
   88CHL1    H3 8920   6.070   4.922   6.710 -0.3917 -1.0282 -1.3948
   88CHL1    O3 8921   6.194   4.777   6.631  0.5480 -0.1451  0.2310
   88CHL1   H3' 8922   6.227   4.696   6.672  0.2439  0.1746  1.1291
   88CHL1    C4 8923   6.260   4.919   6.809 -0.1381 -0.0942  0.1844
   88CHL1   H4A 8924   6.337   4.843   6.832 -1.1934 -1.3729 -0.3446
   88CHL1   H4B 8925   6.299   4.997   6.740 -2.5405 -0.1516 -1.3709
   88CHL1    C5 8926   6.220   4.995   6.938  0.4415 -0.2990  0.1958
   88CHL1    C6 8927   6.259   5.114   6.964 -0.0336 -0.1653  0.4279
   88CHL1    H6 8928   6.313   5.171   6.886 -1.4819 -0.1391 -0.5942
   88CHL1    C7 8929   6.246   5.181   7.102 -0.4686  0.2376  0.2318
   88CHL1   H7A 8930   6.347   5.212   7.139 -0.3015 -1.3483  1.1774
   88CHL1   H7B 8931   6.181   5.270   7.091 -0.3511  0.1669 -1.2043
   88CHL1    C8 8932   6.198   5.095   7.214  0.5176 -0.4343 -0.8451
   88CHL1    H8 8933   6.283   5.050   7.269  0.5267 -0.7991 -1.1576
   88CHL1   C14 8934   6.127   5.184   7.318 -0.3022 -0.8986  0.3147
   88CHL1   H14 8935   6.035   5.221   7.267  0.8098  2.2195  0.3318
   88CHL1   C15 8936   6.187   5.318   7.365  0.6024 -0.7525  0.7536
   88CHL1  H15A 8937   6.293   5.299   7.394  1.0504  0.7857  0.2072
   88CHL1  H15B 8938   6.199   5.392   7.283 -3.9953 -0.5467 -0.0065
   88CHL1   C16 8939   6.085   5.356   7.474 -0.5836 -0.3837  0.7355
   88CHL1  H16A 8940   6.145   5.404   7.554 -0.6031  0.4403  0.2640
   88CHL1  H16B 8941   6.016   5.436   7.441 -0.2649 -0.5894 -0.5124
   88CHL1   C17 8942   6.007   5.237   7.518  0.1367  0.7187  0.1795
   88CHL1   H17 8943   5.904   5.242   7.477  0.3395  1.1390 -0.2968
   88CHL1   C13 8944   6.070   5.114   7.444  0.1926  0.2465  0.3576
   88CHL1   C18 8945   6.183   5.049   7.528  0.6391  0.3377 -0.5324
   88CHL1  H18A 8946   6.140   5.000   7.618  1.7765  0.1173 -0.0995
   88CHL1  H18B 8947   6.239   4.971   7.473 -1.5747 -0.7547 -1.3761
   88CHL1  H18C 8948   6.247   5.132   7.566  0.6133  0.1407 -0.0549
   88CHL1   C12 8949   5.967   5.004   7.398 -0.2238  0.6150 -0.2995
   88CHL1  H12A 8950   5.929   4.942   7.482 -1.4650  0.3720 -1.0139
   88CHL1  H12B 8951   5.875   5.056   7.364 -0.9543 -0.6442 -0.3202
   88CHL1   C11 8952   6.026   4.912   7.284  0.7631 -0.1805 -0.4798
   88CHL1  H11A 8953   6.099   4.847   7.336 -0.2803 -1.2217 -0.2734
   88CHL1  H11B 8954   5.945   4.841   7.255  1.8995 -1.2127 -1.2165
   88CHL1    C9 8955   6.095   4.987   7.162 -0.3392 -0.5472 -0.3510
   88CHL1    H9 8956   6.013   5.046   7.116  0.9983  1.6680 -0.0291
   88CHL1   C10 8957   6.147   4.906   7.044 -0.3515  0.7643 -0.3244
   88CHL1   C19 8958   6.255   4.805   7.100  0.0088 -0.1956  0.1905
   88CHL1  H19A 8959   6.339   4.861   7.146  2.3414 -3.2938  0.0213
   88CHL1  H19B 8960   6.214   4.734   7.175 -0.8764  1.4584  1.3382
   88CHL1  H19C 8961   6.297   4.737   7.023  1.3910 -0.6184  1.2769
   88CHL1    C1 8962   6.032   4.830   6.971 -0.1417 -0.1782 -0.3736
   88CHL1   H1A 8963   5.978   4.752   7.029 -1.0710  0.7977  0.0993
   88CHL1   H1B 8964   5.957   4.906   6.942  0.4516  0.6073  0.1129
   88CHL1    C2 8965   6.079   4.752   6.844 -0.1374 -0.7140  0.5678
   88CHL1   H2A 8966   5.980   4.714   6.808 -0.4183 -0.6048  1.2113
   88CHL1   H2B 8967   6.145   4.668   6.872 -0.1751 -0.8013  0.3986
   88CHL1   C20 8968   6.003   5.225   7.676  0.0825  0.3025  0.3549
   88CHL1   H20 8969   6.103   5.198   7.718  0.0427 -0.8188 -0.2204
   88CHL1   C21 8970   5.908   5.111   7.729  0.3100  0.5031 -0.6906
   88CHL1  H21A 8971   5.915   5.092   7.839  0.0179 -0.7706 -0.8796
   88CHL1  H21B 8972   5.933   5.017   7.675  2.8382  1.0348 -0.5658
   88CHL1  H21C 8973   5.801   5.135   7.713 -0.8156 -1.4222  2.6920
   88CHL1   C22 8974   5.957   5.353   7.750 -0.3867  0.4509  0.1508
   88CHL1  H22A 8975   6.030   5.434   7.727  1.9675 -1.4841  0.3722
   88CHL1  H22B 8976   5.865   5.385   7.697 -0.2946 -1.3904 -1.1922
   88CHL1   C23 8977   5.921   5.338   7.895  0.5650  0.0985 -0.1392
   88CHL1  H23A 8978   5.828   5.279   7.905  0.8099 -0.1660  0.6943
   88CHL1  H23B 8979   6.007   5.288   7.945  1.0210 -1.6818 -2.5100
   88CHL1   C24 8980   5.908   5.468   7.978 -0.5435  0.9731  0.3266
   88CHL1  H24A 8981   6.012   5.504   7.994 -0.3676  1.5646 -1.8505
   88CHL1  H24B 8982   5.850   5.543   7.920 -0.8066  0.1905 -0.4328
   88CHL1   C25 8983   5.845   5.459   8.126 -0.7045 -0.7015  0.3469
   88CHL1   H25 8984   5.871   5.360   8.168 -0.3703 -0.1603  1.4500
   88CHL1   C26 8985   5.899   5.565   8.225 -0.2123 -0.4396  0.7674
   88CHL1  H26A 8986   6.010   5.562   8.235 -0.1417 -1.0326 -0.0809
   88CHL1  H26B 8987   5.869   5.665   8.185  2.4278  0.3771  0.6394
   88CHL1  H26C 8988   5.858   5.561   8.328  0.7383 -0.7853  1.1379
   88CHL1   C27 8989   5.696   5.472   8.106 -0.2289  0.1053 -0.0785
   88CHL1  H27A 8990   5.684   5.581   8.086  1.0207  0.1774 -0.5185
   88CHL1  H27B 8991   5.664   5.405   8.024  0.7404 -0.7822  0.2451
   88CHL1  H27C 8992   5.643   5.442   8.199  1.5032  1.0456  1.2779
   89CHL1    C3 8993   2.024   0.327   6.814  0.8048  0.0701 -0.0340
   89CHL1    H3 8994   2.129   0.363   6.817  1.4831 -1.4218 -2.5751
   89CHL1    O3 8995   1.960   0.338   6.687  0.3052 -0.0311  0.3786
   89CHL1   H3' 8996   1.938   0.430   6.672  0.3384  0.0952  1.0873
   89CHL1    C4 8997   2.005   0.183   6.853  0.4152  0.0808 -0.0721
   89CHL1   H4A 8998   1.898   0.152   6.853  0.4880 -0.2310 -1.4176
   89CHL1   H4B 8999   2.063   0.127   6.777 -0.0047  0.0263 -0.3548
   89CHL1    C5 9000   2.062   0.165   6.998 -0.2242  0.4562  1.1836
   89CHL1    C6 9001   2.166   0.085   7.013 -0.2912 -0.9888 -0.2713
   89CHL1    H6 9002   2.207   0.022   6.932  0.8423 -1.6860  0.8241
   89CHL1    C7 9003   2.229   0.062   7.145 -0.9107  0.6158 -0.2905
   89CHL1   H7A 9004   2.253  -0.046   7.156  0.4886  1.0776  1.6115
   89CHL1   H7B 9005   2.325   0.117   7.144  0.6484 -1.8970 -2.5188
   89CHL1    C8 9006   2.144   0.107   7.268 -0.7612  0.6276  0.5290
   89CHL1    H8 9007   2.053   0.043   7.267  0.2538 -0.9823 -2.8919
   89CHL1   C14 9008   2.218   0.090   7.403  0.4163  0.2954  0.3193
   89CHL1   H14 9009   2.310   0.151   7.394 -0.0917  0.8175 -1.7530
   89CHL1   C15 9010   2.271  -0.050   7.443  0.1859  0.8561 -0.5799
   89CHL1  H15A 9011   2.186  -0.121   7.435  0.7921  0.0050  0.3167
   89CHL1  H15B 9012   2.354  -0.088   7.380 -1.4241 -2.0534 -1.1356
   89CHL1   C16 9013   2.297  -0.039   7.596 -0.6960 -0.0602  0.1318
   89CHL1  H16A 9014   2.232  -0.117   7.641  2.4327 -1.7593  2.0914
   89CHL1  H16B 9015   2.407  -0.047   7.615 -0.3446  1.1503 -1.2468
   89CHL1   C17 9016   2.250   0.103   7.637  0.0292  0.6444 -0.2034
   89CHL1   H17 9017   2.336   0.174   7.634  0.2356  0.3907 -0.3397
   89CHL1   C13 9018   2.149   0.145   7.523  0.0437 -0.1544 -0.2192
   89CHL1   C18 9019   2.007   0.088   7.545  0.6456  0.0314  0.1352
   89CHL1  H18A 9020   1.946   0.098   7.453  1.2936 -0.1228 -0.3168
   89CHL1  H18B 9021   2.015  -0.018   7.575 -0.0208 -0.7442 -2.2221
   89CHL1  H18C 9022   1.943   0.134   7.624  0.0092 -2.2333  1.0302
   89CHL1   C12 9023   2.135   0.297   7.496  0.2943 -0.4878  1.1740
   89CHL1  H12A 9024   2.074   0.335   7.580 -1.5763  0.4291 -0.5101
   89CHL1  H12B 9025   2.232   0.350   7.484  0.0119  0.4595  2.7517
   89CHL1   C11 9026   2.057   0.325   7.367 -0.0654 -0.3951 -0.1031
   89CHL1  H11A 9027   1.949   0.310   7.389 -0.5948 -0.0100 -2.2193
   89CHL1  H11B 9028   2.059   0.431   7.333  1.3696 -0.8326 -1.5416
   89CHL1    C9 9029   2.104   0.248   7.242  0.2034  0.7759  0.5858
   89CHL1    H9 9030   2.201   0.293   7.210  0.3578 -0.8209 -1.4336
   89CHL1   C10 9031   2.015   0.252   7.115 -0.0182  0.0741  0.5969
   89CHL1   C19 9032   1.866   0.225   7.151  0.1630  0.5809 -0.4008
   89CHL1  H19A 9033   1.860   0.137   7.218 -0.1070  0.0158 -1.1470
   89CHL1  H19B 9034   1.809   0.313   7.188 -2.2483  0.1160 -2.6650
   89CHL1  H19C 9035   1.807   0.193   7.062 -0.3219  1.3697 -0.3713
   89CHL1    C1 9036   2.026   0.399   7.062 -0.0759 -0.0888 -0.6745
   89CHL1   H1A 9037   1.979   0.458   7.144  1.9058  0.3849  0.1693
   89CHL1   H1B 9038   2.132   0.430   7.054 -0.7170  2.0219 -1.6356
   89CHL1    C2 9039   1.955   0.421   6.924 -0.2077 -0.1017 -0.0874
   89CHL1   H2A 9040   1.960   0.527   6.891  0.1579  0.3053  1.2401
   89CHL1   H2B 9041   1.852   0.388   6.947  0.4998 -1.0803  1.9100
   89CHL1   C20 9042   2.203   0.106   7.783  0.1040  0.8102 -0.2765
   89CHL1   H20 9043   2.101   0.064   7.794 -0.5027  2.1870 -0.4822
   89CHL1   C21 9044   2.184   0.245   7.840  0.8748 -0.5741 -0.2775
   89CHL1  H21A 9045   2.149   0.316   7.762 -0.8687 -0.6837  0.3568
   89CHL1  H21B 9046   2.279   0.282   7.883  0.4054  0.1134  0.1737
   89CHL1  H21C 9047   2.102   0.241   7.916  0.2461  0.4969 -0.8730
   89CHL1   C22 9048   2.297   0.027   7.870 -0.0422 -0.6172  0.8490
   89CHL1  H22A 9049   2.324  -0.074   7.833  0.8475 -0.6594  1.5757
   89CHL1  H22B 9050   2.396   0.077   7.862 -0.2266 -0.4344 -0.6588
   89CHL1   C23 9051   2.259   0.016   8.016 -0.0336 -0.4879  1.0228
   89CHL1  H23A 9052   2.271   0.117   8.061 -0.8776 -0.2284  0.6842
   89CHL1  H23B 9053   2.153  -0.009   8.041 -0.6445  0.0304 -0.9055
   89CHL1   C24 9054   2.343  -0.082   8.098 -0.1052 -0.2243  0.4126
   89CHL1  H24A 9055   2.340  -0.180   8.046 -0.2594  0.9514 -1.9267
   89CHL1  H24B 9056   2.446  -0.044   8.086  0.3810 -1.5064  0.3214
   89CHL1   C25 9057   2.307  -0.103   8.249  0.4964  0.1726 -0.2942
   89CHL1   H25 9058   2.374  -0.186   8.281  0.4120 -0.2715 -1.2170
   89CHL1   C26 9059   2.350   0.021   8.335  0.6880 -0.0129  0.2535
   89CHL1  H26A 9060   2.279   0.106   8.334  2.7492  1.8522  1.8590
   89CHL1  H26B 9061   2.347  -0.002   8.444  0.6631  1.1356  0.5061
   89CHL1  H26C 9062   2.456   0.048   8.316 -0.2076  2.3925 -1.9763
   89CHL1   C27 9063   2.159  -0.134   8.287  0.3803  0.3329 -0.3520
   89CHL1  H27A 9064   2.155  -0.154   8.396 -0.0886 -1.1849 -0.6212
   89CHL1  H27B 9065   2.103  -0.040   8.268  1.0108  0.5279 -1.3169
   89CHL1  H27C 9066   2.118  -0.221   8.231 -1.7903 -0.7012  2.5734
   90CHL1    C3 9067   4.339   2.596   6.872 -0.2288 -0.1183  0.5308
   90CHL1    H3 9068   4.267   2.677   6.893 -0.7164  0.5786 -3.1090
   90CHL1    O3 9069   4.359   2.599   6.735 -0.5791  0.3964  0.5238
   90CHL1   H3' 9070   4.438   2.651   6.718 -0.4343 -0.1835 -0.6462
   90CHL1    C4 9071   4.479   2.634   6.947  0.9814 -0.4684  1.0644
   90CHL1   H4A 9072   4.559   2.571   6.902  0.6431 -1.3986  1.7337
   90CHL1   H4B 9073   4.504   2.739   6.921 -0.8827 -0.4015 -0.7781
   90CHL1    C5 9074   4.470   2.616   7.095  0.8263 -0.1171  1.3271
   90CHL1    C6 9075   4.511   2.706   7.182 -0.2599  0.5210 -0.6481
   90CHL1    H6 9076   4.544   2.806   7.150 -0.8039  0.7688 -0.4407
   90CHL1    C7 9077   4.517   2.686   7.330  0.4636 -1.0081  0.1264
   90CHL1   H7A 9078   4.613   2.717   7.376  0.4453 -2.2289  1.0458
   90CHL1   H7B 9079   4.433   2.750   7.364  0.1742 -0.3775 -1.6635
   90CHL1    C8 9080   4.501   2.537   7.376  0.3851 -1.0345 -0.0913
   90CHL1    H8 9081   4.593   2.476   7.370  1.0149 -0.1466  0.2689
   90CHL1   C14 9082   4.449   2.533   7.523  0.4893 -0.8590  0.6061
   90CHL1   H14 9083   4.353   2.589   7.522  1.2772  0.5245  0.3411
   90CHL1   C15 9084   4.537   2.613   7.619  0.1857  0.7272 -0.4279
   90CHL1  H15A 9085   4.643   2.581   7.613  0.2848  0.8498  0.5382
   90CHL1  H15B 9086   4.529   2.723   7.608 -1.1534  0.7248  0.3228
   90CHL1   C16 9087   4.472   2.568   7.759 -0.3213 -0.0507 -0.2165
   90CHL1  H16A 9088   4.563   2.536   7.814 -0.8856 -0.7158  0.3374
   90CHL1  H16B 9089   4.420   2.656   7.801 -0.7429  0.8543 -2.4650
   90CHL1   C17 9090   4.373   2.450   7.727 -0.1510  0.5394  0.4752
   90CHL1   H17 9091   4.270   2.489   7.715 -0.4309 -0.3739 -0.1920
   90CHL1   C13 9092   4.416   2.399   7.579  0.1272 -0.0633 -0.7889
   90CHL1   C18 9093   4.548   2.317   7.598  0.4292  0.3104  0.0097
   90CHL1  H18A 9094   4.605   2.311   7.503 -0.1019  1.0350 -0.3661
   90CHL1  H18B 9095   4.613   2.356   7.679  0.2998 -0.9574  0.7613
   90CHL1  H18C 9096   4.518   2.216   7.632 -0.2055 -0.0158 -1.4391
   90CHL1   C12 9097   4.310   2.331   7.498  0.5155  0.4426 -0.4068
   90CHL1  H12A 9098   4.278   2.231   7.535 -0.8904  0.5405 -1.2735
   90CHL1  H12B 9099   4.222   2.398   7.500 -2.2570 -2.8827 -0.7046
   90CHL1   C11 9100   4.356   2.329   7.346 -0.0784 -0.3029 -0.2484
   90CHL1  H11A 9101   4.438   2.255   7.347 -0.2004 -0.4549 -1.1099
   90CHL1  H11B 9102   4.276   2.281   7.286 -0.8900 -1.7041  1.8351
   90CHL1    C9 9103   4.399   2.466   7.288  0.2169  0.8160  0.6056
   90CHL1    H9 9104   4.311   2.533   7.303  1.1020  2.6004 -1.5906
   90CHL1   C10 9105   4.428   2.475   7.135  0.0713  0.2979 -0.2311
   90CHL1   C19 9106   4.536   2.374   7.109 -0.1247 -0.1504  0.1552
   90CHL1  H19A 9107   4.495   2.273   7.135 -3.0484  0.7461 -0.6439
   90CHL1  H19B 9108   4.558   2.377   7.000 -1.9599 -0.0998 -0.2445
   90CHL1  H19C 9109   4.626   2.407   7.165 -1.6387  4.1505  0.3771
   90CHL1    C1 9110   4.295   2.434   7.065  0.3361  0.0641 -0.3974
   90CHL1   H1A 9111   4.282   2.326   7.084 -1.0257  0.3892  0.7034
   90CHL1   H1B 9112   4.210   2.492   7.107  0.0382 -1.9438  2.0037
   90CHL1    C2 9113   4.297   2.456   6.912 -0.6281 -0.1210  0.0830
   90CHL1   H2A 9114   4.201   2.431   6.862 -0.7652 -1.3939  0.9372
   90CHL1   H2B 9115   4.383   2.405   6.864  1.0388  2.1042  0.5353
   90CHL1   C20 9116   4.369   2.349   7.849  0.1210 -0.0740  0.4543
   90CHL1   H20 9117   4.471   2.305   7.854  1.0183  1.8795  0.2876
   90CHL1   C21 9118   4.272   2.231   7.822 -0.3185 -0.4995 -0.1078
   90CHL1  H21A 9119   4.305   2.168   7.737 -0.8380 -0.7843 -0.1036
   90CHL1  H21B 9120   4.179   2.288   7.805  0.2630 -0.2491 -2.8856
   90CHL1  H21C 9121   4.265   2.171   7.916 -2.7956  0.2073  0.2208
   90CHL1   C22 9122   4.354   2.411   7.990 -0.3151  0.3814  0.5904
   90CHL1  H22A 9123   4.358   2.329   8.064 -2.1077  0.9872  1.4050
   90CHL1  H22B 9124   4.450   2.466   8.006  1.9691 -2.9571 -0.6916
   90CHL1   C23 9125   4.229   2.504   8.013 -0.0452 -0.3770  0.9160
   90CHL1  H23A 9126   4.252   2.601   7.965 -0.3667 -0.5411  0.4127
   90CHL1  H23B 9127   4.146   2.460   7.954 -1.5890 -1.0654  3.4186
   90CHL1   C24 9128   4.195   2.521   8.156 -0.1281  0.3037  0.5758
   90CHL1  H24A 9129   4.089   2.553   8.167 -0.2214  0.2088 -0.0482
   90CHL1  H24B 9130   4.204   2.420   8.202  0.7184 -0.3415 -0.9410
   90CHL1   C25 9131   4.298   2.607   8.226 -0.3375  0.7840  0.5762
   90CHL1   H25 9132   4.393   2.581   8.176 -1.2654 -1.7564  0.0069
   90CHL1   C26 9133   4.275   2.754   8.207 -0.4244 -0.0840 -0.7506
   90CHL1  H26A 9134   4.348   2.803   8.275 -1.1967  0.3824 -0.2468
   90CHL1  H26B 9135   4.288   2.783   8.100  0.8948  2.8009  0.0725
   90CHL1  H26C 9136   4.174   2.781   8.245 -0.7156  1.4480 -2.4411
   90CHL1   C27 9137   4.325   2.561   8.368 -0.4302 -0.1835 -0.3334
   90CHL1  H27A 9138   4.367   2.458   8.360 -0.8268 -0.2598 -1.7576
   90CHL1  H27B 9139   4.397   2.630   8.417  0.8700 -0.0778 -2.2668
   90CHL1  H27C 9140   4.231   2.551   8.426 -0.6014  2.3407 -0.0730
   91CHL1    C3 9141   5.502   1.799   7.252 -0.2693  0.3677  0.1300
   91CHL1    H3 9142   5.408   1.742   7.236  0.8134 -0.9912 -1.7385
   91CHL1    O3 9143   5.575   1.806   7.131 -0.0789  0.3948  0.5181
   91CHL1   H3' 9144   5.665   1.792   7.160 -0.6646  1.0470  2.8967
   91CHL1    C4 9145   5.486   1.932   7.321 -0.3418  0.1234 -0.0339
   91CHL1   H4A 9146   5.585   1.983   7.321 -0.0074 -0.5039 -0.8140
   91CHL1   H4B 9147   5.433   2.010   7.261  0.3351  0.3366 -0.3623
   91CHL1    C5 9148   5.427   1.925   7.457 -0.1098  1.1064 -0.2758
   91CHL1    C6 9149   5.319   1.998   7.494  0.8358 -0.0920  0.2826
   91CHL1    H6 9150   5.272   2.067   7.422  0.9702 -0.1659  0.1207
   91CHL1    C7 9151   5.260   1.992   7.629 -0.2787 -0.3546 -0.2415
   91CHL1   H7A 9152   5.259   2.101   7.646  2.0111 -0.2974 -0.2190
   91CHL1   H7B 9153   5.155   1.955   7.622 -0.1207 -1.1162  1.1576
   91CHL1    C8 9154   5.344   1.918   7.728  0.4264 -0.0592 -0.0645
   91CHL1    H8 9155   5.428   1.983   7.760  0.2446 -0.7569  1.9719
   91CHL1   C14 9156   5.257   1.892   7.846  0.8492 -0.2644 -0.1755
   91CHL1   H14 9157   5.172   1.829   7.813  1.1837 -0.3612 -0.8767
   91CHL1   C15 9158   5.174   2.010   7.911  0.4062  1.0220 -0.0255
   91CHL1  H15A 9159   5.238   2.096   7.941 -1.6596  1.9427  2.0420
   91CHL1  H15B 9160   5.083   2.041   7.856 -0.3511 -0.7306  0.1749
   91CHL1   C16 9161   5.132   1.950   8.053 -0.3562 -0.7499 -0.3332
   91CHL1  H16A 9162   5.156   2.031   8.125 -1.3836 -0.0143 -0.8090
   91CHL1  H16B 9163   5.024   1.926   8.062 -0.1931 -1.2691  0.4382
   91CHL1   C17 9164   5.221   1.825   8.072 -0.4334  0.1885 -0.4936
   91CHL1   H17 9165   5.159   1.737   8.046  0.0896 -0.5735  0.7303
   91CHL1   C13 9166   5.324   1.824   7.955 -0.3682 -0.5159 -0.7368
   91CHL1   C18 9167   5.435   1.907   8.015 -0.3368  0.2569 -0.0662
   91CHL1  H18A 9168   5.485   1.861   8.103  2.0246  1.6808 -0.5701
   91CHL1  H18B 9169   5.518   1.925   7.943 -1.8254 -0.1458 -1.9557
   91CHL1  H18C 9170   5.402   2.008   8.047  0.1048  0.5353 -0.4647
   91CHL1   C12 9171   5.367   1.691   7.908 -0.2296 -0.3986  0.8968
   91CHL1  H12A 9172   5.420   1.627   7.982  0.7262  1.0899  1.5463
   91CHL1  H12B 9173   5.284   1.632   7.865 -1.7703  1.7094  0.8223
   91CHL1   C11 9174   5.454   1.698   7.778 -1.1636 -0.1956  0.6667
   91CHL1  H11A 9175   5.559   1.724   7.801 -0.1066 -1.3947 -2.3782
   91CHL1  H11B 9176   5.477   1.598   7.735  3.0748  0.7750  0.2366
   91CHL1    C9 9177   5.396   1.788   7.668 -0.2537  0.3224  0.5937
   91CHL1    H9 9178   5.306   1.741   7.622  0.2657 -0.0621 -0.0458
   91CHL1   C10 9179   5.490   1.821   7.552 -0.2343  0.1338  0.7009
   91CHL1   C19 9180   5.612   1.904   7.586  0.1100  0.4747 -0.1569
   91CHL1  H19A 9181   5.591   2.001   7.637 -3.3919 -1.1223  1.7739
   91CHL1  H19B 9182   5.670   1.843   7.660 -0.7401  0.8019  0.8011
   91CHL1  H19C 9183   5.683   1.917   7.502 -1.9997  1.1215 -1.9195
   91CHL1    C1 9184   5.520   1.692   7.473  0.0403  0.3823  0.0664
   91CHL1   H1A 9185   5.580   1.633   7.545 -0.7469 -0.6240 -0.0748
   91CHL1   H1B 9186   5.431   1.626   7.462 -0.3251  0.7314  0.8680
   91CHL1    C2 9187   5.588   1.710   7.338  1.2685  0.0370 -0.6980
   91CHL1   H2A 9188   5.608   1.613   7.289  2.1230 -0.2293  0.1359
   91CHL1   H2B 9189   5.685   1.762   7.356  0.1326  1.7698  0.7974
   91CHL1   C20 9190   5.258   1.777   8.208  0.1302  0.3433 -0.2112
   91CHL1   H20 9191   5.351   1.719   8.196  0.4784  0.2959  2.2687
   91CHL1   C21 9192   5.149   1.680   8.260  0.0807 -0.0942  0.0682
   91CHL1  H21A 9193   5.054   1.738   8.254  0.3898  0.3809 -0.3661
   91CHL1  H21B 9194   5.165   1.638   8.361 -0.2246 -1.7125 -0.5346
   91CHL1  H21C 9195   5.137   1.594   8.192  1.0579 -0.5409  0.4491
   91CHL1   C22 9196   5.284   1.884   8.310  0.3277 -0.4609  0.1883
   91CHL1  H22A 9197   5.348   1.961   8.262 -1.2353  0.3464 -0.6978
   91CHL1  H22B 9198   5.193   1.944   8.335  1.0590  1.3875 -1.3714
   91CHL1   C23 9199   5.361   1.841   8.439 -0.3467 -0.1276 -0.3983
   91CHL1  H23A 9200   5.374   1.927   8.508 -0.7622 -0.5417  0.2007
   91CHL1  H23B 9201   5.299   1.762   8.486 -2.3859  0.9595 -1.1045
   91CHL1   C24 9202   5.496   1.782   8.420  0.7546 -0.1837 -0.3097
   91CHL1  H24A 9203   5.487   1.671   8.421 -1.2746 -0.0603 -0.3732
   91CHL1  H24B 9204   5.541   1.815   8.325 -1.5713 -1.0601 -1.8024
   91CHL1   C25 9205   5.601   1.824   8.524  0.5015  0.2922 -1.3935
   91CHL1   H25 9206   5.688   1.757   8.512  1.4377  0.7206  1.9019
   91CHL1   C26 9207   5.661   1.966   8.496  0.1753  0.2012 -0.5302
   91CHL1  H26A 9208   5.765   1.961   8.533  0.0352 -1.0661 -0.2768
   91CHL1  H26B 9209   5.668   1.980   8.386 -1.4190 -0.6585 -0.7750
   91CHL1  H26C 9210   5.594   2.043   8.541 -1.4680 -0.6627 -1.3871
   91CHL1   C27 9211   5.552   1.810   8.671  0.1471  0.2200  0.1307
   91CHL1  H27A 9212   5.637   1.820   8.742 -0.2196  0.2783  0.5672
   91CHL1  H27B 9213   5.471   1.880   8.699 -2.3301 -1.8667 -1.4121
   91CHL1  H27C 9214   5.524   1.703   8.680  0.2302 -0.0568 -2.3642
   92CHL1    C3 9215   6.138   6.106   6.768 -0.0768  0.1804  0.3058
   92CHL1    H3 9216   6.073   6.185   6.724  0.1972 -0.8796 -2.1999
   92CHL1    O3 9217   6.187   6.039   6.655 -0.1675  0.2895  0.1258
   92CHL1   H3' 9218   6.146   5.952   6.653 -0.1012  0.2131 -2.9827
   92CHL1    C4 9219   6.246   6.183   6.845 -0.4621  0.8034 -0.0160
   92CHL1   H4A 9220   6.330   6.112   6.862  0.4142  1.4580 -1.3648
   92CHL1   H4B 9221   6.280   6.267   6.781 -0.4169  0.5209 -0.3689
   92CHL1    C5 9222   6.179   6.243   6.969 -0.4630 -0.0577  0.3174
   92CHL1    C6 9223   6.171   6.374   6.991 -0.1495 -0.5197 -0.0898
   92CHL1    H6 9224   6.231   6.438   6.925  0.8252 -2.4720 -1.1607
   92CHL1    C7 9225   6.123   6.427   7.124 -0.1228 -0.1221 -0.1315
   92CHL1   H7A 9226   6.188   6.514   7.149 -1.1495  0.7673 -0.5116
   92CHL1   H7B 9227   6.021   6.469   7.111 -0.3748 -0.3912  0.8593
   92CHL1    C8 9228   6.113   6.331   7.238 -0.0319  0.4004  0.6322
   92CHL1    H8 9229   6.218   6.305   7.263  0.2890  2.5549  1.7016
   92CHL1   C14 9230   6.041   6.388   7.369 -0.3762 -0.4365 -0.0190
   92CHL1   H14 9231   5.944   6.432   7.339 -0.5444 -0.7026  0.1341
   92CHL1   C15 9232   6.111   6.508   7.436  0.8012  0.7575 -0.4840
   92CHL1  H15A 9233   6.220   6.490   7.443  0.6619  0.1393  0.2174
   92CHL1  H15B 9234   6.077   6.605   7.394 -1.3477  1.2409  2.1254
   92CHL1   C16 9235   6.058   6.507   7.580  0.3305 -0.9073  0.6537
   92CHL1  H16A 9236   6.152   6.508   7.639  2.1572  1.3573 -2.0137
   92CHL1  H16B 9237   5.992   6.596   7.592 -0.1792 -1.1731 -0.1689
   92CHL1   C17 9238   5.979   6.380   7.600 -0.0973  0.5708 -0.0540
   92CHL1   H17 9239   5.873   6.408   7.580 -0.8139 -1.6067  0.3826
   92CHL1   C13 9240   6.025   6.288   7.480 -0.3865  0.0586 -0.5863
   92CHL1   C18 9241   6.171   6.234   7.513  1.1236 -0.3791  0.3290
   92CHL1  H18A 9242   6.168   6.166   7.601 -0.5236 -1.5509 -0.5679
   92CHL1  H18B 9243   6.216   6.193   7.420  0.1464  1.2547 -0.9072
   92CHL1  H18C 9244   6.243   6.312   7.546  0.3807 -0.0904  1.2972
   92CHL1   C12 9245   5.931   6.184   7.422 -0.4118 -0.1284 -0.7391
   92CHL1  H12A 9246   5.895   6.109   7.496 -1.8644 -1.8733 -3.0608
   92CHL1  H12B 9247   5.836   6.227   7.384 -1.0280  0.1444  1.0237
   92CHL1   C11 9248   5.996   6.113   7.299  0.5083  1.1847 -0.2703
   92CHL1  H11A 9249   6.070   6.042   7.341 -0.2476 -0.9555 -2.3111
   92CHL1  H11B 9250   5.919   6.051   7.247 -1.5485  1.3244  2.3864
   92CHL1    C9 9251   6.042   6.209   7.186 -0.6629 -0.1872  0.6840
   92CHL1    H9 9252   5.948   6.255   7.150 -0.7928 -0.3359  0.8373
   92CHL1   C10 9253   6.117   6.144   7.066 -0.3505  0.1745 -0.1083
   92CHL1   C19 9254   6.220   6.037   7.122  0.1169 -0.4267 -0.1027
   92CHL1  H19A 9255   6.272   6.084   7.207 -1.0311 -1.9470  1.5089
   92CHL1  H19B 9256   6.169   5.945   7.159 -0.5082  0.6550  1.8122
   92CHL1  H19C 9257   6.291   6.014   7.039 -1.0584 -0.1483 -1.2233
   92CHL1    C1 9258   6.012   6.068   6.983 -0.5708  0.6189  0.2931
   92CHL1   H1A 9259   5.963   5.984   7.035 -1.7685 -0.1022 -1.8861
   92CHL1   H1B 9260   5.933   6.145   6.969 -0.5470  0.4387 -0.8843
   92CHL1    C2 9261   6.048   6.016   6.849 -0.3281  0.7402 -0.3920
   92CHL1   H2A 9262   5.956   5.997   6.790 -0.5985 -2.1694  0.8141
   92CHL1   H2B 9263   6.098   5.917   6.859  3.0134  2.5419  2.8643
   92CHL1   C20 9264   5.985   6.322   7.743  0.6500  0.3259 -0.1551
   92CHL1   H20 9265   6.092   6.300   7.760  0.7526  0.6096 -0.4221
   92CHL1   C21 9266   5.899   6.194   7.748  0.0095 -0.1588 -0.2466
   92CHL1  H21A 9267   5.808   6.215   7.688 -0.0526 -0.1210 -0.1380
   92CHL1  H21B 9268   5.865   6.162   7.849  0.5382  1.5189  0.4870
   92CHL1  H21C 9269   5.961   6.111   7.708  2.4648  0.7047  1.5283
   92CHL1   C22 9270   5.941   6.414   7.857  0.4595  0.8093 -0.5993
   92CHL1  H22A 9271   6.016   6.496   7.854  0.5534  0.8900  1.8289
   92CHL1  H22B 9272   5.842   6.460   7.837  0.8359  1.7900 -0.2639
   92CHL1   C23 9273   5.950   6.349   7.996 -0.4789 -0.4285 -0.3421
   92CHL1  H23A 9274   5.919   6.435   8.060 -2.5537  1.3212 -3.4388
   92CHL1  H23B 9275   5.876   6.268   8.015  0.1016 -1.2186 -1.3818
   92CHL1   C24 9276   6.092   6.300   8.023  0.4929 -0.3531 -0.3261
   92CHL1  H24A 9277   6.123   6.206   7.973 -0.5836  0.5759 -2.8673
   92CHL1  H24B 9278   6.160   6.386   8.007 -2.1768  2.3169  1.5345
   92CHL1   C25 9279   6.101   6.274   8.174  0.0522 -0.2100  0.4915
   92CHL1   H25 9280   6.036   6.187   8.199  0.6954 -0.9929 -0.4955
   92CHL1   C26 9281   6.244   6.223   8.211 -0.2251 -0.0299  0.6119
   92CHL1  H26A 9282   6.245   6.191   8.317 -2.9590 -2.5436  0.0154
   92CHL1  H26B 9283   6.273   6.134   8.151 -1.4644 -0.4892  0.6670
   92CHL1  H26C 9284   6.312   6.307   8.186 -0.0434 -0.0481  1.0375
   92CHL1   C27 9285   6.069   6.390   8.275  0.3992 -0.0066  0.1691
   92CHL1  H27A 9286   6.110   6.369   8.376 -3.0241 -1.1982  1.4434
   92CHL1  H27B 9287   6.108   6.483   8.229 -1.2709  0.9308  0.5977
   92CHL1  H27C 9288   5.961   6.411   8.283  0.0376 -0.9343 -1.6828
   93CHL1    C3 9289   6.323   2.427   6.945  0.0993 -0.0127  0.0944
   93CHL1    H3 9290   6.373   2.328   6.943  2.5738  1.1303  0.9853
   93CHL1    O3 9291   6.292   2.463   6.814 -0.0347 -0.1984  0.2555
   93CHL1   H3' 9292   6.246   2.547   6.819 -1.4235 -0.9476  0.5842
   93CHL1    C4 9293   6.196   2.401   7.032 -0.0438 -0.0123 -0.6834
   93CHL1   H4A 9294   6.124   2.485   7.024 -0.0856  0.1251  0.8916
   93CHL1   H4B 9295   6.148   2.313   6.985  0.9872 -1.1348  0.3009
   93CHL1    C5 9296   6.225   2.376   7.181  0.0666  0.0892 -0.2039
   93CHL1    C6 9297   6.166   2.270   7.242 -0.3694 -0.1662 -0.0315
   93CHL1    H6 9298   6.097   2.206   7.185 -0.4237  0.3605 -0.5691
   93CHL1    C7 9299   6.192   2.251   7.389  0.4376  1.1092 -0.9532
   93CHL1   H7A 9300   6.097   2.232   7.443  1.4182  0.0423  0.4774
   93CHL1   H7B 9301   6.245   2.154   7.403 -2.4059 -0.3284  0.8326
   93CHL1    C8 9302   6.266   2.366   7.465 -0.4049 -0.3746  0.5003
   93CHL1    H8 9303   6.196   2.451   7.480  0.6155  0.6728 -0.4769
   93CHL1   C14 9304   6.322   2.313   7.596  0.0593 -0.1787  0.3866
   93CHL1   H14 9305   6.405   2.245   7.569  0.9815 -0.1918  2.9029
   93CHL1   C15 9306   6.240   2.226   7.681  0.0879  0.4689  0.2872
   93CHL1  H15A 9307   6.130   2.235   7.674  0.2048  0.7715 -1.9692
   93CHL1  H15B 9308   6.260   2.123   7.645 -2.1039 -0.7167  2.2029
   93CHL1   C16 9309   6.283   2.251   7.822  0.3784  0.1729  0.2243
   93CHL1  H16A 9310   6.200   2.302   7.876  1.2401  0.6641  1.1358
   93CHL1  H16B 9311   6.294   2.165   7.892  1.8486 -0.3101 -0.5560
   93CHL1   C17 9312   6.413   2.336   7.813  0.5490  0.2083 -0.1398
   93CHL1   H17 9313   6.494   2.262   7.798 -0.1693 -0.7543  0.6328
   93CHL1   C13 9314   6.390   2.419   7.682  0.1809  0.2945 -1.0089
   93CHL1   C18 9315   6.286   2.527   7.722 -0.1162  0.1098  0.3251
   93CHL1  H18A 9316   6.243   2.568   7.628  0.5938 -0.8344 -0.4270
   93CHL1  H18B 9317   6.200   2.496   7.785 -1.7207  2.5395 -0.5336
   93CHL1  H18C 9318   6.335   2.605   7.785  3.0941 -1.5835  0.1325
   93CHL1   C12 9319   6.509   2.468   7.599  0.2541  0.2673 -0.5234
   93CHL1  H12A 9320   6.566   2.550   7.648 -0.5925 -0.4044  1.6679
   93CHL1  H12B 9321   6.577   2.382   7.583  4.1930  2.9580  0.3910
   93CHL1   C11 9322   6.469   2.519   7.456  0.1120  1.0058 -0.5278
   93CHL1  H11A 9323   6.431   2.624   7.462 -1.7964  0.5663 -3.3196
   93CHL1  H11B 9324   6.564   2.523   7.400  1.4565 -2.0800  1.2814
   93CHL1    C9 9325   6.378   2.421   7.376 -0.9920  0.0557 -0.5610
   93CHL1    H9 9326   6.437   2.329   7.357 -0.2685  0.4985 -0.5040
   93CHL1   C10 9327   6.320   2.482   7.243  0.4009 -0.0953 -0.3148
   93CHL1   C19 9328   6.245   2.613   7.269 -0.2532 -0.0032  0.0772
   93CHL1  H19A 9329   6.156   2.598   7.333 -0.1003  0.6324  0.4497
   93CHL1  H19B 9330   6.316   2.694   7.296 -0.2908  0.6558 -1.6750
   93CHL1  H19C 9331   6.195   2.651   7.177 -0.5428  0.8058  0.5650
   93CHL1    C1 9332   6.440   2.509   7.149 -0.1021 -0.2346 -0.5150
   93CHL1   H1A 9333   6.486   2.605   7.180 -1.2651  0.0652  0.3536
   93CHL1   H1B 9334   6.519   2.432   7.154  1.8644  1.7430  0.4743
   93CHL1    C2 9335   6.408   2.536   7.007 -0.5550 -0.0660 -0.1695
   93CHL1   H2A 9336   6.503   2.548   6.951 -0.0298  0.5150  0.8178
   93CHL1   H2B 9337   6.361   2.637   7.001  0.9325  0.6598  0.0725
   93CHL1   C20 9338   6.447   2.411   7.941  0.4069  0.0692  0.0355
   93CHL1   H20 9339   6.385   2.503   7.957  1.0902  0.2043  2.2521
   93CHL1   C21 9340   6.596   2.447   7.926 -0.1337 -0.1871  0.0264
   93CHL1  H21A 9341   6.664   2.359   7.925  0.1893  0.0492 -1.4823
   93CHL1  H21B 9342   6.633   2.519   8.001  0.2599  0.3585 -0.6824
   93CHL1  H21C 9343   6.610   2.495   7.827 -0.6787 -1.9263 -0.9470
   93CHL1   C22 9344   6.424   2.335   8.068 -0.4123 -0.2946  0.4170
   93CHL1  H22A 9345   6.314   2.323   8.080 -0.8530  1.6966 -1.2078
   93CHL1  H22B 9346   6.484   2.242   8.056 -0.1414 -0.3530  1.9912
   93CHL1   C23 9347   6.463   2.411   8.202  0.5472 -0.3507  0.7625
   93CHL1  H23A 9348   6.573   2.420   8.207  0.4367  0.4914  2.7079
   93CHL1  H23B 9349   6.418   2.512   8.194 -2.6632 -1.5564  1.8575
   93CHL1   C24 9350   6.411   2.341   8.333 -0.1797  0.0561  0.9335
   93CHL1  H24A 9351   6.301   2.343   8.317  0.0738 -1.4037 -1.5402
   93CHL1  H24B 9352   6.444   2.236   8.323  1.8755  0.7808 -0.6327
   93CHL1   C25 9353   6.456   2.416   8.458 -0.3048 -0.3169  0.0277
   93CHL1   H25 9354   6.415   2.518   8.444 -0.5530 -0.4018  0.1443
   93CHL1   C26 9355   6.419   2.341   8.592  0.1680 -0.1590  0.4276
   93CHL1  H26A 9356   6.308   2.351   8.593  0.0801 -0.1386 -1.9756
   93CHL1  H26B 9357   6.462   2.239   8.585  0.4755 -0.0801  1.0727
   93CHL1  H26C 9358   6.461   2.388   8.683  0.0083 -0.8708  0.8737
   93CHL1   C27 9359   6.612   2.433   8.471 -0.3674 -0.5150  0.6379
   93CHL1  H27A 9360   6.643   2.515   8.403  2.4586 -1.9077  0.0859
   93CHL1  H27B 9361   6.645   2.452   8.575 -0.1149 -1.0510  0.6611
   93CHL1  H27C 9362   6.669   2.346   8.431  2.0239  0.8882  0.8481
   94CHL1    C3 9363   0.459   3.455   6.946 -1.0373  0.4469  0.1993
   94CHL1    H3 9364   0.556   3.401   6.948 -1.0115  0.5076  1.0467
   94CHL1    O3 9365   0.415   3.442   6.813 -0.0365  0.1939 -0.5590
   94CHL1   H3' 9366   0.319   3.452   6.815 -0.6327 -3.8325 -0.1383
   94CHL1    C4 9367   0.355   3.388   7.042 -0.1355  0.4835 -0.4982
   94CHL1   H4A 9368   0.259   3.443   7.038 -0.2297  0.2362 -1.9091
   94CHL1   H4B 9369   0.336   3.280   7.022  0.7517  0.2541 -0.1891
   94CHL1    C5 9370   0.406   3.398   7.184  1.0179  0.5365 -0.9097
   94CHL1    C6 9371   0.414   3.289   7.261  0.2449  0.4448 -0.0646
   94CHL1    H6 9372   0.372   3.193   7.227 -3.0139  1.4539  0.8002
   94CHL1    C7 9373   0.436   3.292   7.411  0.0063 -0.1016  0.0893
   94CHL1   H7A 9374   0.349   3.238   7.455 -1.4171  2.1119  0.1935
   94CHL1   H7B 9375   0.530   3.237   7.432  0.3751 -0.8665 -3.0649
   94CHL1    C8 9376   0.446   3.440   7.465  0.8750 -0.1748 -0.0407
   94CHL1    H8 9377   0.342   3.478   7.477  1.0452  0.9381 -1.8036
   94CHL1   C14 9378   0.525   3.441   7.598  0.4117 -0.1595 -0.1964
   94CHL1   H14 9379   0.626   3.404   7.573 -0.5683 -2.7641 -0.5956
   94CHL1   C15 9380   0.481   3.352   7.713 -0.0489  0.1381  0.2012
   94CHL1  H15A 9381   0.371   3.342   7.730  0.3600 -3.2915  1.8662
   94CHL1  H15B 9382   0.533   3.254   7.698 -0.1634  0.0422  0.4181
   94CHL1   C16 9383   0.531   3.420   7.850  1.2210  0.6874 -0.0815
   94CHL1  H16A 9384   0.439   3.445   7.907  1.2641 -1.7153  1.1413
   94CHL1  H16B 9385   0.594   3.356   7.915  1.9694  1.9221  0.4560
   94CHL1   C17 9386   0.615   3.542   7.794  0.8287 -0.0102 -0.3665
   94CHL1   H17 9387   0.717   3.509   7.766  0.3291 -0.5128 -1.6758
   94CHL1   C13 9388   0.545   3.577   7.656  1.1462 -0.1473  0.2205
   94CHL1   C18 9389   0.403   3.649   7.674  0.1367  0.4160  0.3090
   94CHL1  H18A 9390   0.327   3.591   7.731 -0.1088  0.0884 -0.3460
   94CHL1  H18B 9391   0.422   3.743   7.731  1.3514  2.0367 -2.5772
   94CHL1  H18C 9392   0.349   3.678   7.581  0.1188 -0.5914  0.0016
   94CHL1   C12 9393   0.632   3.661   7.562  0.2811 -0.6970 -1.0349
   94CHL1  H12A 9394   0.640   3.767   7.594  0.2312 -0.6643 -1.1298
   94CHL1  H12B 9395   0.735   3.624   7.579 -0.4418 -1.6366  2.0147
   94CHL1   C11 9396   0.568   3.670   7.425  0.5728 -0.0399 -0.3263
   94CHL1  H11A 9397   0.485   3.744   7.432  1.2008  0.6691 -0.2142
   94CHL1  H11B 9398   0.644   3.700   7.349 -2.2008  1.7073 -2.6198
   94CHL1    C9 9399   0.521   3.535   7.366 -0.1460  1.1924 -0.5379
   94CHL1    H9 9400   0.613   3.476   7.346 -1.6853 -1.0395 -1.4712
   94CHL1   C10 9401   0.440   3.540   7.237  0.2983  0.5612 -0.0509
   94CHL1   C19 9402   0.306   3.617   7.257  0.1992  0.2082 -0.5124
   94CHL1  H19A 9403   0.240   3.621   7.168  2.3268  1.8632 -2.1173
   94CHL1  H19B 9404   0.262   3.578   7.352  0.2092 -1.9570 -1.3345
   94CHL1  H19C 9405   0.319   3.726   7.269  2.0065  0.2030 -2.0206
   94CHL1    C1 9406   0.523   3.615   7.129 -0.8240  0.1300 -0.1314
   94CHL1   H1A 9407   0.532   3.725   7.143  1.7395  0.3336 -2.5236
   94CHL1   H1B 9408   0.627   3.576   7.131 -0.3786  1.2753 -0.5274
   94CHL1    C2 9409   0.479   3.607   6.982 -0.4385  0.1487 -0.2017
   94CHL1   H2A 9410   0.560   3.647   6.917  0.0725  0.1049  0.4066
   94CHL1   H2B 9411   0.377   3.645   6.956  0.3687  1.1188 -2.1166
   94CHL1   C20 9412   0.625   3.650   7.899 -0.4644  0.3223  0.9377
   94CHL1   H20 9413   0.542   3.724   7.896 -0.8743 -0.1484  0.3167
   94CHL1   C21 9414   0.749   3.729   7.871 -1.1043  0.2501  0.1556
   94CHL1  H21A 9415   0.837   3.662   7.883 -1.1506  0.3409  1.1334
   94CHL1  H21B 9416   0.764   3.810   7.947 -0.1668  0.1881  0.0390
   94CHL1  H21C 9417   0.748   3.782   7.774  0.5069 -1.0692 -0.6193
   94CHL1   C22 9418   0.613   3.600   8.048 -0.3045  0.2978 -0.5963
   94CHL1  H22A 9419   0.611   3.700   8.098  0.1288  0.7807 -1.5170
   94CHL1  H22B 9420   0.514   3.552   8.060  0.1649 -0.3147  1.0750
   94CHL1   C23 9421   0.734   3.528   8.110 -0.6631 -0.3885 -0.4161
   94CHL1  H23A 9422   0.747   3.426   8.069  0.2849 -1.7874  3.0203
   94CHL1  H23B 9423   0.820   3.594   8.087 -0.8488  0.5373  1.3846
   94CHL1   C24 9424   0.722   3.512   8.260  0.6537 -0.6634 -0.0966
   94CHL1  H24A 9425   0.684   3.606   8.306  0.6830 -1.3349  1.3559
   94CHL1  H24B 9426   0.646   3.431   8.264  1.3165 -1.4207 -1.9553
   94CHL1   C25 9427   0.844   3.455   8.340  0.5129  0.5438  0.2017
   94CHL1   H25 9428   0.921   3.533   8.321  0.5535 -0.1613 -3.1265
   94CHL1   C26 9429   0.811   3.445   8.486  0.7303 -0.4517 -0.0902
   94CHL1  H26A 9430   0.742   3.521   8.530  0.5330 -0.4232 -0.4407
   94CHL1  H26B 9431   0.757   3.353   8.516 -1.4740  1.0549  0.9555
   94CHL1  H26C 9432   0.904   3.455   8.545  0.5314  0.4343  0.0902
   94CHL1   C27 9433   0.890   3.319   8.278  0.4636 -1.4049  0.4796
   94CHL1  H27A 9434   0.897   3.337   8.168 -3.6425 -0.2538  0.2436
   94CHL1  H27B 9435   0.994   3.294   8.308  2.4607  1.4204 -3.2918
   94CHL1  H27C 9436   0.828   3.233   8.310  0.8629 -1.4947  1.0344
   95CHL1    C3 9437   1.179   5.850   6.667 -0.1687 -0.0128 -0.4562
   95CHL1    H3 9438   1.282   5.835   6.705  1.5051  1.0292 -4.1462
   95CHL1    O3 9439   1.190   5.872   6.532  0.3214 -0.0395 -0.2916
   95CHL1   H3' 9440   1.240   5.955   6.525 -0.2010  0.1593 -2.2106
   95CHL1    C4 9441   1.109   5.717   6.695  0.2946  0.1801  0.2662
   95CHL1   H4A 9442   1.010   5.711   6.645  0.7197 -1.5255 -0.4562
   95CHL1   H4B 9443   1.171   5.638   6.648  0.8346  0.8153 -0.0926
   95CHL1    C5 9444   1.079   5.693   6.839  0.0193  0.4200 -0.0462
   95CHL1    C6 9445   1.115   5.578   6.897 -0.0084  0.2188  0.1979
   95CHL1    H6 9446   1.174   5.507   6.837 -0.5786 -0.4769  0.4558
   95CHL1    C7 9447   1.087   5.545   7.039 -0.4632 -0.0637 -0.1704
   95CHL1   H7A 9448   1.048   5.441   7.038 -1.2484  0.2079 -1.7945
   95CHL1   H7B 9449   1.177   5.546   7.104  0.9814  1.0134 -2.0693
   95CHL1    C8 9450   0.973   5.638   7.103 -0.1102  0.4802  0.5013
   95CHL1    H8 9451   0.873   5.615   7.060  1.7441 -0.9595 -3.5646
   95CHL1   C14 9452   0.978   5.626   7.251  0.2299 -0.3883 -0.0079
   95CHL1   H14 9453   1.078   5.667   7.274  0.2317 -0.0855 -0.5460
   95CHL1   C15 9454   0.977   5.490   7.318 -0.1901 -0.6323 -0.0877
   95CHL1  H15A 9455   0.896   5.430   7.271  1.4954 -1.9796 -1.3940
   95CHL1  H15B 9456   1.073   5.435   7.308 -0.8010 -1.4734 -1.7143
   95CHL1   C16 9457   0.947   5.524   7.462 -0.2826 -0.5691 -0.0684
   95CHL1  H16A 9458   0.860   5.467   7.500 -1.0145  1.3327  1.2838
   95CHL1  H16B 9459   1.038   5.505   7.523 -0.0814 -0.3337 -0.2888
   95CHL1   C17 9460   0.909   5.678   7.474 -1.2987 -0.2544 -0.4621
   95CHL1   H17 9461   1.002   5.729   7.506 -2.5125  1.1130  1.0955
   95CHL1   C13 9462   0.882   5.715   7.323 -0.0937 -0.2285 -0.8181
   95CHL1   C18 9463   0.734   5.680   7.301 -0.2638 -0.2812  0.5178
   95CHL1  H18A 9464   0.722   5.660   7.192  0.9322 -0.5915  0.4283
   95CHL1  H18B 9465   0.709   5.582   7.346 -2.2148 -0.3353 -0.5609
   95CHL1  H18C 9466   0.658   5.755   7.332 -0.9258 -0.5088 -0.5136
   95CHL1   C12 9467   0.910   5.865   7.286 -0.4839  0.8735  0.3606
   95CHL1  H12A 9468   0.854   5.941   7.345 -0.2226  1.4314 -0.0992
   95CHL1  H12B 9469   1.012   5.898   7.314  0.1666 -1.4864  0.9595
   95CHL1   C11 9470   0.905   5.886   7.128 -0.1109 -0.5037  0.0875
   95CHL1  H11A 9471   0.799   5.881   7.095 -0.1346  2.0229 -0.3511
   95CHL1  H11B 9472   0.940   5.990   7.111 -1.4583 -0.2161 -1.0721
   95CHL1    C9 9473   0.992   5.781   7.058 -0.3721 -0.1731 -0.0967
   95CHL1    H9 9474   1.095   5.801   7.095 -0.0985 -1.0677 -0.3426
   95CHL1   C10 9475   0.998   5.800   6.905  0.5537 -0.5776  0.7240
   95CHL1   C19 9476   0.852   5.829   6.855 -0.5758 -0.3148 -0.3593
   95CHL1  H19A 9477   0.774   5.759   6.893 -1.3140  2.1699  3.2520
   95CHL1  H19B 9478   0.820   5.935   6.867 -1.8340 -0.4049 -2.4331
   95CHL1  H19C 9479   0.837   5.814   6.746 -3.8242 -0.4771  0.0103
   95CHL1    C1 9480   1.084   5.932   6.872  0.2372 -0.1285  0.1779
   95CHL1   H1A 9481   1.033   6.021   6.914  0.3397 -0.4946  1.1266
   95CHL1   H1B 9482   1.185   5.927   6.919  0.6815 -0.5450 -0.8076
   95CHL1    C2 9483   1.103   5.964   6.723  0.4402  0.9905  0.1752
   95CHL1   H2A 9484   1.160   6.058   6.704  0.7470  0.9566  0.8716
   95CHL1   H2B 9485   1.005   5.975   6.672 -0.3930 -1.1790  1.1795
   95CHL1   C20 9486   0.814   5.715   7.583  0.2379  0.4637  0.9351
   95CHL1   H20 9487   0.716   5.671   7.558 -0.4904  2.8697 -0.8272
   95CHL1   C21 9488   0.785   5.863   7.581  0.1390 -0.4054 -0.0542
   95CHL1  H21A 9489   0.733   5.888   7.486 -1.2803  0.1215  0.8286
   95CHL1  H21B 9490   0.873   5.930   7.578  1.2082 -1.7911 -0.9842
   95CHL1  H21C 9491   0.715   5.877   7.666  0.8473 -1.4099  0.7250
   95CHL1   C22 9492   0.869   5.674   7.723 -0.1452 -0.4854  0.4151
   95CHL1  H22A 9493   0.897   5.566   7.715 -1.4555 -0.8305  0.1022
   95CHL1  H22B 9494   0.943   5.749   7.756  0.3098 -0.1953 -1.1652
   95CHL1   C23 9495   0.753   5.663   7.830 -0.6865  0.0043  0.5009
   95CHL1  H23A 9496   0.809   5.621   7.916 -0.9515  0.8696  1.1172
   95CHL1  H23B 9497   0.715   5.758   7.874  0.6569 -0.9809  4.1231
   95CHL1   C24 9498   0.633   5.568   7.789  0.1370  0.4109  0.1176
   95CHL1  H24A 9499   0.569   5.617   7.713 -1.2426 -2.2339 -0.5310
   95CHL1  H24B 9500   0.672   5.473   7.746 -2.3742 -0.5178 -0.2788
   95CHL1   C25 9501   0.554   5.522   7.920 -0.2635  0.5775  0.3740
   95CHL1   H25 9502   0.623   5.480   7.996 -1.4201  1.0767  1.7272
   95CHL1   C26 9503   0.478   5.633   7.990  0.2847  0.1861 -0.2096
   95CHL1  H26A 9504   0.418   5.589   8.073 -0.3526  3.7408  1.4112
   95CHL1  H26B 9505   0.548   5.698   8.046  1.5569  0.4042 -1.9817
   95CHL1  H26C 9506   0.410   5.684   7.919 -1.7567 -1.8893  0.1374
   95CHL1   C27 9507   0.461   5.401   7.885 -0.3785 -0.5759  0.0910
   95CHL1  H27A 9508   0.425   5.350   7.977 -1.0341  1.2804  0.9185
   95CHL1  H27B 9509   0.368   5.440   7.837 -0.4113 -0.3356  0.3474
   95CHL1  H27C 9510   0.510   5.332   7.814 -0.9298 -1.4011  0.4979
   96CHL1    C3 9511   2.036   2.868   6.639 -0.3229  0.5219 -0.0528
   96CHL1    H3 9512   2.021   2.974   6.668 -0.0801  0.2469  1.1778
   96CHL1    O3 9513   1.969   2.823   6.526 -0.4015 -1.0556 -0.9627
   96CHL1   H3' 9514   2.003   2.888   6.464 -1.2910  0.8232  0.4289
   96CHL1    C4 9515   2.183   2.824   6.637 -0.3052  0.4618  0.5655
   96CHL1   H4A 9516   2.190   2.717   6.607  0.6893  1.3201 -2.6185
   96CHL1   H4B 9517   2.238   2.870   6.553 -0.5224  0.1239  0.2313
   96CHL1    C5 9518   2.260   2.844   6.767 -0.6971 -0.2157  0.4355
   96CHL1    C6 9519   2.383   2.907   6.779  0.1460 -0.4088  0.0913
   96CHL1    H6 9520   2.426   2.950   6.688 -1.2438 -1.8572 -1.3081
   96CHL1    C7 9521   2.461   2.917   6.905  0.6296  0.1797 -0.7970
   96CHL1   H7A 9522   2.568   2.903   6.880  1.1672  1.2300  0.7766
   96CHL1   H7B 9523   2.452   3.025   6.929  1.2049  0.6742 -2.6399
   96CHL1    C8 9524   2.412   2.825   7.019  0.1818  0.0601  0.0604
   96CHL1    H8 9525   2.462   2.729   6.995 -0.0327  0.0362 -0.3034
   96CHL1   C14 9526   2.454   2.877   7.153  0.3150 -0.5218  0.6579
   96CHL1   H14 9527   2.411   2.978   7.171 -0.7796 -0.4723 -1.8087
   96CHL1   C15 9528   2.599   2.924   7.168  0.2156 -0.2259  0.1161
   96CHL1  H15A 9529   2.668   2.857   7.112 -1.4296 -0.2140 -2.0777
   96CHL1  H15B 9530   2.621   3.026   7.128 -2.2445  0.5780  0.6574
   96CHL1   C16 9531   2.625   2.904   7.317 -0.0102 -0.1460  0.6251
   96CHL1  H16A 9532   2.721   2.852   7.340 -0.4926 -1.1814  0.3291
   96CHL1  H16B 9533   2.636   3.008   7.356 -2.2708  0.7119 -0.8297
   96CHL1   C17 9534   2.495   2.855   7.383  0.3038 -0.5572 -1.3207
   96CHL1   H17 9535   2.427   2.940   7.405  1.3052  0.3470 -1.5802
   96CHL1   C13 9536   2.426   2.779   7.269  0.6797  0.7989  0.4599
   96CHL1   C18 9537   2.489   2.639   7.245 -0.0101  1.2291  0.7432
   96CHL1  H18A 9538   2.600   2.641   7.243  0.1431 -2.1141  0.5508
   96CHL1  H18B 9539   2.463   2.564   7.323 -0.9541 -0.3554 -0.9832
   96CHL1  H18C 9540   2.458   2.590   7.150  2.2503 -0.7884  0.9489
   96CHL1   C12 9541   2.273   2.773   7.271  0.4559  0.9117  0.6864
   96CHL1  H12A 9542   2.228   2.706   7.347  2.3917  0.9324  1.9335
   96CHL1  H12B 9543   2.245   2.878   7.293  2.3425  1.7589 -0.6362
   96CHL1   C11 9544   2.199   2.731   7.142  0.3577  0.2807  0.3316
   96CHL1  H11A 9545   2.216   2.623   7.122  2.1447  0.6105 -0.0907
   96CHL1  H11B 9546   2.090   2.738   7.163  0.5426  1.0587  1.0989
   96CHL1    C9 9547   2.256   2.811   7.021 -0.1204 -0.2005  0.1619
   96CHL1    H9 9548   2.217   2.914   7.037  0.2739  0.2941 -1.8178
   96CHL1   C10 9549   2.190   2.774   6.888  0.2971  0.2445 -0.0185
   96CHL1   C19 9550   2.219   2.622   6.871  0.7437  0.1611  0.4218
   96CHL1  H19A 9551   2.329   2.604   6.872  0.7994 -0.9622 -3.7750
   96CHL1  H19B 9552   2.162   2.559   6.941  2.4144 -0.5379  1.2003
   96CHL1  H19C 9553   2.195   2.582   6.770  2.8341  0.9536 -0.4516
   96CHL1    C1 9554   2.033   2.800   6.893 -0.0891  0.6767  0.4997
   96CHL1   H1A 9555   1.989   2.738   6.974  2.5846 -0.0424  1.5074
   96CHL1   H1B 9556   2.018   2.907   6.922 -1.2152  0.5497  0.4197
   96CHL1    C2 9557   1.972   2.777   6.749 -0.2709  0.4642 -0.0327
   96CHL1   H2A 9558   1.864   2.805   6.757 -0.5939 -1.1572  2.9909
   96CHL1   H2B 9559   1.982   2.667   6.741  0.7198  0.3481  2.1145
   96CHL1   C20 9560   2.518   2.768   7.514 -0.2043  0.2174  0.5063
   96CHL1   H20 9561   2.564   2.669   7.498  0.1139  0.3225  0.7518
   96CHL1   C21 9562   2.390   2.739   7.592  0.3270  0.1155 -0.0976
   96CHL1  H21A 9563   2.412   2.679   7.682  0.0241  1.2155  0.7300
   96CHL1  H21B 9564   2.308   2.694   7.531 -0.9235  1.4293  0.5667
   96CHL1  H21C 9565   2.339   2.833   7.623  1.0182  0.7335 -0.7784
   96CHL1   C22 9566   2.620   2.827   7.612  0.3714 -0.4507  0.0663
   96CHL1  H22A 9567   2.720   2.848   7.569  1.1637  2.1883  2.8825
   96CHL1  H22B 9568   2.582   2.926   7.646 -0.0380 -0.6617  0.2300
   96CHL1   C23 9569   2.662   2.731   7.724 -0.3116  0.4508 -0.1636
   96CHL1  H23A 9570   2.580   2.717   7.797 -0.7572 -1.5640 -0.9678
   96CHL1  H23B 9571   2.674   2.626   7.689  3.2522 -0.6754  3.7460
   96CHL1   C24 9572   2.801   2.768   7.790 -0.3648 -1.0739 -0.0774
   96CHL1  H24A 9573   2.836   2.681   7.848  1.1710 -1.2831 -1.2317
   96CHL1  H24B 9574   2.873   2.798   7.711 -1.2485 -1.4035 -1.0364
   96CHL1   C25 9575   2.794   2.873   7.901  0.2937 -0.5969  0.4236
   96CHL1   H25 9576   2.737   2.964   7.870  1.1531  0.8747  2.8061
   96CHL1   C26 9577   2.715   2.829   8.026 -0.4129  0.3289 -0.2908
   96CHL1  H26A 9578   2.753   2.735   8.071 -1.1977 -0.4106 -1.1156
   96CHL1  H26B 9579   2.713   2.916   8.095 -1.4788  0.9094 -1.0227
   96CHL1  H26C 9580   2.609   2.797   8.013 -0.6496  0.7576  0.4917
   96CHL1   C27 9581   2.934   2.932   7.934 -0.3034  0.0212  1.1235
   96CHL1  H27A 9582   2.984   2.966   7.840 -1.1179 -0.2541  0.5818
   96CHL1  H27B 9583   2.915   3.022   7.996 -2.0950  0.4659 -0.0073
   96CHL1  H27C 9584   2.991   2.851   7.984 -2.1996 -1.2080  1.3955
   97OSM      N 9585   6.467   4.424  10.761 -0.6930  0.1799 -0.3492
   97OSM    C15 9586   6.477   4.527  10.866 -0.4931 -0.5905  0.0887
   97OSM   H15A 9587   6.420   4.613  10.832 -0.6438 -1.0363 -0.8123
   97OSM   H15B 9588   6.579   4.562  10.874 -0.1000 -1.8837  1.1082
   97OSM   H15C 9589   6.464   4.500  10.970 -1.2827  2.1826  0.7973
   97OSM    C14 9590   6.346   4.336  10.784  0.1481 -0.6060 -0.1201
   97OSM   H14A 9591   6.350   4.289  10.881  0.9909 -1.6431 -0.6272
   97OSM   H14B 9592   6.345   4.257  10.710  2.1318 -0.9847  0.2021
   97OSM   H14C 9593   6.259   4.399  10.789  0.3109 -0.4817  2.6583
   97OSM    C13 9594   6.454   4.488  10.629  0.2814 -0.0174 -0.2951
   97OSM   H13A 9595   6.546   4.545  10.625  0.4299 -0.2968 -1.0936
   97OSM   H13B 9596   6.380   4.566  10.618 -0.5045 -0.3885  1.8518
   97OSM   H13C 9597   6.444   4.414  10.551 -1.5233 -1.4111  1.1415
   97OSM    C12 9598   6.599   4.342  10.773 -0.4517  0.1974  0.0750
   97OSM   H12A 9599   6.620   4.293  10.867  2.6109 -2.1116 -1.6274
   97OSM   H12B 9600   6.683   4.409  10.768  2.6716 -3.4058 -0.2615
   97OSM    C11 9601   6.623   4.231  10.666  0.0224  0.9219 -0.2676
   97OSM   H11A 9602   6.731   4.225  10.639  0.4426  0.8897  1.3360
   97OSM   H11B 9603   6.577   4.267  10.571  0.0502 -0.0910 -0.6748
   97OSM      P 9604   6.637   4.008  10.803 -0.1613 -0.5081  0.1851
   97OSM    O13 9605   6.714   4.089  10.904  0.4377  0.2214 -0.4083
   97OSM    O14 9606   6.546   3.912  10.863  0.0711  0.4842  0.6922
   97OSM    O11 9607   6.728   3.936  10.699 -0.2043  0.1593  0.0752
   97OSM    O12 9608   6.553   4.112  10.716 -0.1508 -0.0839 -0.2491
   97OSM    C1S 9609   6.676   3.847  10.599  0.0144 -0.9625  0.3199
   97OSM    H1S 9610   6.566   3.845  10.613  0.2524 -0.5422  2.6478
   97OSM    H1T 9611   6.711   3.742  10.607 -2.1016 -1.8958 -1.5431
   97OSM     NF 9612   6.613   3.815  10.355 -0.1477  0.4066  0.3660
   97OSM    HNF 9613   6.664   3.764  10.286  0.3148  2.0747 -0.5644
   97OSM    C2S 9614   6.693   3.893  10.445  0.6414 -0.2161 -0.4571
   97OSM    H2S 9615   6.665   3.999  10.426  0.7593  0.5998  3.1956
   97OSM    C3S 9616   6.843   3.890  10.422 -0.4739 -0.4827  0.1643
   97OSM    H3S 9617   6.862   3.783  10.441  1.7996  0.0824  1.5392
   97OSM     O3 9618   6.910   3.978  10.518  0.2585  0.2594 -0.1599
   97OSM    HO3 9619   6.839   3.993  10.581  1.0326  0.8676  0.5930
   97OSM    C4S 9620   6.884   3.927  10.278 -0.4419  0.3984 -0.1332
   97OSM    H4S 9621   6.877   3.843  10.208 -0.1021  0.4083 -0.1834
   97OSM    C5S 9622   6.918   4.050  10.238 -0.7187  0.2394 -0.1365
   97OSM    H5S 9623   6.951   4.118  10.319 -0.1077  0.3385 -0.4586
   97OSM    C6S 9624   6.970   4.083  10.100  0.9085 -0.4421  0.7991
   97OSM    H6S 9625   7.080   4.100  10.100  0.6582  1.8797 -2.0156
   97OSM    H6T 9626   6.917   4.174  10.066  0.5883 -0.8338  0.2244
   97OSM    C7S 9627   6.957   3.971   9.994 -0.2329  0.2596 -0.1505
   97OSM    H7S 9628   6.855   3.927   9.983 -0.5164  0.4261  1.5557
   97OSM    H7T 9629   7.021   3.882  10.014 -0.3334  0.1439 -0.3421
   97OSM    C8S 9630   7.000   4.039   9.857 -0.0881 -0.1281 -0.3576
   97OSM    H8S 9631   7.098   4.089   9.872  1.3595 -2.9040  0.0699
   97OSM    H8T 9632   6.922   4.118   9.849 -1.0806 -0.8324  1.6381
   97OSM    C9S 9633   6.985   3.948   9.730 -0.3503 -0.1833 -0.3262
   97OSM    H9S 9634   6.885   3.900   9.730 -0.3486 -0.2005  0.5858
   97OSM    H9T 9635   7.057   3.864   9.741 -0.1295  0.0351 -0.0683
   97OSM   C10S 9636   7.015   4.027   9.596 -0.4508  0.2499  0.5596
   97OSM   H10S 9637   7.109   4.085   9.610  0.0444 -0.1822 -0.8409
   97OSM   H10T 9638   6.934   4.100   9.574 -1.1253 -0.7443 -0.3184
   97OSM   C11S 9639   7.021   3.939   9.472 -0.2652 -0.4049  0.4589
   97OSM   H11S 9640   6.928   3.878   9.475 -0.5291  0.0395  2.5317
   97OSM   H11T 9641   7.108   3.870   9.482 -0.3546 -0.4610  0.8476
   97OSM   C12S 9642   7.035   4.009   9.335 -0.7264 -0.3428  0.0946
   97OSM   H12S 9643   7.141   4.042   9.328 -0.0488 -2.2870  0.6376
   97OSM   H12T 9644   6.957   4.087   9.324  0.6820  1.0913 -0.2648
   97OSM   C13S 9645   7.012   3.914   9.215 -0.8971 -0.4577  0.7750
   97OSM   H13S 9646   6.915   3.860   9.213 -1.5064  0.6150  0.4159
   97OSM   H13T 9647   7.098   3.843   9.214 -1.6002 -1.3773  2.0673
   97OSM   C14S 9648   7.010   4.007   9.093 -0.9550  0.8814 -0.4673
   97OSM   H14S 9649   7.079   4.093   9.105 -1.5737  1.6361 -2.0852
   97OSM   H14T 9650   6.912   4.058   9.080 -1.1190  0.9645  0.8869
   97OSM   C15S 9651   7.054   3.936   8.969 -0.2825 -0.5171 -0.1057
   97OSM   H15S 9652   6.991   3.845   8.958 -1.9494  0.6836 -0.9120
   97OSM   H15T 9653   7.158   3.899   8.986 -0.9036 -1.6970  1.3448
   97OSM   C16S 9654   7.049   4.005   8.831  0.2622  0.2402  0.7275
   97OSM   H16S 9655   7.100   4.102   8.849  0.0667 -0.0718  3.2727
   97OSM   H16T 9656   6.944   4.034   8.807 -0.3987 -1.8835  0.8022
   97OSM   C17S 9657   7.120   3.938   8.704  0.3836  0.6012  0.9073
   97OSM   H17S 9658   7.083   3.834   8.691  0.0320  1.0275 -2.1419
   97OSM   H17T 9659   7.230   3.934   8.717  0.4861 -1.8518 -0.2619
   97OSM   C18S 9660   7.102   4.018   8.572 -0.5436  0.6974 -0.0774
   97OSM   H18S 9661   6.994   4.031   8.553 -0.6867  2.6744  1.7025
   97OSM   H18T 9662   7.153   3.979   8.481  0.5046  1.2581  0.2469
   97OSM   H18U 9663   7.150   4.117   8.588  0.2245  0.5571 -1.3595
   97OSM    C1F 9664   6.482   3.824  10.350 -0.2748 -0.5293  0.2437
   97OSM     OF 9665   6.415   3.898  10.423 -0.2891  0.2998 -0.1988
   97OSM    C2F 9666   6.419   3.726  10.255 -0.0300 -0.3879  0.2414
   97OSM    H2F 9667   6.376   3.633  10.297 -1.8655  0.6663  0.8432
   97OSM    H2G 9668   6.487   3.699  10.172  1.5027 -1.4643  1.7783
   97OSM    C3F 9669   6.305   3.796  10.169  0.0059  0.0777 -0.3433
   97OSM    H3F 9670   6.338   3.892  10.123 -2.6160  0.2722 -1.9871
   97OSM    H3G 9671   6.214   3.804  10.232 -0.7846 -0.7403 -1.3506
   97OSM    C4F 9672   6.258   3.700  10.052  0.3398 -0.1725  0.8566
   97OSM    H4F 9673   6.344   3.696   9.981  0.7758  0.3007  1.3430
   97OSM    H4G 9674   6.177   3.743   9.990 -0.8758 -0.9317  1.8720
   97OSM    C5F 9675   6.247   3.547  10.068  0.2705  0.4213  0.0596
   97OSM    H5F 9676   6.151   3.529  10.122  0.5916  0.2911  0.5875
   97OSM    H5G 9677   6.319   3.507  10.143  2.4403 -1.3786 -2.7732
   97OSM    C6F 9678   6.262   3.454   9.945  0.7712  0.4990  0.1087
   97OSM    H6F 9679   6.231   3.350   9.970 -1.6827  1.2706  0.5479
   97OSM    H6G 9680   6.368   3.449   9.914  0.8685 -0.5337  0.5528
   97OSM    C7F 9681   6.182   3.497   9.823  0.2690 -0.2522 -0.1187
   97OSM    H7F 9682   6.222   3.594   9.788  0.3494 -0.4531 -0.5966
   97OSM    H7G 9683   6.072   3.504   9.836  0.1899 -0.3666 -0.6834
   97OSM    C8F 9684   6.208   3.407   9.692  0.0706  0.1970 -0.0467
   97OSM    H8F 9685   6.182   3.302   9.718  0.7611  0.3363  1.3116
   97OSM    H8G 9686   6.319   3.409   9.690  0.1963 -2.5390 -1.2150
   97OSM    C9F 9687   6.117   3.457   9.579 -0.6924 -0.1202 -0.0104
   97OSM    H9F 9688   6.030   3.391   9.565 -0.3344 -0.6287  0.1319
   97OSM   C10F 9689   6.156   3.549   9.491  0.2322  0.5580  0.2490
   97OSM   H10F 9690   6.083   3.571   9.411  1.3911  1.6971 -0.5215
   97OSM   C11F 9691   6.283   3.632   9.498 -0.3793  0.4128 -0.2682
   97OSM   H11F 9692   6.349   3.600   9.581  1.2132 -2.8925 -2.6021
   97OSM   H11G 9693   6.257   3.740   9.503 -0.2569  0.4797 -0.9271
   97OSM   C12F 9694   6.370   3.612   9.370 -0.1365 -0.4296 -0.1676
   97OSM   H12F 9695   6.384   3.502   9.361 -1.9302 -0.5404 -2.4616
   97OSM   H12G 9696   6.462   3.666   9.399  0.4333 -2.4483  2.0873
   97OSM   C13F 9697   6.297   3.668   9.248 -0.2846 -0.4636 -0.7685
   97OSM   H13F 9698   6.297   3.778   9.259 -2.2541 -0.3374 -1.5373
   97OSM   H13G 9699   6.190   3.638   9.256  0.5993 -3.6417  0.7394
   97OSM   C14F 9700   6.343   3.623   9.109 -0.2784  0.3578 -0.1741
   97OSM   H14F 9701   6.330   3.512   9.108 -0.2847  0.3279 -2.5743
   97OSM   H14G 9702   6.448   3.654   9.092 -0.6896  1.5088 -0.7097
   97OSM   C15F 9703   6.255   3.681   9.001  0.2081  0.2898 -0.2257
   97OSM   H15F 9704   6.252   3.791   8.982  1.8120  0.2796 -0.7266
   97OSM   H15G 9705   6.150   3.646   9.004  0.2414 -0.0947 -2.0907
   97OSM   C16F 9706   6.297   3.617   8.872 -0.6972  0.2158 -0.6371
   97OSM   H16F 9707   6.287   3.507   8.880 -0.2845  0.2792  1.4850
   97OSM   H16G 9708   6.405   3.643   8.886 -0.1984 -2.9649  2.8076
   97OSM   C17F 9709   6.237   3.672   8.743 -0.1208 -0.0041  0.3546
   97OSM   H17F 9710   6.298   3.624   8.665  0.4378 -0.1226  0.8556
   97OSM   H17G 9711   6.245   3.783   8.737  0.5341 -0.0332  0.5953
   97OSM   C18F 9712   6.097   3.625   8.713  0.4700  0.2990  0.4115
   97OSM   H18F 9713   6.022   3.657   8.788 -0.1432  2.3675 -0.9979
   97OSM   H18G 9714   6.097   3.515   8.692 -2.0724  0.2258  0.4617
   97OSM   H18H 9715   6.064   3.667   8.615 -1.3370 -0.1994  0.7805
   98OSM      N 9716   3.867   1.559  11.072 -0.4493  0.7043 -0.5235
   98OSM    C15 9717   3.910   1.418  11.111 -0.4915  0.8470  0.2658
   98OSM   H15A 9718   3.883   1.351  11.031  0.6577 -0.3079  0.8032
   98OSM   H15B 9719   3.873   1.377  11.204  3.1145 -1.5335  0.8872
   98OSM   H15C 9720   4.017   1.413  11.128 -0.3026  0.9646 -0.8261
   98OSM    C14 9721   3.727   1.544  11.021  0.6180 -0.1644  0.1964
   98OSM   H14A 9722   3.679   1.482  11.096  2.2528  0.7860  2.1537
   98OSM   H14B 9723   3.714   1.494  10.927 -1.9579 -1.6023  1.2213
   98OSM   H14C 9724   3.682   1.642  11.015  2.2653  0.5435 -1.1776
   98OSM    C13 9725   3.873   1.645  11.196  0.2911  0.8077  0.3183
   98OSM   H13A 9726   3.807   1.596  11.266  1.2348 -3.9836 -1.7189
   98OSM   H13B 9727   3.847   1.748  11.176  0.9378  0.6254 -1.6713
   98OSM   H13C 9728   3.971   1.635  11.239  0.9311 -2.2543 -1.5441
   98OSM    C12 9729   3.958   1.615  10.968 -0.1864  0.6153 -0.3250
   98OSM   H12A 9730   3.977   1.542  10.891  0.4473  0.8048 -0.3557
   98OSM   H12B 9731   4.055   1.639  11.008  0.2664  1.2894 -1.7631
   98OSM    C11 9732   3.922   1.742  10.890 -0.1763 -0.2335 -0.2741
   98OSM   H11A 9733   3.819   1.733  10.850 -0.1842 -0.6920 -0.1563
   98OSM   H11B 9734   3.990   1.758  10.803 -1.0178  2.3520 -0.5416
   98OSM      P 9735   4.054   1.929  11.025  0.1213 -0.3222 -0.1644
   98OSM    O13 9736   4.001   2.042  11.101 -0.3501 -0.3378  0.0500
   98OSM    O14 9737   4.117   1.824  11.103  0.4885  0.6933 -0.2216
   98OSM    O11 9738   4.134   1.976  10.898 -0.5758  0.0288  0.5252
   98OSM    O12 9739   3.933   1.860  10.966  0.2682  0.1190  0.1113
   98OSM    C1S 9740   4.086   2.088  10.816 -0.5566 -0.0725  0.0979
   98OSM    H1S 9741   4.082   2.178  10.882  0.0407  0.8713 -1.1118
   98OSM    H1T 9742   3.980   2.077  10.784  0.2234 -0.3613 -2.6340
   98OSM     NF 9743   4.144   2.251  10.645 -0.0723 -0.2160 -0.3386
   98OSM    HNF 9744   4.110   2.255  10.551  0.3796  0.7937 -0.4748
   98OSM    C2S 9745   4.173   2.113  10.693 -0.0285 -0.3625 -0.0945
   98OSM    H2S 9746   4.277   2.114  10.731 -0.4705  1.0582  1.1983
   98OSM    C3S 9747   4.170   2.005  10.588 -0.5207  0.5456  0.3808
   98OSM    H3S 9748   4.078   1.991  10.527 -1.0045 -2.6694  1.6242
   98OSM     O3 9749   4.204   1.872  10.632  0.0505 -0.8913  0.5408
   98OSM    HO3 9750   4.208   1.871  10.728 -2.6614  1.0369  0.7907
   98OSM    C4S 9751   4.279   2.048  10.486 -0.0171 -0.1849  0.0529
   98OSM    H4S 9752   4.379   2.047  10.533  0.4619  1.9552 -0.7998
   98OSM    C5S 9753   4.263   2.076  10.356  0.3814  0.1179 -0.0298
   98OSM    H5S 9754   4.162   2.063  10.314  0.2420  0.5731  0.1683
   98OSM    C6S 9755   4.356   2.117  10.256  0.4852  0.4342  0.4115
   98OSM    H6S 9756   4.362   2.032  10.185 -3.4738  1.2521 -1.1693
   98OSM    H6T 9757   4.451   2.136  10.310  0.9414  0.3833 -0.3664
   98OSM    C7S 9758   4.319   2.236  10.172  0.5452 -0.0087  0.1510
   98OSM    H7S 9759   4.281   2.317  10.237 -1.3416 -0.2844 -0.5378
   98OSM    H7T 9760   4.232   2.207  10.110 -0.7062  1.3729  1.2014
   98OSM    C8S 9761   4.425   2.266  10.059  0.5902  0.5177  0.2650
   98OSM    H8S 9762   4.523   2.258  10.111  0.9690 -0.9141 -0.6231
   98OSM    H8T 9763   4.415   2.373  10.030  1.9949  0.4114 -0.7620
   98OSM    C9S 9764   4.408   2.168   9.942 -1.0636 -0.4015  0.0588
   98OSM    H9S 9765   4.305   2.163   9.899 -1.3524  4.0906 -0.2566
   98OSM    H9T 9766   4.432   2.077  10.001 -0.2861 -0.8844 -0.9819
   98OSM   C10S 9767   4.513   2.190   9.825  0.6540 -0.0516  0.1748
   98OSM   H10S 9768   4.616   2.191   9.866  1.0464 -0.6368 -0.7630
   98OSM   H10T 9769   4.481   2.288   9.782  0.3467 -0.5563 -0.7706
   98OSM   C11S 9770   4.505   2.083   9.718 -0.1838  0.6321  0.0966
   98OSM   H11S 9771   4.398   2.058   9.701  0.0178  0.4409 -0.9729
   98OSM   H11T 9772   4.570   1.996   9.744 -0.4827  0.0633 -1.0272
   98OSM   C12S 9773   4.543   2.135   9.583  0.2016 -0.5548  1.1969
   98OSM   H12S 9774   4.645   2.179   9.586  0.1567 -0.4551  1.2650
   98OSM   H12T 9775   4.481   2.227   9.573  1.2571  0.1088  0.5293
   98OSM   C13S 9776   4.501   2.042   9.466  0.1909 -0.6749 -0.2394
   98OSM   H13S 9777   4.390   2.050   9.462  0.1488 -1.6150 -1.3947
   98OSM   H13T 9778   4.537   1.938   9.480  0.5675 -0.4005  0.9814
   98OSM   C14S 9779   4.551   2.104   9.331  0.7146  0.2954  0.1098
   98OSM   H14S 9780   4.539   2.024   9.255  0.4342 -0.3876  0.8585
   98OSM   H14T 9781   4.657   2.134   9.342  0.8542 -0.0278 -0.3055
   98OSM   C15S 9782   4.471   2.222   9.272  0.2051 -0.3954 -0.6422
   98OSM   H15S 9783   4.445   2.290   9.356  1.2965  1.2648 -1.5970
   98OSM   H15T 9784   4.376   2.176   9.236  0.0745  0.1609 -1.0308
   98OSM   C16S 9785   4.526   2.286   9.144  0.5609 -0.0003 -0.0744
   98OSM   H16S 9786   4.453   2.362   9.110  0.2660 -0.2736 -0.0609
   98OSM   H16T 9787   4.535   2.216   9.059 -3.8139 -0.6846 -0.2141
   98OSM   C17S 9788   4.670   2.348   9.173  0.3451 -0.1462 -0.3108
   98OSM   H17S 9789   4.742   2.264   9.175 -1.0320 -1.4360 -1.9384
   98OSM   H17T 9790   4.663   2.398   9.272 -1.0786  1.7160 -1.2773
   98OSM   C18S 9791   4.721   2.445   9.069  0.1823 -0.2899  0.1673
   98OSM   H18S 9792   4.827   2.473   9.080  0.7208 -0.2809 -3.6873
   98OSM   H18T 9793   4.656   2.535   9.079  1.5089  0.5290  1.8422
   98OSM   H18U 9794   4.720   2.403   8.966  2.2777 -0.7353  0.3029
   98OSM    C1F 9795   4.156   2.361  10.716 -0.2128  0.1001  0.2529
   98OSM     OF 9796   4.222   2.364  10.819 -0.6893 -0.4344  0.2587
   98OSM    C2F 9797   4.082   2.478  10.663 -0.3718 -0.2072 -0.0003
   98OSM    H2F 9798   4.109   2.574  10.713 -2.0886  0.0737  0.4502
   98OSM    H2G 9799   3.978   2.457  10.697  0.0588  1.7559  2.9606
   98OSM    C3F 9800   4.091   2.502  10.509  0.0694 -0.7179  0.7850
   98OSM    H3F 9801   4.031   2.590  10.476  1.4484 -0.8585 -2.4887
   98OSM    H3G 9802   4.048   2.421  10.446 -1.6832  1.4267 -0.9956
   98OSM    C4F 9803   4.234   2.554  10.470 -0.5218 -0.3371  0.4807
   98OSM    H4F 9804   4.299   2.465  10.460  1.2793  1.0657 -0.9788
   98OSM    H4G 9805   4.274   2.612  10.557  0.8183  0.4055 -0.5963
   98OSM    C5F 9806   4.243   2.636  10.339 -0.6859  0.5284 -0.2261
   98OSM    H5F 9807   4.174   2.722  10.346 -0.7500  0.3820  1.2330
   98OSM    H5G 9808   4.214   2.572  10.253 -1.3004 -0.4157  0.6554
   98OSM    C6F 9809   4.389   2.702  10.331 -0.1097 -0.8614 -0.7064
   98OSM    H6F 9810   4.468   2.624  10.338  2.9233  2.0271 -0.0060
   98OSM    H6G 9811   4.404   2.763  10.423 -1.3644 -1.9062  0.2248
   98OSM    C7F 9812   4.405   2.782  10.205 -0.2280  0.5619  0.0505
   98OSM    H7F 9813   4.508   2.824  10.216 -0.0025  0.1712 -0.5214
   98OSM    H7G 9814   4.332   2.866  10.194 -0.8472  0.0931  0.5351
   98OSM    C8F 9815   4.404   2.704  10.071  0.2979 -0.5099  0.4256
   98OSM    H8F 9816   4.299   2.669  10.057  0.3893 -0.3192 -0.7726
   98OSM    H8G 9817   4.465   2.612  10.080 -0.1706 -1.0509 -1.5232
   98OSM    C9F 9818   4.443   2.785   9.948 -0.2444 -0.6118 -0.1163
   98OSM    H9F 9819   4.364   2.847   9.903  1.9296  2.6442  0.2062
   98OSM   C10F 9820   4.562   2.805   9.886  0.3041  0.2298  0.3440
   98OSM   H10F 9821   4.565   2.854   9.788  0.6494  0.1929  0.3369
   98OSM   C11F 9822   4.692   2.748   9.925 -0.2869  0.6626 -0.0258
   98OSM   H11F 9823   4.687   2.736  10.035 -2.9114  0.9661 -0.0526
   98OSM   H11G 9824   4.778   2.814   9.900  0.1960  0.1104  0.1491
   98OSM   C12F 9825   4.716   2.614   9.856 -0.0192  0.3835  0.0669
   98OSM   H12F 9826   4.717   2.631   9.746 -0.6070 -0.4695 -0.0845
   98OSM   H12G 9827   4.632   2.542   9.868 -0.0641  0.4181 -0.0319
   98OSM   C13F 9828   4.841   2.549   9.904 -0.6310 -0.0014  0.0161
   98OSM   H13F 9829   4.835   2.548  10.015  0.5553 -3.0104  0.1373
   98OSM   H13G 9830   4.932   2.607   9.876 -0.6298  0.1692  0.3713
   98OSM   C14F 9831   4.873   2.403   9.864  0.2974 -0.0100 -0.2198
   98OSM   H14F 9832   4.799   2.332   9.908  1.5905 -0.0133  2.1288
   98OSM   H14G 9833   4.973   2.368   9.898 -0.4866 -2.7728 -0.4898
   98OSM   C15F 9834   4.840   2.377   9.719 -0.4324 -0.0904  0.6000
   98OSM   H15F 9835   4.894   2.451   9.656 -1.4526  0.5193  0.4175
   98OSM   H15G 9836   4.734   2.372   9.685 -0.4473  0.9706  0.4717
   98OSM   C16F 9837   4.901   2.239   9.664 -0.2149  0.0633 -0.8550
   98OSM   H16F 9838   4.842   2.147   9.685  0.4818 -0.3477 -0.6384
   98OSM   H16G 9839   5.003   2.229   9.707 -0.8467  1.6994  1.1735
   98OSM   C17F 9840   4.915   2.249   9.517  0.5217 -0.2568 -0.3236
   98OSM   H17F 9841   4.967   2.343   9.487 -1.5527  0.7693 -0.8861
   98OSM   H17G 9842   4.811   2.259   9.479  0.4853  1.2296  0.0796
   98OSM   C18F 9843   4.981   2.124   9.453 -0.2396 -0.2457 -0.1247
   98OSM   H18F 9844   4.928   2.039   9.499 -1.5578  1.2897  1.3207
   98OSM   H18G 9845   5.091   2.120   9.472 -0.4966 -0.0867  1.4921
   98OSM   H18H 9846   4.950   2.127   9.346 -0.4804 -2.1660 -0.1418
   99OSM      N 9847   0.459   5.084  10.408 -0.6673 -0.4050  0.5006
   99OSM    C15 9848   0.567   4.985  10.398 -0.7681  0.0665 -0.3061
   99OSM   H15A 9849   0.559   4.909  10.475 -1.8565  0.1246 -0.3488
   99OSM   H15B 9850   0.660   5.030  10.427 -0.0403 -1.5565  0.0281
   99OSM   H15C 9851   0.574   4.944  10.299  0.6977 -1.7267  0.4614
   99OSM    C14 9852   0.481   5.155  10.538 -0.2014  0.1452  0.9870
   99OSM   H14A 9853   0.579   5.202  10.541  0.0002 -0.2698  0.9556
   99OSM   H14B 9854   0.473   5.095  10.628 -0.6377  0.8220  1.4064
   99OSM   H14C 9855   0.412   5.237  10.547 -0.8344 -0.3933  1.0844
   99OSM    C13 9856   0.491   5.177  10.296 -0.0457 -0.7405  0.5490
   99OSM   H13A 9857   0.502   5.124  10.202 -3.5856  0.9640 -0.9740
   99OSM   H13B 9858   0.566   5.251  10.322 -1.3236  2.3779 -3.5487
   99OSM   H13C 9859   0.408   5.244  10.284  0.4952 -0.0743  0.4353
   99OSM    C12 9860   0.321   5.024  10.393  0.0520 -0.2567 -0.8401
   99OSM   H12A 9861   0.323   4.958  10.308  0.8082 -0.5015 -0.6434
   99OSM   H12B 9862   0.249   5.104  10.388  1.0868  1.0432  2.3687
   99OSM    C11 9863   0.261   4.949  10.518  0.2336  0.0192 -0.0350
   99OSM   H11A 9864   0.158   4.916  10.491 -0.3575  0.5900  1.4734
   99OSM   H11B 9865   0.252   5.023  10.599 -0.9188  0.9805 -0.9987
   99OSM      P 9866   0.295   4.747  10.678 -0.1371  0.2901  0.3146
   99OSM    O13 9867   0.405   4.656  10.708 -0.2631 -0.0111 -0.1389
   99OSM    O14 9868   0.253   4.835  10.788 -0.4164 -0.4873  0.5137
   99OSM    O11 9869   0.184   4.651  10.617  0.5644  0.1015 -0.0127
   99OSM    O12 9870   0.340   4.830  10.548 -0.3366  0.4698 -0.4813
   99OSM    C1S 9871   0.177   4.625  10.472  0.2088 -0.0577 -0.6721
   99OSM    H1S 9872   0.279   4.604  10.434 -0.2721 -1.9441 -1.0176
   99OSM    H1T 9873   0.149   4.718  10.417  0.3230 -0.1007 -0.8009
   99OSM     NF 9874   0.113   4.478  10.282 -0.4538  0.5484  0.2068
   99OSM    HNF 9875   0.037   4.504  10.222 -0.8067 -2.1119 -0.6613
   99OSM    C2S 9876   0.091   4.506  10.426 -0.1002  0.2954 -0.3448
   99OSM    H2S 9877   0.112   4.411  10.479 -2.2469 -0.2659 -0.3972
   99OSM    C3S 9878  -0.052   4.527  10.466 -0.1240  0.3363  0.0639
   99OSM    H3S 9879  -0.083   4.631  10.441  2.6211  1.1222 -0.4756
   99OSM     O3 9880  -0.074   4.517  10.605 -0.3274  0.4559 -0.4868
   99OSM    HO3 9881   0.009   4.540  10.646 -1.5899  1.2107  1.8482
   99OSM    C4S 9882  -0.137   4.430  10.395  0.1610 -0.2056  0.0743
   99OSM    H4S 9883  -0.114   4.323  10.409 -0.1628 -0.5482 -1.7511
   99OSM    C5S 9884  -0.244   4.460  10.322  0.0239 -0.5120  0.0188
   99OSM    H5S 9885  -0.247   4.567  10.296 -1.3329 -0.7842 -1.0880
   99OSM    C6S 9886  -0.340   4.367  10.258  0.1320  0.7893  0.5562
   99OSM    H6S 9887  -0.366   4.394  10.153 -0.8154 -0.2973  0.4760
   99OSM    H6T 9888  -0.446   4.362  10.291 -0.0096 -1.0676 -0.0420
   99OSM    C7S 9889  -0.281   4.228  10.247  0.1488  0.1378 -0.4797
   99OSM    H7S 9890  -0.291   4.187  10.350 -1.1353  2.7604  0.5361
   99OSM    H7T 9891  -0.176   4.229  10.212  0.0470  0.4211 -0.7811
   99OSM    C8S 9892  -0.342   4.130  10.147 -0.0352 -0.9617  0.1589
   99OSM    H8S 9893  -0.451   4.153  10.142  0.2961  0.5419 -0.3918
   99OSM    H8T 9894  -0.319   4.030  10.190  3.5990  0.4569  1.9103
   99OSM    C9S 9895  -0.296   4.141  10.000  0.2253  0.6219  0.4591
   99OSM    H9S 9896  -0.186   4.129   9.985 -0.0614 -0.1560 -1.3026
   99OSM    H9T 9897  -0.332   4.239   9.964 -0.4072  0.9328  1.8672
   99OSM   C10S 9898  -0.368   4.032   9.906  0.4894  0.5078 -0.3091
   99OSM   H10S 9899  -0.474   4.061   9.922  0.8224  1.4032  0.3632
   99OSM   H10T 9900  -0.356   3.934   9.956  2.1566  1.5418  1.4245
   99OSM   C11S 9901  -0.329   4.034   9.756 -0.2096 -0.3014  0.1462
   99OSM   H11S 9902  -0.220   4.012   9.747 -0.0185 -0.4641  2.3963
   99OSM   H11T 9903  -0.341   4.138   9.718  2.6294 -0.3013 -1.0203
   99OSM   C12S 9904  -0.412   3.939   9.684  0.2348 -0.4090  0.3581
   99OSM   H12S 9905  -0.400   3.835   9.723 -1.3104 -0.0243  2.0128
   99OSM   H12T 9906  -0.520   3.959   9.699  0.8032  1.8676  2.1447
   99OSM   C13S 9907  -0.378   3.963   9.535 -0.2942  0.0646 -0.2574
   99OSM   H13S 9908  -0.399   4.071   9.523  1.7957  0.5621  0.2150
   99OSM   H13T 9909  -0.450   3.904   9.474 -1.6837 -1.4860  2.6817
   99OSM   C14S 9910  -0.235   3.937   9.480  0.6265 -0.1469  0.2213
   99OSM   H14S 9911  -0.201   3.832   9.489  1.6989  0.1260 -0.4845
   99OSM   H14T 9912  -0.165   3.990   9.549  2.8004 -1.5284 -0.8283
   99OSM   C15S 9913  -0.213   4.002   9.340 -0.0590 -0.5898  0.7589
   99OSM   H15S 9914  -0.110   4.036   9.314  0.5275 -1.1847  2.2024
   99OSM   H15T 9915  -0.285   4.085   9.325  0.8149 -0.0937 -1.0015
   99OSM   C16S 9916  -0.260   3.906   9.221  0.1255  0.2168  0.2921
   99OSM   H16S 9917  -0.345   3.841   9.253  2.8524 -2.7482  2.0185
   99OSM   H16T 9918  -0.180   3.836   9.189 -1.1783 -2.2586  2.0967
   99OSM   C17S 9919  -0.306   3.975   9.091 -0.1026 -0.4218 -0.4255
   99OSM   H17S 9920  -0.343   4.077   9.112  1.6403  0.0697  0.4640
   99OSM   H17T 9921  -0.401   3.931   9.056 -1.8099  1.6488  1.3481
   99OSM   C18S 9922  -0.204   3.984   8.974  0.4293  0.0997 -0.4313
   99OSM   H18S 9923  -0.253   4.019   8.881 -0.4323  0.2097  0.0521
   99OSM   H18T 9924  -0.182   3.879   8.945 -1.2413 -0.7970  1.3055
   99OSM   H18U 9925  -0.110   4.033   9.006  0.8351 -1.2173  0.5218
   99OSM    C1F 9926   0.235   4.444  10.241  0.1712  0.3826  0.5837
   99OSM     OF 9927   0.323   4.402  10.316  0.0073  0.3656 -0.8285
   99OSM    C2F 9928   0.256   4.454  10.090  0.9836  0.1818  0.3595
   99OSM    H2F 9929   0.276   4.557  10.054 -1.5095  0.6428  0.0959
   99OSM    H2G 9930   0.161   4.421  10.043  0.3865 -0.4727  1.9568
   99OSM    C3F 9931   0.370   4.361  10.041 -0.2729  0.6117  0.4549
   99OSM    H3F 9932   0.467   4.412  10.058  0.0266 -0.3225  1.6937
   99OSM    H3G 9933   0.372   4.261  10.090 -1.7491  0.4114  0.1479
   99OSM    C4F 9934   0.357   4.334   9.892  0.5805 -0.4830  0.0545
   99OSM    H4F 9935   0.250   4.315   9.870 -0.6404  0.7761  4.0424
   99OSM    H4G 9936   0.414   4.242   9.865  0.7319  0.2093 -2.1770
   99OSM    C5F 9937   0.413   4.448   9.804 -0.4356  0.2712  0.4988
   99OSM    H5F 9938   0.522   4.459   9.823 -0.2077  0.6210 -0.9348
   99OSM    H5G 9939   0.357   4.540   9.832  0.8037  0.8615  1.1375
   99OSM    C6F 9940   0.400   4.412   9.651  0.2009  0.1336 -0.1376
   99OSM    H6F 9941   0.296   4.423   9.612 -0.2486 -2.7255  0.0595
   99OSM    H6G 9942   0.425   4.305   9.635  1.0484  0.2597  0.3030
   99OSM    C7F 9943   0.486   4.503   9.558  0.7636  0.0293  0.6850
   99OSM    H7F 9944   0.591   4.496   9.594  0.7323  1.3258  1.0691
   99OSM    H7G 9945   0.445   4.605   9.572 -2.0316 -0.6825 -1.3326
   99OSM    C8F 9946   0.483   4.469   9.401 -0.0437  0.0718  0.0209
   99OSM    H8F 9947   0.556   4.536   9.349 -0.6676  2.6816  2.2548
   99OSM    H8G 9948   0.388   4.492   9.349 -0.6928 -1.6355  0.4164
   99OSM    C9F 9949   0.498   4.327   9.376  0.9354 -0.2025  0.2190
   99OSM    H9F 9950   0.503   4.261   9.464 -1.9458  0.2949  0.8326
   99OSM   C10F 9951   0.493   4.280   9.249 -0.5526  1.0568  0.7578
   99OSM   H10F 9952   0.493   4.171   9.232 -0.1491  1.3018 -1.0359
   99OSM   C11F 9953   0.486   4.357   9.121 -0.3640  0.2483  0.8888
   99OSM   H11F 9954   0.576   4.422   9.114  0.5708 -0.9563  1.3476
   99OSM   H11G 9955   0.398   4.422   9.106 -0.0785  0.5982  0.7075
   99OSM   C12F 9956   0.500   4.270   8.988  0.0412 -0.1182 -0.1922
   99OSM   H12F 9957   0.433   4.184   8.968  0.6066 -0.5492 -0.2828
   99OSM   H12G 9958   0.604   4.232   8.995 -1.0260 -3.4807 -0.7879
   99OSM   C13F 9959   0.479   4.359   8.865 -0.2413 -0.0142  0.2606
   99OSM   H13F 9960   0.542   4.448   8.888 -0.5828  0.2437  0.2007
   99OSM   H13G 9961   0.380   4.408   8.871 -0.2954 -0.0134 -0.4792
   99OSM   C14F 9962   0.521   4.295   8.729  0.1918 -0.6631  0.1416
   99OSM   H14F 9963   0.444   4.218   8.705 -0.9307  0.3234  0.4631
   99OSM   H14G 9964   0.612   4.233   8.746 -0.7177 -1.9171  0.7022
   99OSM   C15F 9965   0.533   4.408   8.623  0.0715  0.6525 -1.0153
   99OSM   H15F 9966   0.629   4.460   8.645 -0.6808  1.3544  0.8349
   99OSM   H15G 9967   0.460   4.489   8.646 -0.7647 -0.8154  2.0782
   99OSM   C16F 9968   0.508   4.364   8.481 -0.0956  0.4098  0.4026
   99OSM   H16F 9969   0.402   4.353   8.451  0.1835  1.7788 -1.2666
   99OSM   H16G 9970   0.554   4.267   8.452  1.8129  1.5012 -0.4172
   99OSM   C17F 9971   0.562   4.466   8.384 -0.3815 -0.3573  0.1221
   99OSM   H17F 9972   0.669   4.494   8.398 -0.0564 -1.9040  1.0147
   99OSM   H17G 9973   0.512   4.561   8.412  2.0263  1.2545 -0.7257
   99OSM   C18F 9974   0.554   4.423   8.234  0.0734  0.5638  0.2354
   99OSM   H18F 9975   0.453   4.379   8.214 -0.4673  1.1601  1.5243
   99OSM   H18G 9976   0.633   4.355   8.198 -2.6449 -3.3521  0.9973
   99OSM   H18H 9977   0.557   4.518   8.177  0.3823 -0.9423 -2.3967
  100OSM      N 9978   1.533   0.580  10.935  0.5073 -0.2977  0.2766
  100OSM    C15 9979   1.663   0.650  10.938 -0.8083  0.1182  0.4844
  100OSM   H15A 9980   1.684   0.700  10.845  1.9035 -0.8753  0.4558
  100OSM   H15B 9981   1.743   0.579  10.956 -0.3472 -0.5074 -3.2555
  100OSM   H15C 9982   1.654   0.728  11.012  0.2043  2.1498 -1.4452
  100OSM    C14 9983   1.531   0.479  10.826 -0.0480  0.7231  0.1223
  100OSM   H14A 9984   1.616   0.412  10.829 -0.9821 -0.4857  3.7206
  100OSM   H14B 9985   1.512   0.523  10.729 -0.0721 -0.1275 -0.2716
  100OSM   H14C 9986   1.441   0.423  10.844  0.4162  0.1032  0.5648
  100OSM    C13 9987   1.516   0.514  11.070  0.0922  0.1369  0.0417
  100OSM   H13A 9988   1.535   0.583  11.151  0.8319 -2.3191  2.0870
  100OSM   H13B 9989   1.581   0.429  11.084  2.4023  1.3142 -2.6680
  100OSM   H13C 9990   1.414   0.493  11.099 -1.3729  4.0308 -1.6206
  100OSM    C12 9991   1.416   0.679  10.912  0.5443 -0.9214 -0.1563
  100OSM   H12A 9992   1.425   0.753  10.991 -0.1991 -2.0596  1.0282
  100OSM   H12B 9993   1.327   0.625  10.939 -0.3460 -0.0044 -1.1455
  100OSM    C11 9994   1.397   0.741  10.775 -0.1109  0.3605  0.6811
  100OSM   H11A 9995   1.493   0.779  10.734  0.3117  0.0523  1.3635
  100OSM   H11B 9996   1.331   0.830  10.781 -0.0601  0.5741 -1.3904
  100OSM      P 9997   1.191   0.600  10.694  0.2759 -0.4499 -0.7961
  100OSM    O13 9998   1.177   0.467  10.638  0.2391 -0.0342 -0.3937
  100OSM    O14 9999   1.152   0.614  10.839  0.0750  0.5098 -0.1715
  100OSM    O1110000   1.097   0.703  10.614  1.0713 -0.3527  0.0274
  100OSM    O1210001   1.339   0.649  10.685 -0.7628 -0.0196  0.0564
  100OSM    C1S10002   1.141   0.758  10.489  0.0491  0.3620  0.0252
  100OSM    H1S10003   1.249   0.782  10.494 -0.0625  1.2757 -1.4931
  100OSM    H1T10004   1.089   0.855  10.475  1.0855  0.6290 -2.4017
  100OSM     NF10005   1.203   0.676  10.259  0.0960  0.5254 -0.2248
  100OSM    HNF10006   1.182   0.737  10.183 -1.5698  0.6598  0.3127
  100OSM    C2S10007   1.107   0.662  10.366 -0.6761  0.0892 -0.2203
  100OSM    H2S10008   1.116   0.558  10.407  0.7472 -0.0677 -0.8584
  100OSM    C3S10009   0.958   0.689  10.328 -0.4449 -0.1359  0.1037
  100OSM    H3S10010   0.955   0.776  10.258  1.7908 -2.6935 -3.5188
  100OSM     O310011   0.877   0.716  10.448 -0.3934  0.1946 -0.5848
  100OSM    HO310012   0.944   0.725  10.516 -0.9874  2.0446 -0.1806
  100OSM    C4S10013   0.905   0.563  10.258  0.3720  0.8789 -0.5423
  100OSM    H4S10014   0.927   0.472  10.315  0.6955  1.0372 -0.4134
  100OSM    C5S10015   0.856   0.547  10.133  0.1283 -0.1756 -0.3987
  100OSM    H5S10016   0.862   0.622  10.053  2.7702 -1.4699 -1.5180
  100OSM    C6S10017   0.819   0.411  10.090  0.0637 -0.3856 -0.1565
  100OSM    H6S10018   0.709   0.402  10.077 -0.2456 -0.5033  2.1541
  100OSM    H6T10019   0.836   0.338  10.171 -3.1398 -0.9139  0.1859
  100OSM    C7S10020   0.878   0.366   9.955 -0.1328 -0.3641 -0.3931
  100OSM    H7S10021   0.883   0.255   9.963 -0.9443 -0.3355  0.9851
  100OSM    H7T10022   0.985   0.394   9.947  0.3067 -0.9400  2.4016
  100OSM    C8S10023   0.800   0.423   9.840  0.4140  0.7922 -1.0072
  100OSM    H8S10024   0.808   0.534   9.835  1.6932  0.7210 -0.7540
  100OSM    H8T10025   0.693   0.392   9.845  1.0126 -1.2207  0.5561
  100OSM    C9S10026   0.856   0.364   9.711  0.6298  0.0792 -0.6051
  100OSM    H9S10027   0.782   0.398   9.635  1.2496  1.8706 -0.4518
  100OSM    H9T10028   0.850   0.253   9.720  1.0988  0.0248 -0.9479
  100OSM   C10S10029   0.990   0.438   9.684  0.2931  1.0996 -0.7744
  100OSM   H10S10030   1.063   0.388   9.752 -1.5178  1.6247  1.6996
  100OSM   H10T10031   0.975   0.538   9.730 -3.3247 -0.3009  1.5642
  100OSM   C11S10032   1.032   0.461   9.541  0.1829 -0.4685 -0.1150
  100OSM   H11S10033   1.140   0.479   9.558 -0.2039  0.0367  2.3008
  100OSM   H11T10034   0.984   0.546   9.488 -0.3495 -1.1893 -0.8141
  100OSM   C12S10035   0.991   0.342   9.451 -0.1788 -0.0454  0.2000
  100OSM   H12S10036   0.887   0.364   9.418 -0.2667  1.3552  1.3159
  100OSM   H12T10037   0.996   0.243   9.500 -0.4274 -0.5845 -0.8377
  100OSM   C13S10038   1.074   0.329   9.322 -0.5038  0.2857  0.4843
  100OSM   H13S10039   1.179   0.294   9.326 -0.5504  0.2006  1.0013
  100OSM   H13T10040   1.072   0.420   9.259  0.2215  0.4763  0.7338
  100OSM   C14S10041   1.019   0.214   9.228 -0.5903  0.0578 -0.0459
  100OSM   H14S10042   0.908   0.212   9.224 -0.6631  0.5839  1.1145
  100OSM   H14T10043   1.057   0.121   9.276  0.9253  1.7295  2.1853
  100OSM   C15S10044   1.078   0.231   9.088 -0.5551 -0.5289  0.0390
  100OSM   H15S10045   1.188   0.240   9.100 -0.8418  0.7765  2.1858
  100OSM   H15T10046   1.039   0.330   9.055  0.8091 -0.0827 -0.2945
  100OSM   C16S10047   1.035   0.119   8.994 -0.5468 -0.4370  0.6244
  100OSM   H16S10048   0.925   0.131   8.998 -0.3088  2.1922  2.0395
  100OSM   H16T10049   1.058   0.017   9.030 -0.4834 -1.0685 -1.1428
  100OSM   C17S10050   1.083   0.129   8.847 -0.0067 -0.3701  0.1484
  100OSM   H17S10051   1.052   0.223   8.798  2.7544  1.0040  0.8352
  100OSM   H17T10052   1.035   0.046   8.791 -0.6952  0.9955 -1.3700
  100OSM   C18S10053   1.232   0.119   8.827 -0.5632 -0.4693 -0.7207
  100OSM   H18S10054   1.279   0.025   8.864 -1.1174  0.4675  2.6841
  100OSM   H18T10055   1.282   0.200   8.885  1.0543 -0.8292 -1.5435
  100OSM   H18U10056   1.272   0.150   8.728  0.8607  2.3706  0.6391
  100OSM    C1F10057   1.317   0.621  10.268 -0.7860 -0.5374 -0.7846
  100OSM     OF10058   1.344   0.535  10.353  0.0498 -0.5176 -0.4295
  100OSM    C2F10059   1.418   0.659  10.168 -0.3991  0.7254  0.6279
  100OSM    H2F10060   1.462   0.759  10.192  0.8497  0.4684 -0.4609
  100OSM    H2G10061   1.371   0.668  10.068 -0.6542  1.4997  0.8102
  100OSM    C3F10062   1.534   0.554  10.155  0.3209 -0.6373 -0.9207
  100OSM    H3F10063   1.485   0.461  10.121 -0.7420  0.2661 -1.9368
  100OSM    H3G10064   1.578   0.541  10.256  0.9622  2.7888 -0.6441
  100OSM    C4F10065   1.645   0.609  10.063  0.5145 -0.1008 -0.2573
  100OSM    H4F10066   1.736   0.553  10.092 -0.8193  0.1789  5.7659
  100OSM    H4G10067   1.660   0.712  10.101 -2.8119  0.4487 -0.0901
  100OSM    C5F10068   1.611   0.616   9.912  0.3444 -0.2139  0.1961
  100OSM    H5F10069   1.505   0.632   9.884 -0.2376 -2.1428  1.1018
  100OSM    H5G10070   1.632   0.518   9.864 -1.2316 -1.5955  2.1445
  100OSM    C6F10071   1.699   0.715   9.838 -0.9168 -0.2809  0.2704
  100OSM    H6F10072   1.808   0.705   9.858 -0.8457  0.0972  0.0770
  100OSM    H6G10073   1.677   0.821   9.864  2.6308  0.4291  0.9534
  100OSM    C7F10074   1.687   0.690   9.686  0.8808  0.1406 -0.1160
  100OSM    H7F10075   1.576   0.691   9.677  0.8952  0.0869 -0.2945
  100OSM    H7G10076   1.710   0.585   9.657  1.4033  0.8913 -2.6488
  100OSM    C8F10077   1.741   0.797   9.592 -0.2881 -0.2511  0.3604
  100OSM    H8F10078   1.851   0.788   9.600 -0.4127 -1.3000  1.0192
  100OSM    H8G10079   1.719   0.906   9.600  1.3973  0.1581 -0.0926
  100OSM    C9F10080   1.710   0.748   9.451  0.1967 -0.1327  0.1805
  100OSM    H9F10081   1.605   0.718   9.433  0.7040 -1.1297 -1.3093
  100OSM   C10F10082   1.789   0.721   9.347  0.0957  0.0447 -0.1184
  100OSM   H10F10083   1.739   0.697   9.252 -1.3173  1.0736  0.3315
  100OSM   C11F10084   1.936   0.747   9.332 -0.3268  1.2287 -0.3611
  100OSM   H11F10085   1.992   0.651   9.338 -1.1706  0.7134 -0.5700
  100OSM   H11G10086   1.966   0.810   9.418 -0.4553  1.9825 -0.8658
  100OSM   C12F10087   1.967   0.835   9.205  0.0717  0.3833 -0.7820
  100OSM   H12F10088   2.066   0.880   9.228  0.0051  0.1772 -0.0554
  100OSM   H12G10089   1.893   0.917   9.206 -0.5178 -0.1393 -1.0398
  100OSM   C13F10090   1.950   0.765   9.072 -0.0138 -0.3754 -0.3589
  100OSM   H13F10091   1.881   0.829   9.013  1.2815 -0.5651 -2.1576
  100OSM   H13G10092   1.912   0.661   9.073 -2.2774  0.3897  1.2500
  100OSM   C14F10093   2.087   0.759   8.998  0.9302  1.1899  0.2434
  100OSM   H14F10094   2.141   0.675   9.046 -0.9515  0.9935  2.1909
  100OSM   H14G10095   2.149   0.852   9.001  2.7618 -0.0079  1.3125
  100OSM   C15F10096   2.060   0.716   8.852  0.4313 -0.0444  0.8265
  100OSM   H15F10097   2.007   0.805   8.814 -1.2564 -1.2796  0.1787
  100OSM   H15G10098   1.971   0.649   8.857  1.0433 -0.8488  1.3637
  100OSM   C16F10099   2.173   0.661   8.772 -0.5385  0.3429  0.3882
  100OSM   H16F10100   2.202   0.563   8.815  1.2120  1.6712  2.4682
  100OSM   H16G10101   2.256   0.735   8.777 -0.7337  0.6151 -0.2447
  100OSM   C17F10102   2.149   0.628   8.623 -0.5257  0.6954  0.0546
  100OSM   H17F10103   2.064   0.556   8.624 -0.4965  0.6462 -0.7544
  100OSM   H17G10104   2.241   0.586   8.578 -1.1399  0.9865 -1.5557
  100OSM   C18F10105   2.102   0.748   8.544  1.0959  0.3369  0.2163
  100OSM   H18F10106   2.087   0.711   8.440 -1.4105 -0.7266  0.8819
  100OSM   H18G10107   2.172   0.833   8.532  0.3355  0.9520  0.0628
  100OSM   H18H10108   2.007   0.786   8.589  0.5442 -2.0310  1.1843
  101OSM      N10109   5.946   3.011  11.051 -0.6650 -0.1691  1.2677
  101OSM    C1510110   5.987   2.880  11.095  0.3475 -0.3253  0.4321
  101OSM   H15A10111   6.084   2.856  11.056  0.3036  0.5737 -0.2324
  101OSM   H15B10112   5.915   2.811  11.053 -1.5228  2.2525 -0.8216
  101OSM   H15C10113   5.998   2.872  11.203  1.6212  1.4421  0.4625
  101OSM    C1410114   5.806   3.054  11.110 -0.0565  0.2265 -0.5030
  101OSM   H14A10115   5.789   3.157  11.082  1.0835  0.1350 -1.6140
  101OSM   H14B10116   5.817   3.055  11.218  1.6775 -1.4734 -0.6014
  101OSM   H14C10117   5.725   2.991  11.079  0.4603 -0.1673 -1.0893
  101OSM    C1310118   6.047   3.109  11.100  0.7610 -0.3838  0.4930
  101OSM   H13A10119   6.036   3.210  11.063  1.1143 -0.7217 -0.5804
  101OSM   H13B10120   6.146   3.075  11.072  0.5301 -1.2750  0.7105
  101OSM   H13C10121   6.036   3.112  11.207 -1.3590 -0.4165  0.3186
  101OSM    C1210122   5.944   3.012  10.898 -0.3688 -0.2811  0.4056
  101OSM   H12A10123   5.881   2.929  10.867  0.5059  0.4390 -3.9403
  101OSM   H12B10124   6.044   2.996  10.859 -1.2833  1.5963 -3.1385
  101OSM    C1110125   5.885   3.131  10.827  0.3724 -0.6400  0.1708
  101OSM   H11A10126   5.783   3.151  10.866  0.9082 -1.8924  2.3590
  101OSM   H11B10127   5.868   3.101  10.722 -1.1197 -3.5075  1.1195
  101OSM      P10128   6.112   3.260  10.777  0.1326 -0.3969 -0.0653
  101OSM    O1310129   6.169   3.400  10.783  0.5541  0.2466 -0.6622
  101OSM    O1410130   6.203   3.149  10.824 -0.3127 -0.0659 -0.0589
  101OSM    O1110131   6.053   3.231  10.639 -0.3886  0.2263 -0.6026
  101OSM    O1210132   5.970   3.248  10.854  0.0516  0.2151  0.1048
  101OSM    C1S10133   5.960   3.314  10.575  0.6488 -0.4721 -0.6510
  101OSM    H1S10134   5.965   3.423  10.598  1.0957 -0.7077  0.4390
  101OSM    H1T10135   5.855   3.289  10.602  0.5687  0.5189 -0.0117
  101OSM     NF10136   5.888   3.417  10.369  0.3325 -0.5480  0.4038
  101OSM    HNF10137   5.803   3.382  10.330  0.7683  0.8725 -2.0420
  101OSM    C2S10138   5.973   3.313  10.419  0.2561 -0.9919  0.0031
  101OSM    H2S10139   6.074   3.337  10.380  0.1352 -0.3078  0.0876
  101OSM    C3S10140   5.947   3.160  10.376 -1.0168 -0.2022 -0.4054
  101OSM    H3S10141   5.844   3.148  10.416 -2.1989  3.7108 -1.7897
  101OSM     O310142   6.016   3.061  10.451 -0.0925  0.5676 -0.0719
  101OSM    HO310143   6.059   3.123  10.511  1.4879 -0.4781 -0.0372
  101OSM    C4S10144   5.952   3.134  10.227  0.0081  0.3318  1.3067
  101OSM    H4S10145   5.856   3.109  10.180  0.1472 -0.1222  1.2562
  101OSM    C5S10146   6.060   3.131  10.142 -0.1544 -1.3198 -0.3515
  101OSM    H5S10147   6.161   3.131  10.186  0.0988 -0.5745 -0.9108
  101OSM    C6S10148   6.050   3.100   9.997  0.3480  0.2371 -0.0931
  101OSM    H6S10149   6.044   2.989   9.995  2.0270  0.1263 -1.0197
  101OSM    H6T10150   6.144   3.124   9.942  0.0399 -0.0246 -0.7452
  101OSM    C7S10151   5.934   3.150   9.919  0.0837 -0.5012  1.1572
  101OSM    H7S10152   5.943   3.261   9.920 -0.3577 -0.4614  2.2011
  101OSM    H7T10153   5.840   3.140   9.977 -1.2598  1.6035 -0.4767
  101OSM    C8S10154   5.926   3.099   9.766 -0.9386 -0.4904 -0.0009
  101OSM    H8S10155   5.896   2.992   9.764 -1.5519 -0.3086 -0.8948
  101OSM    H8T10156   6.024   3.126   9.722 -0.6616  0.5322  1.2052
  101OSM    C9S10157   5.826   3.186   9.683 -0.5479 -0.4094 -0.0099
  101OSM    H9S10158   5.858   3.291   9.667  1.5310 -1.0672 -0.5083
  101OSM    H9T10159   5.730   3.188   9.738 -1.0513  1.5870 -0.8990
  101OSM   C10S10160   5.789   3.140   9.537  0.1146  0.0773 -0.3671
  101OSM   H10S10161   5.714   3.195   9.476  0.0474  0.5027  0.0895
  101OSM   H10T10162   5.752   3.035   9.547  0.6651 -0.0029  1.0993
  101OSM   C11S10163   5.916   3.142   9.456  0.3514  0.5439  0.8793
  101OSM   H11S10164   5.984   3.057   9.478  0.4845  0.7568  1.2910
  101OSM   H11T10165   5.964   3.241   9.473  0.4674  0.6384  0.0397
  101OSM   C12S10166   5.869   3.126   9.308 -0.0286  1.0630  0.5853
  101OSM   H12S10167   5.829   3.227   9.286 -1.2432  0.6032  0.5521
  101OSM   H12T10168   5.795   3.043   9.307  0.2351  0.8156 -1.0419
  101OSM   C13S10169   5.985   3.093   9.212 -0.5868  0.7625  0.6768
  101OSM   H13S10170   6.040   3.008   9.259  1.6704  0.3535 -2.3851
  101OSM   H13T10171   6.045   3.186   9.207  0.3450  0.1131 -1.1163
  101OSM   C14S10172   5.945   3.051   9.074  0.6553  0.7104  0.2155
  101OSM   H14S10173   5.944   2.941   9.059 -1.5393  0.7100  0.0250
  101OSM   H14T10174   6.019   3.096   9.004 -0.7375  1.5888 -0.7643
  101OSM   C15S10175   5.805   3.107   9.021  0.7273  0.1496 -0.5426
  101OSM   H15S10176   5.801   3.217   9.028  1.3189  0.0995  0.8182
  101OSM   H15T10177   5.724   3.078   9.092  0.9131  1.3742  0.1935
  101OSM   C16S10178   5.762   3.069   8.877 -0.1399 -0.0617  0.3678
  101OSM   H16S10179   5.747   2.960   8.861  2.2535 -0.1198 -2.2143
  101OSM   H16T10180   5.847   3.094   8.812 -0.5695  2.6951  0.7569
  101OSM   C17S10181   5.634   3.149   8.841  0.1498  0.2635  0.1333
  101OSM   H17S10182   5.655   3.257   8.852 -0.8541  0.4638  0.1610
  101OSM   H17T10183   5.552   3.116   8.908  0.0408  0.4713  0.1022
  101OSM   C18S10184   5.590   3.122   8.694  0.2218 -0.4415  0.0671
  101OSM   H18S10185   5.670   3.142   8.619  1.0337  0.3273  1.0959
  101OSM   H18T10186   5.511   3.187   8.652 -2.0305 -3.3962 -0.5730
  101OSM   H18U10187   5.559   3.016   8.686  0.8549 -0.5140 -2.0226
  101OSM    C1F10188   5.926   3.542  10.349  0.1051 -0.1288  0.3266
  101OSM     OF10189   6.046   3.571  10.372  0.3825 -0.1321  0.2853
  101OSM    C2F10190   5.830   3.634  10.286 -0.1677  0.2554  0.1252
  101OSM    H2F10191   5.809   3.715  10.359 -1.3710 -0.9508  1.1832
  101OSM    H2G10192   5.742   3.572  10.258 -1.0178  1.5399 -0.1179
  101OSM    C3F10193   5.872   3.684  10.144  0.1646  0.1825  0.4669
  101OSM    H3F10194   5.970   3.735  10.148  1.4292 -2.1413  1.1012
  101OSM    H3G10195   5.801   3.765  10.117  0.9840  1.1999  1.2866
  101OSM    C4F10196   5.875   3.574  10.034  0.4822 -0.4207 -0.1445
  101OSM    H4F10197   5.956   3.499  10.052  1.3166  0.4732 -0.1148
  101OSM    H4G10198   5.909   3.629   9.944 -1.4833  0.8888 -0.1399
  101OSM    C5F10199   5.739   3.505  10.022  0.9504 -0.0512  0.4253
  101OSM    H5F10200   5.647   3.563  10.046  0.3031 -0.2222 -1.4488
  101OSM    H5G10201   5.734   3.409  10.078  1.3607 -1.2048 -1.4215
  101OSM    C6F10202   5.709   3.466   9.874  0.5444  0.7289 -0.0646
  101OSM    H6F10203   5.797   3.412   9.832  0.8575  2.6398 -2.0288
  101OSM    H6G10204   5.622   3.397   9.874  0.7501  0.4352 -1.9898
  101OSM    C7F10205   5.685   3.585   9.788 -0.1849 -1.2770  0.1310
  101OSM    H7F10206   5.771   3.656   9.782 -1.1371 -0.0999  0.1178
  101OSM    H7G10207   5.604   3.650   9.826  0.2146 -0.7586  0.1227
  101OSM    C8F10208   5.648   3.524   9.648  0.3773  0.1021  0.5389
  101OSM    H8F10209   5.574   3.444   9.667  2.3321 -1.4547  2.0688
  101OSM    H8G10210   5.731   3.460   9.609  0.1703  0.0264  0.2279
  101OSM    C9F10211   5.601   3.617   9.537 -0.7056 -0.2439 -0.0398
  101OSM    H9F10212   5.495   3.645   9.548 -1.1591 -1.6350 -0.5845
  101OSM   C10F10213   5.669   3.637   9.426  0.1195 -0.1505  0.9248
  101OSM   H10F10214   5.635   3.715   9.356 -0.7377 -1.1262  0.2345
  101OSM   C11F10215   5.808   3.590   9.375  0.1619  0.3374 -0.4491
  101OSM   H11F10216   5.856   3.520   9.447 -2.2965  1.9009  2.9781
  101OSM   H11G10217   5.885   3.670   9.382 -0.3712  0.9321 -1.2580
  101OSM   C12F10218   5.819   3.537   9.223  0.6764 -0.0707  0.0913
  101OSM   H12F10219   5.765   3.442   9.203  0.2216  0.5959 -2.1175
  101OSM   H12G10220   5.924   3.508   9.205  0.3804 -1.8109  0.9703
  101OSM   C13F10221   5.774   3.642   9.123  0.1879  0.1042  0.5976
  101OSM   H13F10222   5.842   3.728   9.145 -0.1648  0.1284  1.6581
  101OSM   H13G10223   5.677   3.691   9.146  1.5932  3.2203  0.4580
  101OSM   C14F10224   5.773   3.589   8.974 -0.1238 -0.4039  0.0642
  101OSM   H14F10225   5.706   3.502   8.956  0.6095 -0.8556 -0.6103
  101OSM   H14G10226   5.874   3.551   8.946 -0.7974 -0.1666 -3.0310
  101OSM   C15F10227   5.729   3.693   8.875 -0.3924  0.3088  0.2949
  101OSM   H15F10228   5.621   3.717   8.887 -1.1004 -0.5123 -3.3745
  101OSM   H15G10229   5.742   3.666   8.768  0.5005  0.5553  0.3370
  101OSM   C16F10230   5.808   3.830   8.888 -0.4030  0.1582  0.4283
  101OSM   H16F10231   5.917   3.810   8.896 -0.6812 -0.7615  2.7948
  101OSM   H16G10232   5.781   3.878   8.985  2.7929  0.1401  1.4264
  101OSM   C17F10233   5.767   3.936   8.787  0.6091  0.0606 -0.4157
  101OSM   H17F10234   5.791   3.899   8.685  3.8789  0.2208  0.2012
  101OSM   H17G10235   5.828   4.027   8.806  1.2107 -0.1922 -1.1129
  101OSM   C18F10236   5.625   3.987   8.775  0.3025  0.3905  0.3332
  101OSM   H18F10237   5.625   4.078   8.711 -1.8237  1.0683  1.2024
  101OSM   H18G10238   5.581   4.004   8.876  0.2344  1.4678  0.1365
  101OSM   H18H10239   5.581   3.895   8.730  0.9528  0.3228 -0.1698
  102OSM      N10240   6.034   0.396  10.816  0.3293  0.0118 -0.2435
  102OSM    C1510241   6.072   0.352  10.961  0.6082 -0.1805 -0.0095
  102OSM   H15A10242   6.043   0.249  10.974  1.1967 -0.3388  0.0605
  102OSM   H15B10243   6.037   0.422  11.036  3.5497  0.8220  0.5825
  102OSM   H15C10244   6.180   0.349  10.958  0.5749 -1.0444 -0.5252
  102OSM    C1410245   6.066   0.549  10.813  0.4272  0.0426 -0.0028
  102OSM   H14A10246   6.026   0.604  10.729 -1.6674 -0.6927  0.4754
  102OSM   H14B10247   6.174   0.561  10.809  0.9470 -3.0268  1.6531
  102OSM   H14C10248   6.022   0.599  10.897 -2.7621  1.5088 -2.3396
  102OSM    C1310249   6.120   0.333  10.724  0.2657  0.2749 -0.2283
  102OSM   H13A10250   6.113   0.382  10.628  1.4400 -0.1535 -0.5450
  102OSM   H13B10251   6.092   0.230  10.705 -2.3084  0.1166  3.4001
  102OSM   H13C10252   6.225   0.322  10.748  0.5347 -0.4996 -1.6577
  102OSM    C1210253   5.892   0.375  10.771 -0.4250 -0.1286 -0.8188
  102OSM   H12A10254   5.887   0.417  10.672 -0.0138 -0.6263 -1.0521
  102OSM   H12B10255   5.827   0.439  10.830 -0.1156 -1.7640  1.4371
  102OSM    C1110256   5.842   0.231  10.776 -0.8119  0.6242 -0.3328
  102OSM   H11A10257   5.846   0.191  10.880 -1.0652  0.7550 -0.2720
  102OSM   H11B10258   5.911   0.164  10.721 -1.5507  0.3601 -0.9581
  102OSM      P10259   5.644   0.272  10.584 -0.3559  0.1467 -0.4284
  102OSM    O1310260   5.633   0.160  10.491 -0.4185 -0.1541  0.5516
  102OSM    O1410261   5.525   0.351  10.625 -0.7368  0.1167 -0.6380
  102OSM    O1110262   5.748   0.372  10.533 -0.4710  0.0371 -0.2977
  102OSM    O1210263   5.712   0.214  10.720 -0.1192 -0.3012  0.5002
  102OSM    C1S10264   5.848   0.356  10.431  0.1424 -0.0479  0.1240
  102OSM    H1S10265   5.879   0.252  10.409 -0.3204 -0.4620  1.3402
  102OSM    H1T10266   5.941   0.408  10.462  0.7953 -1.3209  0.3514
  102OSM     NF10267   5.903   0.420  10.191 -0.6680 -0.2770 -0.4929
  102OSM    HNF10268   5.956   0.502  10.170  2.2970 -1.6575  1.1208
  102OSM    C2S10269   5.794   0.427  10.296 -1.2051  0.2011 -0.4213
  102OSM    H2S10270   5.710   0.363  10.261 -0.4854 -0.8174 -0.3622
  102OSM    C3S10271   5.754   0.574  10.326  0.6151 -0.4925  0.0652
  102OSM    H3S10272   5.839   0.629  10.372 -0.1832  0.1193  0.8365
  102OSM     O310273   5.651   0.599  10.424 -0.3161 -0.2095 -0.3670
  102OSM    HO310274   5.630   0.514  10.463  2.4640 -0.6988  0.2633
  102OSM    C4S10275   5.717   0.643  10.196  0.1861  0.7858 -0.2730
  102OSM    H4S10276   5.806   0.681  10.143  0.8819 -0.4862 -0.0707
  102OSM    C5S10277   5.589   0.646  10.138  0.8004  0.1586 -0.1952
  102OSM    H5S10278   5.506   0.614  10.202  1.6788  1.8828  1.9519
  102OSM    C6S10279   5.553   0.716  10.009  0.0616 -0.1826 -0.0498
  102OSM    H6S10280   5.600   0.816   9.998  0.5522 -0.3282  0.6948
  102OSM    H6T10281   5.446   0.742  10.022  0.2559  0.4674  0.2399
  102OSM    C7S10282   5.565   0.621   9.894 -0.4353  1.2597  0.1421
  102OSM    H7S10283   5.506   0.532   9.923 -0.2397  1.4750  1.2186
  102OSM    H7T10284   5.665   0.578   9.869 -1.0309 -1.7475  2.4379
  102OSM    C8S10285   5.514   0.689   9.770 -0.0649 -0.1813  0.1560
  102OSM    H8S10286   5.415   0.735   9.791 -0.2660 -0.6643  0.2585
  102OSM    H8T10287   5.484   0.600   9.712  1.3296 -1.2410  1.0074
  102OSM    C9S10288   5.612   0.778   9.693  0.8459  0.4082  0.6697
  102OSM    H9S10289   5.713   0.732   9.680  1.1933  1.6580 -1.5486
  102OSM    H9T10290   5.624   0.872   9.752  0.2975  1.4228 -0.7703
  102OSM   C10S10291   5.540   0.821   9.558  0.1791 -0.1639  0.6507
  102OSM   H10S10292   5.435   0.848   9.582 -0.7786 -2.9820  0.1007
  102OSM   H10T10293   5.538   0.744   9.477 -0.4205  0.1715  0.3414
  102OSM   C11S10294   5.604   0.946   9.486  0.2392  0.5964 -0.1085
  102OSM   H11S10295   5.707   0.920   9.451 -0.0219 -3.4856  1.5422
  102OSM   H11T10296   5.600   1.025   9.563  0.5423 -0.7163  1.3168
  102OSM   C12S10297   5.526   1.004   9.367  0.1175  0.2636 -0.7240
  102OSM   H12S10298   5.444   1.071   9.400  0.0236 -1.0390  1.9622
  102OSM   H12T10299   5.478   0.920   9.313 -1.2512  0.4262  0.1856
  102OSM   C13S10300   5.610   1.097   9.281  0.0886  0.3158  0.1104
  102OSM   H13S10301   5.552   1.131   9.193  0.0753 -0.1984 -0.0825
  102OSM   H13T10302   5.694   1.039   9.237 -1.3254  0.3933 -2.9374
  102OSM   C14S10303   5.679   1.220   9.348 -0.4785 -0.5375  1.1866
  102OSM   H14S10304   5.741   1.189   9.435 -2.6004 -1.4441  2.4549
  102OSM   H14T10305   5.598   1.286   9.388  1.3063  1.7243  1.2557
  102OSM   C15S10306   5.760   1.298   9.241 -0.1926  0.2820  0.0636
  102OSM   H15S10307   5.828   1.230   9.186 -2.2396 -2.0138  0.1949
  102OSM   H15T10308   5.839   1.360   9.289  0.8514  0.4842 -1.8242
  102OSM   C16S10309   5.668   1.389   9.148 -0.3818  0.2243  0.0530
  102OSM   H16S10310   5.585   1.444   9.195 -0.4383  0.7621 -0.6670
  102OSM   H16T10311   5.613   1.322   9.079 -2.9682  3.0173 -0.7844
  102OSM   C17S10312   5.737   1.496   9.065 -0.5802 -1.1317 -0.5428
  102OSM   H17S10313   5.823   1.447   9.015 -0.2272 -2.8378  1.6098
  102OSM   H17T10314   5.783   1.570   9.134 -2.4353 -0.3539 -0.0832
  102OSM   C18S10315   5.640   1.580   8.978  0.1557  0.0214 -0.1992
  102OSM   H18S10316   5.544   1.618   9.019 -0.9989  1.6113 -3.9722
  102OSM   H18T10317   5.606   1.505   8.903  1.0797 -0.3709 -0.2427
  102OSM   H18U10318   5.705   1.655   8.927  0.9317  0.4541  1.3610
  102OSM    C1F10319   5.958   0.307  10.142  0.3564 -1.2728 -0.3398
  102OSM     OF10320   5.911   0.195  10.168 -0.7089 -0.2689 -0.0984
  102OSM    C2F10321   6.079   0.337  10.056  0.6766 -0.5031  0.2002
  102OSM    H2F10322   6.144   0.247  10.055  0.1266 -0.9132  0.3458
  102OSM    H2G10323   6.130   0.426  10.098  0.1673 -0.0074 -0.2232
  102OSM    C3F10324   6.034   0.361   9.908 -0.2093 -0.3814  0.3410
  102OSM    H3F10325   6.119   0.411   9.859  0.5028 -2.2196 -0.3894
  102OSM    H3G10326   5.951   0.434   9.898 -1.1079 -1.2901  0.9330
  102OSM    C4F10327   5.991   0.241   9.831 -0.0679  0.3500  0.2913
  102OSM    H4F10328   5.936   0.272   9.740 -1.1093  0.8520  1.0796
  102OSM    H4G10329   5.918   0.178   9.887 -1.5776 -0.3781 -2.3124
  102OSM    C5F10330   6.109   0.157   9.790 -0.1300 -0.1309 -0.0382
  102OSM    H5F10331   6.179   0.152   9.875 -2.1349 -0.5932  1.6658
  102OSM    H5G10332   6.160   0.213   9.708 -1.3669  0.8883 -0.1472
  102OSM    C6F10333   6.078   0.017   9.739  0.1914  0.0534 -0.1921
  102OSM    H6F10334   6.046  -0.033   9.833  0.5937  1.0374  0.4804
  102OSM    H6G10335   6.173  -0.023   9.697  1.9593  1.1131  2.4834
  102OSM    C7F10336   5.966   0.011   9.640 -0.0204 -0.0020  0.0862
  102OSM    H7F10337   5.867   0.024   9.689 -1.1544 -3.3954 -1.0062
  102OSM    H7G10338   5.963  -0.095   9.607  1.1111 -0.0283  0.0243
  102OSM    C8F10339   5.986   0.100   9.513  0.6134  0.2829 -0.1414
  102OSM    H8F10340   6.090   0.085   9.478 -0.5255 -3.2566 -2.5966
  102OSM    H8G10341   5.980   0.206   9.546  1.3055 -0.0847  1.2118
  102OSM    C9F10342   5.875   0.082   9.414 -0.0940 -0.3149  0.1194
  102OSM    H9F10343   5.781   0.092   9.470  0.6363  1.4378  1.1271
  102OSM   C10F10344   5.885   0.043   9.286  0.8286 -0.0791 -0.4698
  102OSM   H10F10345   5.802   0.032   9.214  1.1128  1.2547 -1.0497
  102OSM   C11F10346   6.020   0.022   9.225  0.3026 -0.2388 -0.1701
  102OSM   H11F10347   6.030  -0.089   9.220 -0.1795 -0.2516 -1.2577
  102OSM   H11G10348   6.096   0.055   9.299 -1.9650  1.6558  1.4422
  102OSM   C12F10349   6.040   0.089   9.087 -0.4074 -0.2336  0.0401
  102OSM   H12F10350   5.967   0.036   9.022 -0.3912  0.6279 -0.6826
  102OSM   H12G10351   6.135   0.048   9.046 -0.7755 -2.1539  0.9860
  102OSM   C13F10352   6.016   0.236   9.080  0.7354 -0.2668 -0.1103
  102OSM   H13F10353   6.097   0.286   9.138 -0.5927  0.1065  1.4896
  102OSM   H13G10354   5.919   0.256   9.129  0.5483 -2.7858  0.6859
  102OSM   C14F10355   6.012   0.289   8.932  0.4079  0.4190  0.0704
  102OSM   H14F10356   5.930   0.233   8.882 -0.8903  1.7022  0.7123
  102OSM   H14G10357   6.107   0.271   8.877  0.1273  0.1524 -0.3355
  102OSM   C15F10358   5.994   0.448   8.924 -0.1018 -0.5222 -0.8179
  102OSM   H15F10359   6.033   0.493   9.017  0.6697 -1.3680 -0.7234
  102OSM   H15G10360   5.890   0.487   8.924 -0.0759 -0.4289 -1.5588
  102OSM   C16F10361   6.066   0.512   8.803  0.3417  0.6942  0.0405
  102OSM   H16F10362   6.013   0.459   8.721 -0.4195 -0.7286  1.3844
  102OSM   H16G10363   6.175   0.493   8.795 -0.1087 -1.4178 -2.2256
  102OSM   C17F10364   6.045   0.664   8.789 -0.3585  0.0475  0.4886
  102OSM   H17F10365   6.093   0.685   8.691 -0.4741 -2.6775 -0.2404
  102OSM   H17G10366   6.108   0.708   8.869  2.1476  0.7670 -1.7419
  102OSM   C18F10367   5.898   0.710   8.769  0.2197 -0.0777  0.6755
  102OSM   H18F10368   5.905   0.817   8.739  1.7687 -0.2789  0.2099
  102OSM   H18G10369   5.833   0.708   8.859  0.7874 -0.8951  1.0726
  102OSM   H18H10370   5.853   0.656   8.683 -0.5459  1.7768 -0.1519
  103OSM      N10371   1.387   3.708  10.962 -0.1441  0.3141  0.2216
  103OSM    C1510372   1.313   3.814  11.033 -0.9021 -0.0017 -0.1170
  103OSM   H15A10373   1.209   3.786  11.035 -1.0721  0.6354  0.6546
  103OSM   H15B10374   1.328   3.910  10.986  4.8072 -0.2205  0.6009
  103OSM   H15C10375   1.331   3.835  11.138  4.4055 -0.3312 -0.7121
  103OSM    C1410376   1.536   3.742  10.961  0.5282  0.5113  0.1894
  103OSM   H14A10377   1.554   3.846  10.941 -0.4675  1.2376  2.6486
  103OSM   H14B10378   1.587   3.675  10.894  0.0409 -1.3715  1.6240
  103OSM   H14C10379   1.576   3.718  11.058 -1.5904  0.7160  1.1813
  103OSM    C1310380   1.371   3.579  11.035 -0.0854 -1.0843  0.6628
  103OSM   H13A10381   1.403   3.603  11.136  2.9734 -1.2267 -0.1724
  103OSM   H13B10382   1.436   3.503  10.993  2.2201  1.3348 -0.4595
  103OSM   H13C10383   1.266   3.558  11.031 -0.1616 -0.6296  0.1287
  103OSM    C1210384   1.329   3.689  10.824 -0.3066  0.4134  0.4060
  103OSM   H12A10385   1.357   3.596  10.777  1.3451  0.8459  0.4911
  103OSM   H12B10386   1.362   3.775  10.768 -0.1375  0.7346  0.9892
  103OSM    C1110387   1.174   3.698  10.805  0.6415  0.5717 -0.0113
  103OSM   H11A10388   1.117   3.664  10.894 -1.0181  1.0235 -0.8568
  103OSM   H11B10389   1.147   3.625  10.726 -0.6756  0.2211  0.7252
  103OSM      P10390   1.170   3.875  10.623  0.0517  0.2285 -0.0476
  103OSM    O1310391   1.135   4.017  10.606  0.7093  0.6538 -0.9602
  103OSM    O1410392   1.313   3.847  10.592 -0.1665  0.6027 -0.4169
  103OSM    O1110393   1.081   3.783  10.532 -0.1206 -0.7693 -0.4222
  103OSM    O1210394   1.123   3.819  10.766  0.6428  0.2729  0.0377
  103OSM    C1S10395   0.937   3.802  10.526 -0.5112  0.6211  0.1882
  103OSM    H1S10396   0.906   3.907  10.541 -0.1814  0.9428 -1.2234
  103OSM    H1T10397   0.880   3.733  10.592  0.1054  0.0780  0.1663
  103OSM     NF10398   0.768   3.811  10.359 -0.3768 -0.5934  0.0320
  103OSM    HNF10399   0.687   3.766  10.395 -2.0134 -0.0361 -2.6785
  103OSM    C2S10400   0.897   3.756  10.383  0.2488  1.0176 -0.9877
  103OSM    H2S10401   0.968   3.802  10.310 -0.7226  1.3871 -1.7161
  103OSM    C3S10402   0.903   3.603  10.376  1.1530 -0.1208 -0.0963
  103OSM    H3S10403   0.813   3.567  10.430 -0.1189  0.3083 -1.8432
  103OSM     O310404   1.024   3.550  10.429 -0.1684  0.0166  0.5537
  103OSM    HO310405   1.060   3.630  10.468 -0.6202  1.1087 -1.1445
  103OSM    C4S10406   0.892   3.556  10.239  0.6807  0.5091  0.4099
  103OSM    H4S10407   0.992   3.551  10.193  0.7081 -1.6947  0.6025
  103OSM    C5S10408   0.784   3.519  10.162 -0.0331 -0.3335 -0.3853
  103OSM    H5S10409   0.683   3.502  10.201 -0.7145  0.2109 -1.8838
  103OSM    C6S10410   0.799   3.473  10.017 -0.0577 -0.3375 -0.6483
  103OSM    H6S10411   0.712   3.504   9.956  0.9246  0.2056 -1.8242
  103OSM    H6T10412   0.801   3.362  10.028 -0.8732 -0.0985  3.8707
  103OSM    C7S10413   0.918   3.526   9.937 -0.1545 -0.7493  0.6453
  103OSM    H7S10414   1.011   3.505   9.996  0.4974  0.6251  0.1497
  103OSM    H7T10415   0.907   3.636   9.939  0.9923 -0.6194  0.5349
  103OSM    C8S10416   0.931   3.478   9.791  0.1342  0.5438  0.4722
  103OSM    H8S10417   0.920   3.368   9.786  0.9748  0.4765 -0.1459
  103OSM    H8T10418   1.033   3.499   9.751  0.9976 -1.3503  1.5430
  103OSM    C9S10419   0.822   3.543   9.705  0.5648  0.0046  0.0376
  103OSM    H9S10420   0.837   3.653   9.700 -1.7854  0.3536 -1.0809
  103OSM    H9T10421   0.726   3.533   9.760  0.0658 -2.2327 -1.1311
  103OSM   C10S10422   0.814   3.467   9.570 -0.4270  0.5256 -0.6671
  103OSM   H10S10423   0.729   3.396   9.562 -0.3942  0.5475 -1.1968
  103OSM   H10T10424   0.907   3.409   9.552  0.0204  1.3678 -1.1265
  103OSM   C11S10425   0.793   3.564   9.444 -0.3451 -0.2117  0.7600
  103OSM   H11S10426   0.878   3.635   9.432 -2.0676  1.7499 -0.5785
  103OSM   H11T10427   0.703   3.628   9.459 -0.1067  0.3899 -0.3044
  103OSM   C12S10428   0.798   3.471   9.323 -0.1480 -0.4526  0.6293
  103OSM   H12S10429   0.705   3.409   9.323 -1.1415  0.9987  1.0261
  103OSM   H12T10430   0.882   3.400   9.340 -0.1333 -0.6959 -0.4129
  103OSM   C13S10431   0.825   3.534   9.182 -0.3358 -0.2812 -0.7591
  103OSM   H13S10432   0.926   3.577   9.168 -0.7538  0.6029 -1.1107
  103OSM   H13T10433   0.746   3.610   9.162 -0.8730 -0.6740 -0.1846
  103OSM   C14S10434   0.837   3.422   9.079 -0.2989  0.2069 -0.2528
  103OSM   H14S10435   0.752   3.351   9.083 -1.0087  0.5715 -4.2668
  103OSM   H14T10436   0.936   3.375   9.096 -1.5471 -2.0450  1.1923
  103OSM   C15S10437   0.846   3.482   8.932  0.1628  0.0945 -0.0173
  103OSM   H15S10438   0.908   3.574   8.932  0.8512 -0.3664  0.1632
  103OSM   H15T10439   0.741   3.497   8.899  0.9089  1.9634 -1.7525
  103OSM   C16S10440   0.923   3.381   8.840 -0.2314  0.6362 -0.1139
  103OSM   H16S10441   1.022   3.362   8.887 -0.5694 -0.7893  0.0605
  103OSM   H16T10442   0.947   3.424   8.741  2.7450  1.6943  0.9425
  103OSM   C17S10443   0.849   3.249   8.825 -0.2967  0.1096  0.0950
  103OSM   H17S10444   0.750   3.284   8.789 -0.4880  1.3178  1.6619
  103OSM   H17T10445   0.831   3.199   8.923 -1.3024 -2.7246 -1.4097
  103OSM   C18S10446   0.919   3.159   8.726 -0.0207  0.1548 -0.5500
  103OSM   H18S10447   0.933   3.208   8.626  0.3262  1.5883  0.1689
  103OSM   H18T10448   0.857   3.069   8.708  0.9779 -0.9114  1.1895
  103OSM   H18U10449   1.018   3.116   8.752  0.4633 -0.3367 -2.9094
  103OSM    C1F10450   0.760   3.932  10.314  0.8398  0.1760  0.1581
  103OSM     OF10451   0.854   3.994  10.264  0.3083  0.3684  0.0500
  103OSM    C2F10452   0.625   3.987  10.322  0.0380 -0.5249  0.4129
  103OSM    H2F10453   0.620   4.024  10.426 -1.1343 -1.4302  0.7021
  103OSM    H2G10454   0.554   3.901  10.323  0.2859 -0.7639 -0.9645
  103OSM    C3F10455   0.583   4.084  10.213  0.8867  0.0565  0.0995
  103OSM    H3F10456   0.639   4.180  10.220 -1.9817  1.8358  0.0680
  103OSM    H3G10457   0.475   4.105  10.225  0.6643 -0.7224 -0.4374
  103OSM    C4F10458   0.600   4.030  10.068  0.1940  0.1015 -0.2697
  103OSM    H4F10459   0.710   4.014  10.063 -0.0030 -1.0603 -1.6579
  103OSM    H4G10460   0.577   4.105   9.990 -1.9189 -2.5124 -2.3576
  103OSM    C5F10461   0.520   3.903  10.029 -0.5803 -0.3680 -0.0804
  103OSM    H5F10462   0.411   3.922  10.032 -0.4921  0.0984  0.6204
  103OSM    H5G10463   0.546   3.823  10.101 -1.1892  1.5947  2.4812
  103OSM    C6F10464   0.578   3.848   9.894 -0.4007 -0.6361 -0.7145
  103OSM    H6F10465   0.521   3.757   9.866 -1.4559  0.0607 -0.8809
  103OSM    H6G10466   0.678   3.803   9.911 -0.4643 -0.5984 -0.2300
  103OSM    C7F10467   0.590   3.949   9.779 -0.2722 -0.2105  0.0942
  103OSM    H7F10468   0.664   4.022   9.818 -0.3109  0.0254 -0.2778
  103OSM    H7G10469   0.498   4.010   9.763  0.9449  1.7254  0.1785
  103OSM    C8F10470   0.633   3.895   9.644 -0.4970  0.3892  0.9392
  103OSM    H8F10471   0.566   3.817   9.603 -1.0619  0.9151  0.8465
  103OSM    H8G10472   0.732   3.846   9.662 -0.1470  0.6825 -0.0686
  103OSM    C9F10473   0.675   3.995   9.536 -0.4012 -0.3929  0.8724
  103OSM    H9F10474   0.743   4.070   9.580 -1.0175  1.0830 -0.5708
  103OSM   C10F10475   0.643   4.013   9.412  0.9048 -0.4909  0.1642
  103OSM   H10F10476   0.691   4.099   9.363  0.7154  1.5791  3.3264
  103OSM   C11F10477   0.549   3.922   9.327 -0.5652  0.1530 -0.9317
  103OSM   H11F10478   0.472   3.976   9.268 -1.4945  0.9891  0.9592
  103OSM   H11G10479   0.497   3.850   9.393 -1.3478  1.4938 -0.0496
  103OSM   C12F10480   0.629   3.849   9.227  0.2931 -0.5898  0.3751
  103OSM   H12F10481   0.559   3.782   9.173 -0.1135  1.6137 -2.0266
  103OSM   H12G10482   0.711   3.791   9.275  1.2148 -0.0305 -0.4966
  103OSM   C13F10483   0.690   3.934   9.113 -0.1479 -1.3288 -1.0175
  103OSM   H13F10484   0.768   4.006   9.145  0.1993 -1.4384 -1.5951
  103OSM   H13G10485   0.598   3.983   9.074 -0.7367 -1.0049  0.7212
  103OSM   C14F10486   0.745   3.848   9.002  0.2210 -0.0495  0.8932
  103OSM   H14F10487   0.665   3.775   8.975  1.1086 -1.0632  0.9272
  103OSM   H14G10488   0.830   3.786   9.037  0.3299 -1.3377 -1.4860
  103OSM   C15F10489   0.800   3.915   8.868 -0.1079  0.5717  0.7506
  103OSM   H15F10490   0.875   3.841   8.835 -2.4450 -1.4621 -0.3988
  103OSM   H15G10491   0.839   4.018   8.884 -0.2657  0.3757  2.5522
  103OSM   C16F10492   0.687   3.911   8.762  0.6165 -0.6095 -0.4805
  103OSM   H16F10493   0.618   3.998   8.774  0.8910 -0.5298  0.5544
  103OSM   H16G10494   0.619   3.825   8.784 -0.3807  0.0370 -0.9405
  103OSM   C17F10495   0.718   3.898   8.609 -1.0175 -0.2803 -0.1899
  103OSM   H17F10496   0.768   3.801   8.589 -3.4059 -1.8056  0.8720
  103OSM   H17G10497   0.798   3.972   8.587  1.0798 -2.4174 -0.2068
  103OSM   C18F10498   0.593   3.882   8.520 -1.1120 -0.0579  0.3707
  103OSM   H18F10499   0.616   3.832   8.424  0.6182  1.4930 -0.0943
  103OSM   H18G10500   0.528   3.970   8.503 -3.7474 -2.0768 -0.5433
  103OSM   H18H10501   0.521   3.813   8.569  0.7268 -2.6445 -0.3891
  104OSM      N10502   1.694   2.012  10.393 -0.1215 -0.1380 -0.6884
  104OSM    C1510503   1.827   1.942  10.375  0.4150  0.1960  0.4470
  104OSM   H15A10504   1.908   2.008  10.402  1.6503 -0.5750 -1.2304
  104OSM   H15B10505   1.847   1.899  10.278  3.1570  3.1584 -0.4490
  104OSM   H15C10506   1.833   1.864  10.450  4.4033 -0.3779 -0.2860
  104OSM    C1410507   1.689   2.132  10.306 -0.1527 -0.2132 -0.6873
  104OSM   H14A10508   1.768   2.199  10.336  1.2059 -1.6813 -0.8856
  104OSM   H14B10509   1.596   2.185  10.322 -0.3892 -1.3810  2.4199
  104OSM   H14C10510   1.710   2.117  10.201  0.2206 -3.0261 -0.2714
  104OSM    C1310511   1.588   1.918  10.350 -0.1261  0.5769  0.2561
  104OSM   H13A10512   1.589   1.889  10.246 -0.6526 -0.2876  0.4830
  104OSM   H13B10513   1.489   1.959  10.359 -0.4189  0.2468 -1.2062
  104OSM   H13C10514   1.595   1.823  10.401 -2.4577 -0.1194 -0.5938
  104OSM    C1210515   1.672   2.052  10.544 -0.3221  0.6440  0.0895
  104OSM   H12A10516   1.670   1.966  10.609  0.4588  0.4261 -0.1686
  104OSM   H12B10517   1.569   2.085  10.549 -0.8704 -0.9755  0.0078
  104OSM    C1110518   1.770   2.153  10.611  0.7724 -0.6905  0.2184
  104OSM   H11A10519   1.869   2.113  10.582  1.7643  0.0268  2.3891
  104OSM   H11B10520   1.757   2.152  10.721 -0.1544 -3.0587  0.1394
  104OSM      P10521   1.623   2.376  10.576  0.1290 -0.0981 -0.2405
  104OSM    O1310522   1.506   2.310  10.512  0.3262 -0.4260  0.0082
  104OSM    O1410523   1.612   2.406  10.725 -0.0966 -0.2377  0.3345
  104OSM    O1110524   1.652   2.519  10.514 -0.0359  0.4881 -0.1792
  104OSM    O1210525   1.753   2.287  10.545 -0.0407 -0.0300  0.2728
  104OSM    C1S10526   1.718   2.534  10.389 -1.3029 -0.1062 -0.5195
  104OSM    H1S10527   1.772   2.440  10.364  1.4269 -0.0188  3.9085
  104OSM    H1T10528   1.795   2.612  10.403 -2.2793  1.2382 -2.1655
  104OSM     NF10529   1.706   2.571  10.146  0.0501 -0.5406 -0.3205
  104OSM    HNF10530   1.768   2.647  10.130 -0.7201 -0.1572 -1.7387
  104OSM    C2S10531   1.628   2.581  10.265 -0.2436  0.1607  0.5379
  104OSM    H2S10532   1.546   2.506  10.255 -1.5766  1.4470  1.3460
  104OSM    C3S10533   1.557   2.711  10.288  0.4809 -0.1151 -0.0775
  104OSM    H3S10534   1.629   2.795  10.294 -0.8459  1.1359 -0.8768
  104OSM     O310535   1.490   2.718  10.412 -0.4302  0.1142 -0.6979
  104OSM    HO310536   1.544   2.659  10.466  1.4999  0.2572 -2.3806
  104OSM    C4S10537   1.466   2.733  10.167  0.1352 -0.5633 -0.3900
  104OSM    H4S10538   1.505   2.804  10.092  0.6364  1.1501  1.4069
  104OSM    C5S10539   1.344   2.679  10.148  1.4048 -0.0963 -0.2003
  104OSM    H5S10540   1.305   2.616  10.229 -1.5008 -1.0540 -2.1991
  104OSM    C6S10541   1.265   2.706  10.024  0.3575 -0.3547  0.0064
  104OSM    H6S10542   1.171   2.764  10.040  1.2281  1.7258 -1.9704
  104OSM    H6T10543   1.245   2.606   9.979  1.5590 -0.3983 -0.4519
  104OSM    C7S10544   1.340   2.771   9.903 -0.2577 -0.0966  0.9560
  104OSM    H7S10545   1.438   2.726   9.880 -1.0401 -1.5705  0.3438
  104OSM    H7T10546   1.365   2.877   9.924 -1.0955  0.8642 -2.3159
  104OSM    C8S10547   1.255   2.778   9.779 -0.1362 -0.7776  0.3215
  104OSM    H8S10548   1.170   2.842   9.813  0.4372  0.5886 -0.7301
  104OSM    H8T10549   1.206   2.686   9.741 -1.6155 -0.0647  0.4083
  104OSM    C9S10550   1.332   2.839   9.659  0.2611 -0.2194 -1.3278
  104OSM    H9S10551   1.399   2.925   9.680 -2.0845  1.3875  0.0339
  104OSM    H9T10552   1.259   2.883   9.587  1.0728  0.5867 -1.6804
  104OSM   C10S10553   1.407   2.730   9.578 -0.3381  0.7768  0.1469
  104OSM   H10S10554   1.325   2.656   9.573  0.8912 -0.5702 -0.5465
  104OSM   H10T10555   1.484   2.686   9.644 -0.2369  1.7511  0.7055
  104OSM   C11S10556   1.462   2.770   9.442  0.8456 -1.0815 -0.3425
  104OSM   H11S10557   1.533   2.854   9.459 -0.6428  0.5849 -1.8834
  104OSM   H11T10558   1.377   2.813   9.385 -0.1185 -1.2540  0.9140
  104OSM   C12S10559   1.518   2.653   9.366 -0.1667  0.6826  0.0656
  104OSM   H12S10560   1.441   2.587   9.321 -1.2363  1.0277  1.3198
  104OSM   H12T10561   1.575   2.598   9.444 -0.7566  0.2562  0.2011
  104OSM   C13S10562   1.608   2.705   9.246  0.1326 -0.1779 -0.7395
  104OSM   H13S10563   1.660   2.613   9.211  2.4620  0.5185  0.6997
  104OSM   H13T10564   1.698   2.756   9.285 -0.2976  0.3627 -0.4411
  104OSM   C14S10565   1.543   2.787   9.135  0.5140 -0.7061 -0.0853
  104OSM   H14S10566   1.496   2.878   9.177 -1.5266 -2.1611  0.9720
  104OSM   H14T10567   1.464   2.727   9.086  0.1057 -1.3632  1.3036
  104OSM   C15S10568   1.635   2.822   9.016 -0.1993  0.5640  0.1075
  104OSM   H15S10569   1.678   2.726   8.981 -1.2596 -1.0386  2.8728
  104OSM   H15T10570   1.717   2.883   9.059 -0.5324 -0.4106  2.2508
  104OSM   C16S10571   1.567   2.904   8.902 -0.8010  0.1580 -0.0311
  104OSM   H16S10572   1.557   3.010   8.932  0.7545  1.1488 -2.7389
  104OSM   H16T10573   1.468   2.857   8.885 -0.8948 -0.0056  0.8896
  104OSM   C17S10574   1.638   2.892   8.763  0.0620  0.6415 -0.2691
  104OSM   H17S10575   1.581   2.949   8.687 -0.6757 -0.1985 -0.3715
  104OSM   H17T10576   1.646   2.783   8.745  0.7713  0.2599  2.0043
  104OSM   C18S10577   1.783   2.937   8.763 -0.6021  0.2166 -0.2397
  104OSM   H18S10578   1.828   2.924   8.662  0.9047 -1.4533  0.5949
  104OSM   H18T10579   1.830   2.871   8.840  0.6016  1.1990 -0.1025
  104OSM   H18U10580   1.784   3.043   8.794 -3.5315  0.1331  0.3689
  104OSM    C1F10581   1.747   2.451  10.092  0.2330 -0.2373 -0.5985
  104OSM     OF10582   1.703   2.353  10.147  0.3484 -0.6686 -0.0915
  104OSM    C2F10583   1.840   2.444   9.976  0.1121  0.3269  0.5918
  104OSM    H2F10584   1.902   2.353   9.987  1.6050  1.2026 -0.1670
  104OSM    H2G10585   1.908   2.532   9.975  1.1155 -0.4298  0.7133
  104OSM    C3F10586   1.770   2.432   9.840 -0.3460 -1.0571 -0.2746
  104OSM    H3F10587   1.691   2.509   9.829  0.1971 -0.3228  0.7310
  104OSM    H3G10588   1.727   2.330   9.841 -0.9775 -0.8660 -2.4316
  104OSM    C4F10589   1.870   2.466   9.726 -0.3955  0.2263 -0.7262
  104OSM    H4F10590   1.949   2.388   9.732 -0.3760  0.3715  2.7635
  104OSM    H4G10591   1.906   2.570   9.741 -2.4062  1.1296 -1.7914
  104OSM    C5F10592   1.801   2.467   9.595 -0.5542  0.2143  0.3109
  104OSM    H5F10593   1.749   2.565   9.599 -0.4015  0.2471  2.5615
  104OSM    H5G10594   1.730   2.382   9.588 -0.9408  0.3498  2.1306
  104OSM    C6F10595   1.895   2.458   9.466  0.5937  0.3557 -0.4230
  104OSM    H6F10596   1.817   2.450   9.387  0.2702 -1.7010  0.0574
  104OSM    H6G10597   1.951   2.363   9.455 -0.4311 -0.2620 -0.3741
  104OSM    C7F10598   1.969   2.583   9.441 -0.3163  0.0331  0.3722
  104OSM    H7F10599   2.047   2.588   9.520 -0.2921  0.1279  0.3411
  104OSM    H7G10600   1.902   2.671   9.453  1.4538  1.6982 -1.1777
  104OSM    C8F10601   2.029   2.583   9.301  0.0729  0.1888  0.2710
  104OSM    H8F10602   2.094   2.493   9.292  0.9026  0.3566  3.4364
  104OSM    H8G10603   2.089   2.676   9.298 -1.5685  1.2632 -0.0221
  104OSM    C9F10604   1.929   2.596   9.187 -0.6046 -0.4444  0.3261
  104OSM    H9F10605   1.893   2.700   9.185 -1.4605 -0.7349 -0.0058
  104OSM   C10F10606   1.900   2.511   9.092 -0.3576  0.8114 -0.0530
  104OSM   H10F10607   1.830   2.542   9.013 -3.1143 -2.6127  0.8211
  104OSM   C11F10608   1.964   2.374   9.080  0.3411  0.1735 -0.0195
  104OSM   H11F10609   2.009   2.338   9.175  0.4852  0.5995  0.0743
  104OSM   H11G10610   2.040   2.362   9.000  0.0224 -0.8815 -0.1735
  104OSM   C12F10611   1.844   2.282   9.055  0.3701  0.0594  0.1973
  104OSM   H12F10612   1.760   2.309   9.123 -1.2015 -2.5758 -0.5577
  104OSM   H12G10613   1.855   2.174   9.082 -0.3313 -0.2155 -0.5878
  104OSM   C13F10614   1.803   2.280   8.908 -0.6259  0.3772  0.4834
  104OSM   H13F10615   1.792   2.379   8.858  0.0508 -1.1988 -3.1403
  104OSM   H13G10616   1.708   2.222   8.907 -0.9019  0.6637  3.3468
  104OSM   C14F10617   1.909   2.218   8.810  0.0196  0.5817 -0.7110
  104OSM   H14F10618   2.004   2.274   8.826 -1.1829  2.2097  1.2419
  104OSM   H14G10619   1.875   2.232   8.705  0.1293  0.3617 -0.7781
  104OSM   C15F10620   1.926   2.063   8.842  1.0045 -0.1019  0.6057
  104OSM   H15F10621   1.824   2.020   8.856  0.4169  1.0561  0.0454
  104OSM   H15G10622   1.984   2.047   8.935  0.8276 -0.0236  0.7299
  104OSM   C16F10623   1.993   1.986   8.723  0.3968 -0.4923  0.5983
  104OSM   H16F10624   2.020   1.884   8.757  0.5974 -0.8468 -0.5910
  104OSM   H16G10625   2.083   2.041   8.687 -0.3979 -0.8371 -2.0846
  104OSM   C17F10626   1.906   1.978   8.598 -0.2888 -0.6588 -0.5751
  104OSM   H17F10627   1.873   2.079   8.567 -2.1021 -0.8442  0.6115
  104OSM   H17G10628   1.804   1.936   8.616  0.0470 -1.5140 -0.6071
  104OSM   C18F10629   1.964   1.899   8.477  0.0639 -0.0282  0.0397
  104OSM   H18F10630   1.883   1.887   8.402  0.4434 -2.2645 -0.0658
  104OSM   H18G10631   1.998   1.796   8.500  3.8572  0.3795 -2.7166
  104OSM   H18H10632   2.048   1.958   8.433 -0.4576 -0.4072 -1.5343
  105OSM      N10633   3.634   6.252  10.962 -0.0624  0.0002  0.1045
  105OSM    C1510634   3.647   6.390  11.021 -0.5354 -0.5276  0.0131
  105OSM   H15A10635   3.727   6.444  10.973 -0.3526 -1.2753 -0.5360
  105OSM   H15B10636   3.653   6.376  11.128  2.6095 -1.9141 -0.2382
  105OSM   H15C10637   3.555   6.443  11.000 -1.4191 -2.0047 -0.0137
  105OSM    C1410638   3.639   6.262  10.808 -0.0635  0.1344  0.5804
  105OSM   H14A10639   3.601   6.168  10.769 -1.4298  0.7717  0.3065
  105OSM   H14B10640   3.742   6.274  10.781  0.0608 -0.0679  0.9528
  105OSM   H14C10641   3.577   6.339  10.766 -1.6753 -1.4658 -0.1239
  105OSM    C1310642   3.761   6.178  11.001 -0.4175 -0.1840  0.4253
  105OSM   H13A10643   3.843   6.243  10.973 -1.5908  1.5850  0.9362
  105OSM   H13B10644   3.768   6.080  10.956 -1.9379 -0.5700  0.9712
  105OSM   H13C10645   3.774   6.176  11.108 -1.5617  1.8622  0.6550
  105OSM    C1210646   3.505   6.192  11.008 -0.3054 -0.2595 -0.1352
  105OSM   H12A10647   3.416   6.251  10.993  0.3384  1.2134  1.5996
  105OSM   H12B10648   3.510   6.194  11.115  3.3430 -0.4366 -0.1663
  105OSM    C1110649   3.466   6.049  10.963  0.4208 -1.2223  0.4075
  105OSM   H11A10650   3.370   6.028  11.014 -0.3395 -1.3155 -1.0192
  105OSM   H11B10651   3.544   5.974  10.990  0.3336 -0.4556  3.0096
  105OSM      P10652   3.313   6.136  10.767  0.0489  0.0621 -0.1451
  105OSM    O1310653   3.197   6.054  10.737  0.5004  0.8146  0.0466
  105OSM    O1410654   3.282   6.251  10.860  0.4382  0.4493 -0.1981
  105OSM    O1110655   3.361   6.200  10.639  0.2328  0.5647  0.3215
  105OSM    O1210656   3.444   6.052  10.822 -0.6786 -0.1370  0.3999
  105OSM    C1S10657   3.448   6.127  10.547  0.6346 -0.4765  0.2138
  105OSM    H1S10658   3.401   6.041  10.495  1.0809 -0.1829 -0.6949
  105OSM    H1T10659   3.546   6.107  10.596  0.2249  1.3790  1.9081
  105OSM     NF10660   3.542   6.172  10.310 -0.0561 -0.4151  0.7631
  105OSM    HNF10661   3.641   6.182  10.298  0.2903 -1.6487  2.1713
  105OSM    C2S10662   3.480   6.228  10.428 -0.3552  0.0718  0.0861
  105OSM    H2S10663   3.379   6.260  10.394 -0.2916 -0.0400 -0.2076
  105OSM    C3S10664   3.557   6.358  10.483  0.5928  0.0377 -0.7800
  105OSM    H3S10665   3.656   6.333  10.528  0.4126  0.3609 -0.1942
  105OSM     O310666   3.486   6.421  10.588  0.0818  0.2864  0.5542
  105OSM    HO310667   3.425   6.352  10.615 -0.8926  1.4257  1.3488
  105OSM    C4S10668   3.575   6.447  10.363  0.5839 -0.4112  0.0326
  105OSM    H4S10669   3.673   6.435  10.316  1.5968  0.3720  1.8502
  105OSM    C5S10670   3.483   6.532  10.312 -0.2966 -0.6314  0.2212
  105OSM    H5S10671   3.385   6.544  10.362  0.5539  1.6652  1.4683
  105OSM    C6S10672   3.507   6.623  10.201 -0.0021 -0.4061  0.0291
  105OSM    H6S10673   3.587   6.597  10.128 -0.8230  3.0032 -2.3650
  105OSM    H6T10674   3.535   6.723  10.241 -0.9490  0.1816 -0.7381
  105OSM    C7S10675   3.366   6.643  10.139 -0.5890  0.1276  0.0364
  105OSM    H7S10676   3.308   6.702  10.213 -0.8430  2.1148 -1.6744
  105OSM    H7T10677   3.328   6.545  10.104  2.4182 -0.3877 -2.1852
  105OSM    C8S10678   3.361   6.738  10.017  0.2479  0.2847  0.5962
  105OSM    H8S10679   3.445   6.711   9.950 -0.9469  0.4650 -1.0385
  105OSM    H8T10680   3.377   6.842  10.052  0.7195  0.3377  0.2321
  105OSM    C9S10681   3.227   6.731   9.939 -0.0262  1.1011 -0.5354
  105OSM    H9S10682   3.134   6.750   9.997  1.5294  1.0111  2.1415
  105OSM    H9T10683   3.215   6.625   9.908  1.0235  1.1620 -1.2042
  105OSM   C10S10684   3.239   6.827   9.826  0.4356  0.3197  0.4781
  105OSM   H10S10685   3.334   6.807   9.772  0.4339 -1.5683  1.0911
  105OSM   H10T10686   3.252   6.928   9.870 -3.0001  0.6963  0.9184
  105OSM   C11S10687   3.112   6.843   9.734 -0.3071 -0.7636 -0.0349
  105OSM   H11S10688   3.030   6.887   9.795 -0.5715 -0.7795 -0.3724
  105OSM   H11T10689   3.083   6.739   9.706 -0.7470 -0.4760 -0.6830
  105OSM   C12S10690   3.132   6.943   9.606 -0.5110 -0.2274 -0.0561
  105OSM   H12S10691   3.174   7.039   9.643  2.7678 -1.9180  1.0200
  105OSM   H12T10692   3.034   6.967   9.560 -0.8007  2.0550  1.5682
  105OSM   C13S10693   3.232   6.894   9.502 -0.3487  0.3506  0.0824
  105OSM   H13S10694   3.198   6.797   9.460  0.1951  1.1910 -2.4511
  105OSM   H13T10695   3.332   6.860   9.537 -1.1108 -3.5077 -1.0307
  105OSM   C14S10696   3.247   6.987   9.391 -0.8676 -0.6400  0.4521
  105OSM   H14S10697   3.291   7.084   9.422  1.0567 -1.9360  2.0779
  105OSM   H14T10698   3.154   7.001   9.333 -0.4968  1.8414  0.3656
  105OSM   C15S10699   3.347   6.936   9.288 -0.2756  0.5009 -0.2325
  105OSM   H15S10700   3.308   6.847   9.234 -3.0153  0.2036  2.0005
  105OSM   H15T10701   3.441   6.902   9.337 -0.0748  0.3936 -0.6895
  105OSM   C16S10702   3.373   7.047   9.182  0.5719  0.1955  0.5443
  105OSM   H16S10703   3.276   7.098   9.168  0.4059 -0.2032  0.2431
  105OSM   H16T10704   3.410   6.999   9.089 -1.9027 -1.7073  0.4438
  105OSM   C17S10705   3.477   7.147   9.223 -0.7240 -1.3451 -0.3097
  105OSM   H17S10706   3.575   7.095   9.224 -0.0588 -0.1400 -0.0768
  105OSM   H17T10707   3.453   7.178   9.328  1.5334 -0.5955  0.0407
  105OSM   C18S10708   3.470   7.278   9.138  0.7336  0.0326 -0.1348
  105OSM   H18S10709   3.536   7.352   9.189  2.9675 -1.7535 -0.2970
  105OSM   H18T10710   3.375   7.334   9.138  0.5242 -0.3207 -0.6088
  105OSM   H18U10711   3.511   7.264   9.036  0.2708  2.4316 -0.7117
  105OSM    C1F10712   3.480   6.095  10.219  0.2367 -0.5266  0.5757
  105OSM     OF10713   3.358   6.087  10.217  0.2172 -0.0625 -0.5192
  105OSM    C2F10714   3.567   6.032  10.119 -0.3021  0.4634 -0.3036
  105OSM    H2F10715   3.568   5.921  10.122 -0.2943  0.4713 -0.0375
  105OSM    H2G10716   3.671   6.067  10.134  0.1280 -0.4268 -1.0540
  105OSM    C3F10717   3.522   6.087   9.985  0.3481  0.4140  0.8114
  105OSM    H3F10718   3.525   6.198   9.977 -0.9389  0.3212 -2.3037
  105OSM    H3G10719   3.419   6.057   9.956 -0.5441  2.7528  1.3260
  105OSM    C4F10720   3.619   6.039   9.876 -0.3927  0.1269 -0.6981
  105OSM    H4F10721   3.621   5.928   9.873 -1.5813  0.0041  1.2556
  105OSM    H4G10722   3.720   6.065   9.912 -0.4648 -0.0350 -0.3757
  105OSM    C5F10723   3.583   6.092   9.737 -0.0753 -0.5277 -0.9816
  105OSM    H5F10724   3.625   6.190   9.705  1.2694 -0.8373 -0.2325
  105OSM    H5G10725   3.474   6.114   9.729  0.1149  1.4236  0.8911
  105OSM    C6F10726   3.625   5.987   9.631 -0.1160  0.1958  0.1953
  105OSM    H6F10727   3.541   5.915   9.619  0.5588 -0.4732 -0.5822
  105OSM    H6G10728   3.718   5.941   9.670  0.3443  1.5732  0.7792
  105OSM    C7F10729   3.656   6.058   9.495  0.5397  0.0735  0.1522
  105OSM    H7F10730   3.731   6.139   9.502  1.1722 -0.4220 -0.6223
  105OSM    H7G10731   3.557   6.098   9.462  1.1974  0.8020 -1.0298
  105OSM    C8F10732   3.710   5.952   9.394  0.1265 -0.6133 -0.5061
  105OSM    H8F10733   3.692   5.994   9.293  0.7161  0.6743 -0.1041
  105OSM    H8G10734   3.653   5.858   9.402 -0.6989 -0.0047  1.5388
  105OSM    C9F10735   3.851   5.917   9.413  0.3307  0.4033 -0.1715
  105OSM    H9F10736   3.884   5.863   9.503 -0.6930 -0.6893 -0.4301
  105OSM   C10F10737   3.946   5.960   9.332  0.0258  0.2048  0.3217
  105OSM   H10F10738   4.050   5.929   9.350  0.1647  0.6173  0.2507
  105OSM   C11F10739   3.928   6.027   9.200  0.6077 -0.5674 -0.1276
  105OSM   H11F10740   3.840   6.095   9.207  1.1908  0.4197 -1.7636
  105OSM   H11G10741   3.915   5.954   9.117 -0.3543 -0.9975  0.3896
  105OSM   C12F10742   4.027   6.138   9.182  0.1659  0.3291  0.4811
  105OSM   H12F10743   4.127   6.090   9.170  0.3962  1.0049 -0.4148
  105OSM   H12G10744   4.045   6.207   9.267 -0.8961 -2.7053  3.4045
  105OSM   C13F10745   4.004   6.233   9.063  0.0763  0.4359  0.3380
  105OSM   H13F10746   4.063   6.324   9.086  1.4790  0.6419 -3.3847
  105OSM   H13G10747   3.897   6.255   9.043 -0.5179 -1.4002  1.2831
  105OSM   C14F10748   4.065   6.176   8.934  0.2470  0.4848 -0.7720
  105OSM   H14F10749   4.031   6.070   8.937  2.4257 -0.3086  3.7155
  105OSM   H14G10750   4.174   6.171   8.951 -0.0935 -0.2030  1.5868
  105OSM   C15F10751   4.010   6.242   8.805  0.0398  0.8515  0.5436
  105OSM   H15F10752   4.054   6.343   8.792  0.5791  0.2653 -3.5099
  105OSM   H15G10753   3.899   6.243   8.812 -0.1106 -2.2982  0.2305
  105OSM   C16F10754   4.044   6.158   8.676 -0.2121  0.3134 -0.5410
  105OSM   H16F10755   3.978   6.069   8.679  1.3553 -0.9783 -2.2723
  105OSM   H16G10756   4.150   6.129   8.692 -0.2575  0.1889 -0.4672
  105OSM   C17F10757   4.035   6.243   8.558  0.2983 -1.4288  0.4536
  105OSM   H17F10758   4.105   6.329   8.562 -1.3671 -0.0226  0.8432
  105OSM   H17G10759   3.934   6.290   8.555  1.1022  0.3532 -0.9693
  105OSM   C18F10760   4.077   6.171   8.430 -0.3650  0.1493  0.4185
  105OSM   H18F10761   4.081   6.232   8.337 -1.0376  0.6088  0.6784
  105OSM   H18G10762   4.013   6.084   8.406  0.8231 -0.1620 -1.9183
  105OSM   H18H10763   4.179   6.129   8.443 -1.0187 -1.1009  1.6601
  106OSM      N10764   2.284   6.788  10.422  0.5248 -0.0336 -0.0454
  106OSM    C1510765   2.384   6.885  10.468  0.7678  0.7401  0.1424
  106OSM   H15A10766   2.414   6.966  10.404  1.9269  1.6899  1.8001
  106OSM   H15B10767   2.472   6.836  10.508  0.8924  1.7610  1.1712
  106OSM   H15C10768   2.339   6.934  10.554  1.3503  0.0006  0.8817
  106OSM    C1410769   2.163   6.861  10.364  0.8033  0.0660  0.0241
  106OSM   H14A10770   2.104   6.905  10.443  1.8028  0.2779  0.6649
  106OSM   H14B10771   2.109   6.785  10.308  0.6019 -0.1769  0.5427
  106OSM   H14C10772   2.190   6.932  10.287 -1.2992  0.1488 -0.7250
  106OSM    C1310773   2.343   6.715  10.306  0.1287  0.0854 -0.1233
  106OSM   H13A10774   2.279   6.632  10.282  2.1024 -1.2903 -0.8343
  106OSM   H13B10775   2.444   6.683  10.328  0.7353  0.8342 -1.6381
  106OSM   H13C10776   2.364   6.775  10.218  0.6266 -1.5081 -1.1283
  106OSM    C1210777   2.250   6.692  10.529 -0.0372 -0.3078  0.2954
  106OSM   H12A10778   2.218   6.749  10.614  0.7341  1.9580 -0.8546
  106OSM   H12B10779   2.338   6.638  10.559  0.3261 -0.4221 -0.9299
  106OSM    C1110780   2.138   6.593  10.505 -0.7343 -0.3531 -1.0075
  106OSM   H11A10781   2.141   6.543  10.406  2.8046 -1.6415 -0.4122
  106OSM   H11B10782   2.041   6.645  10.516 -1.0159 -1.3661  2.4039
  106OSM      P10783   2.249   6.385  10.622  0.0828 -0.1446 -0.2411
  106OSM    O1310784   2.363   6.454  10.686  0.0155 -0.5970 -0.1753
  106OSM    O1410785   2.189   6.277  10.708  0.1204  0.0697 -0.1044
  106OSM    O1110786   2.275   6.329  10.477 -0.0083 -0.1118 -0.5247
  106OSM    O1210787   2.139   6.486  10.607 -0.0577 -0.4196 -0.5369
  106OSM    C1S10788   2.168   6.261  10.416 -0.4925  0.7729  0.1443
  106OSM    H1S10789   2.091   6.335  10.386 -0.3852  1.8486  2.3740
  106OSM    H1T10790   2.111   6.197  10.487  0.4809 -0.0549  0.2066
  106OSM     NF10791   2.094   6.129  10.221  0.1528 -0.0520 -0.2571
  106OSM    HNF10792   2.083   6.030  10.226  1.7018 -0.2409  0.0935
  106OSM    C2S10793   2.210   6.176  10.296 -0.1941 -0.5694  0.5737
  106OSM    H2S10794   2.271   6.250  10.240 -1.4020  0.5167  0.6272
  106OSM    C3S10795   2.308   6.060  10.335  0.9017 -0.2754  0.4758
  106OSM    H3S10796   2.239   5.980  10.368 -1.9246  1.7528 -0.1211
  106OSM     O310797   2.396   6.087  10.445  0.3244 -0.0994 -0.0854
  106OSM    HO310798   2.346   6.151  10.498 -0.5359 -0.6103 -0.2651
  106OSM    C4S10799   2.398   6.025  10.217  0.0783  0.1830  0.0870
  106OSM    H4S10800   2.361   5.940  10.156 -0.4787 -0.7748  1.7034
  106OSM    C5S10801   2.521   6.066  10.177 -0.5993  0.8404  0.6188
  106OSM    H5S10802   2.580   6.135  10.239 -1.2483  1.0517  1.0112
  106OSM    C6S10803   2.587   6.010  10.052 -0.0237  0.0544 -0.1077
  106OSM    H6S10804   2.542   5.911  10.030 -1.7351  0.6724  0.4652
  106OSM    H6T10805   2.697   5.998  10.068  0.5413  0.9967 -2.7129
  106OSM    C7S10806   2.541   6.093   9.932 -0.9032  0.1255  0.5035
  106OSM    H7S10807   2.549   6.202   9.954  2.2073  0.4331 -1.5061
  106OSM    H7T10808   2.438   6.061   9.907  0.7955 -2.9270 -4.0589
  106OSM    C8S10809   2.624   6.070   9.796  0.5205  0.3290 -0.2294
  106OSM    H8S10810   2.572   6.133   9.721 -2.1724 -2.9086 -1.3297
  106OSM    H8T10811   2.600   5.967   9.762  0.9848  0.1470 -0.0207
  106OSM    C9S10812   2.774   6.095   9.802  0.4673 -0.0132 -0.0766
  106OSM    H9S10813   2.824   6.045   9.888 -0.3190  1.0926  1.0631
  106OSM    H9T10814   2.787   6.205   9.807  0.5869  0.1992 -3.2172
  106OSM   C10S10815   2.837   6.046   9.675  0.2266  0.4993  0.3012
  106OSM   H10S10816   2.787   5.948   9.657 -0.2914  0.5964  1.1871
  106OSM   H10T10817   2.945   6.027   9.691  0.3586 -1.2280 -2.0784
  106OSM   C11S10818   2.831   6.135   9.545  0.3072 -0.6345 -0.2578
  106OSM   H11S10819   2.899   6.222   9.559 -0.3204 -0.2142  0.2231
  106OSM   H11T10820   2.731   6.182   9.535  0.6255 -0.1128 -1.0732
  106OSM   C12S10821   2.879   6.072   9.414  0.6944  0.1174 -0.1896
  106OSM   H12S10822   2.797   6.015   9.364  0.8290 -1.4095  1.2406
  106OSM   H12T10823   2.970   6.009   9.424  1.8274  1.3581 -1.9399
  106OSM   C13S10824   2.927   6.173   9.304 -0.0962  0.3729 -0.7841
  106OSM   H13S10825   3.026   6.209   9.340  0.7529  0.5665 -3.0808
  106OSM   H13T10826   2.853   6.255   9.297  0.8280  1.5250  1.6655
  106OSM   C14S10827   2.971   6.106   9.174  0.0900  0.3040 -0.5825
  106OSM   H14S10828   2.884   6.046   9.138 -0.3524 -2.2068  3.9083
  106OSM   H14T10829   3.049   6.028   9.191 -1.1743 -0.8510  0.1193
  106OSM   C15S10830   3.018   6.210   9.071 -0.1688  0.1755 -0.2234
  106OSM   H15S10831   3.112   6.255   9.109 -0.7683  2.2264 -1.0367
  106OSM   H15T10832   2.941   6.289   9.065  0.6118  1.0207  0.5572
  106OSM   C16S10833   3.033   6.154   8.926 -0.3706 -0.2971  0.1590
  106OSM   H16S10834   2.937   6.110   8.893  1.0424 -1.7412 -2.3518
  106OSM   H16T10835   3.099   6.065   8.937 -0.2704 -0.2645 -0.1766
  106OSM   C17S10836   3.099   6.235   8.821  0.2300  0.0675 -0.4408
  106OSM   H17S10837   3.195   6.281   8.852  0.8282 -0.3634 -1.5726
  106OSM   H17T10838   3.028   6.316   8.793  0.5830  1.0836  1.4795
  106OSM   C18S10839   3.130   6.163   8.684  0.1543  0.2450  0.3678
  106OSM   H18S10840   3.170   6.237   8.612  1.1119 -0.7223 -0.1271
  106OSM   H18T10841   3.031   6.132   8.645 -0.3050  0.0480  1.6275
  106OSM   H18U10842   3.198   6.075   8.689  0.7168  0.6442 -0.2160
  106OSM    C1F10843   2.011   6.211  10.160 -0.2751 -0.2765  0.2951
  106OSM     OF10844   2.026   6.331  10.152 -0.4532 -0.8338  0.1481
  106OSM    C2F10845   1.890   6.153  10.103 -0.1812  0.0372  0.8516
  106OSM    H2F10846   1.812   6.232  10.107 -0.5514 -0.3123  0.7054
  106OSM    H2G10847   1.851   6.075  10.172 -0.8366 -0.9842 -0.6083
  106OSM    C3F10848   1.918   6.108   9.955 -0.2642  0.1896 -0.4551
  106OSM    H3F10849   1.949   6.196   9.895  1.1425 -0.2429 -0.4017
  106OSM    H3G10850   1.818   6.068   9.928  0.0445  0.2643 -1.7883
  106OSM    C4F10851   2.028   6.004   9.940  0.2293 -0.3966 -0.4828
  106OSM    H4F10852   2.020   5.924  10.017  0.7164 -0.1819 -0.2033
  106OSM    H4G10853   2.129   6.051   9.933  0.3467 -0.7673 -1.5564
  106OSM    C5F10854   2.041   5.938   9.802  0.6474 -0.2455 -0.2017
  106OSM    H5F10855   2.143   5.895   9.807  0.0594 -1.8374 -1.1092
  106OSM    H5G10856   2.041   6.017   9.723  2.0577  0.3417  0.3602
  106OSM    C6F10857   1.933   5.827   9.779  0.0240 -0.2440 -0.0056
  106OSM    H6F10858   1.835   5.874   9.803  0.5911  0.5598  0.8195
  106OSM    H6G10859   1.945   5.749   9.858 -0.2333 -1.4535 -1.1245
  106OSM    C7F10860   1.925   5.777   9.631  0.5715 -0.2412 -0.1010
  106OSM    H7F10861   1.860   5.688   9.620 -1.3258  1.0882 -0.1386
  106OSM    H7G10862   2.021   5.728   9.605 -0.3631 -1.6117 -1.0179
  106OSM    C8F10863   1.874   5.879   9.533  0.0132 -0.3787 -0.2202
  106OSM    H8F10864   1.919   5.839   9.440 -2.5802 -3.9029 -0.1603
  106OSM    H8G10865   1.931   5.973   9.551 -0.2472  0.0122 -1.3663
  106OSM    C9F10866   1.731   5.900   9.532 -0.3627  0.9309  0.4101
  106OSM    H9F10867   1.706   5.973   9.611 -0.4551 -0.9723  2.2209
  106OSM   C10F10868   1.647   5.852   9.444  0.0526  0.5174  0.8017
  106OSM   H10F10869   1.543   5.886   9.442 -0.7428 -1.7554 -1.7891
  106OSM   C11F10870   1.681   5.756   9.337  0.3905 -0.5605  0.4522
  106OSM   H11F10871   1.646   5.655   9.368  1.5255 -1.4457 -1.0326
  106OSM   H11G10872   1.787   5.762   9.304 -0.2903 -1.4222 -2.0746
  106OSM   C12F10873   1.605   5.789   9.202  0.7681 -0.4488 -0.1062
  106OSM   H12F10874   1.641   5.891   9.176 -0.0880 -0.3518 -0.9407
  106OSM   H12G10875   1.498   5.798   9.228  1.0766  1.9395  0.5928
  106OSM   C13F10876   1.638   5.687   9.084  0.4962 -0.1783  0.0062
  106OSM   H13F10877   1.589   5.592   9.117  1.2329  0.0908  1.9812
  106OSM   H13G10878   1.744   5.660   9.071  0.6880  1.1012 -1.4486
  106OSM   C14F10879   1.577   5.712   8.943  0.2545  0.5073 -0.4765
  106OSM   H14F10880   1.472   5.747   8.961  1.3138  4.3883 -0.8625
  106OSM   H14G10881   1.580   5.624   8.876  2.6056  0.1514  0.0302
  106OSM   C15F10882   1.650   5.822   8.862 -0.1849 -0.0622  0.3661
  106OSM   H15F10883   1.757   5.793   8.854  0.2246  1.6689 -1.0478
  106OSM   H15G10884   1.644   5.916   8.922  1.5499  0.5976 -0.4314
  106OSM   C16F10885   1.594   5.856   8.719 -0.6586 -0.4029 -0.0123
  106OSM   H16F10886   1.492   5.899   8.732 -0.9193  0.2108 -3.1872
  106OSM   H16G10887   1.592   5.759   8.664 -2.2942  0.0695 -0.8705
  106OSM   C17F10888   1.687   5.955   8.647  0.4201  0.0496 -0.4802
  106OSM   H17F10889   1.650   5.962   8.543 -0.0861 -0.7961 -0.3624
  106OSM   H17G10890   1.785   5.905   8.635 -0.1552 -0.7591 -2.1494
  106OSM   C18F10891   1.700   6.094   8.709 -0.3664 -0.5896 -0.1972
  106OSM   H18F10892   1.613   6.161   8.689  0.1945  0.1780 -0.0724
  106OSM   H18G10893   1.797   6.131   8.671  0.1275 -0.6876  0.9382
  106OSM   H18H10894   1.717   6.096   8.818  2.7697 -0.3344 -0.6007
  107OSM      N10895   1.912   3.603  10.543 -0.2809  0.5862  0.2571
  107OSM    C1510896   2.024   3.679  10.608 -0.3699 -0.0340 -0.0622
  107OSM   H15A10897   2.123   3.649  10.575  0.6191 -0.0604  2.6470
  107OSM   H15B10898   2.019   3.672  10.716  0.8585 -3.1204 -0.0821
  107OSM   H15C10899   2.012   3.782  10.578 -1.2199 -0.2036 -0.3228
  107OSM    C1410900   1.914   3.611  10.388  0.0476  0.0852 -0.3262
  107OSM   H14A10901   1.835   3.545  10.355 -0.9002  0.7994  0.4363
  107OSM   H14B10902   2.007   3.583  10.342  0.6517  1.9402 -0.3256
  107OSM   H14C10903   1.898   3.708  10.343  0.7148  0.0045 -0.7473
  107OSM    C1310904   1.943   3.460  10.580  0.0032 -0.4001 -0.3237
  107OSM   H13A10905   2.042   3.440  10.541 -0.2020 -0.2309 -0.9464
  107OSM   H13B10906   1.884   3.385  10.529  1.7843 -1.4702 -0.9245
  107OSM   H13C10907   1.937   3.450  10.687  1.2489  0.7937 -0.1178
  107OSM    C1210908   1.781   3.655  10.594  0.6547  0.3294 -1.0677
  107OSM   H12A10909   1.764   3.761  10.601 -1.1028 -0.0452  1.9165
  107OSM   H12B10910   1.776   3.636  10.700 -0.7141  1.1583 -0.9577
  107OSM    C1110911   1.646   3.604  10.539 -0.2074 -0.1804  0.6975
  107OSM   H11A10912   1.647   3.626  10.430 -1.2741 -3.0301  0.0129
  107OSM   H11B10913   1.567   3.667  10.585  1.4495  3.1459 -0.6984
  107OSM      P10914   1.582   3.410  10.698 -0.2408  0.2562 -0.1357
  107OSM    O1310915   1.625   3.269  10.703 -0.1125 -0.3642  0.1529
  107OSM    O1410916   1.617   3.508  10.802 -0.4160  0.0895 -0.4614
  107OSM    O1110917   1.421   3.413  10.697  0.2993  0.4253  0.2671
  107OSM    O1210918   1.630   3.463  10.555  0.2940 -0.0604  0.0294
  107OSM    C1S10919   1.357   3.408  10.569 -0.5435  0.3295 -0.1124
  107OSM    H1S10920   1.425   3.390  10.483  0.8244  1.4845  0.6905
  107OSM    H1T10921   1.299   3.503  10.564 -2.9552 -0.9582  1.1393
  107OSM     NF10922   1.197   3.300  10.419 -0.3486 -0.3724 -0.6194
  107OSM    HNF10923   1.120   3.363  10.415 -0.8599 -0.6617  2.3909
  107OSM    C2S10924   1.247   3.295  10.555 -1.1239 -0.0779 -0.3785
  107OSM    H2S10925   1.302   3.203  10.581  1.0051  1.5766  1.4333
  107OSM    C3S10926   1.131   3.313  10.660 -0.0360  0.6887  0.6010
  107OSM    H3S10927   1.062   3.396  10.634 -0.6642  0.7689  2.3943
  107OSM     O310928   1.178   3.345  10.794 -0.0688 -0.5474  0.4585
  107OSM    HO310929   1.272   3.363  10.786 -0.0945 -0.1816  0.9039
  107OSM    C4S10930   1.059   3.189  10.666 -0.2446  0.4325 -0.2237
  107OSM    H4S10931   1.105   3.109  10.725  0.2098  0.2548 -0.8043
  107OSM    C5S10932   0.935   3.169  10.611 -0.5879  0.1130 -0.0791
  107OSM    H5S10933   0.878   3.257  10.576 -0.6155  0.1363  0.0240
  107OSM    C6S10934   0.850   3.048  10.625 -0.0789  0.7672 -0.0059
  107OSM    H6S10935   0.752   3.075  10.670  0.2596 -1.0089  1.9124
  107OSM    H6T10936   0.897   2.974  10.693 -2.6256 -0.7445  0.2408
  107OSM    C7S10937   0.833   2.980  10.487  0.0776  0.7834  0.3063
  107OSM    H7S10938   0.796   3.049  10.408  1.1775 -1.3659 -2.2272
  107OSM    H7T10939   0.754   2.902  10.497 -1.8853  2.8298  2.1013
  107OSM    C8S10940   0.965   2.918  10.429  0.2664  0.5681 -0.9613
  107OSM    H8S10941   1.011   2.857  10.510  1.5947  2.2450 -0.3923
  107OSM    H8T10942   1.038   2.997  10.402 -0.8168  0.7209 -3.8019
  107OSM    C9S10943   0.939   2.839  10.299 -0.0440 -0.7818 -0.0415
  107OSM    H9S10944   0.873   2.755  10.332 -2.0847  1.4243  1.8933
  107OSM    H9T10945   1.039   2.802  10.267  0.6794 -1.3749  2.5983
  107OSM   C10S10946   0.865   2.909  10.186  0.0996 -0.9389 -0.1961
  107OSM   H10S10947   0.761   2.927  10.221  1.1788 -1.1439  3.6123
  107OSM   H10T10948   0.873   2.837  10.103  0.9786  0.7814 -1.6857
  107OSM   C11S10949   0.942   3.042  10.142  0.3958 -0.7728 -0.2783
  107OSM   H11S10950   1.047   3.003  10.136  0.2180 -1.6289  1.3905
  107OSM   H11T10951   0.930   3.119  10.221  3.2164 -1.5969  1.1232
  107OSM   C12S10952   0.902   3.099  10.005  0.3338  0.1589 -1.0613
  107OSM   H12S10953   0.929   3.205   9.990 -1.9581  0.7267 -1.5439
  107OSM   H12T10954   0.791   3.093  10.006  0.3730 -0.8038 -1.0058
  107OSM   C13S10955   0.947   3.014   9.886 -0.4702  0.4117 -0.0953
  107OSM   H13S10956   0.910   2.911   9.901  1.5194 -0.0774  2.0963
  107OSM   H13T10957   1.058   3.018   9.884 -0.3008  0.1016  3.0200
  107OSM   C14S10958   0.885   3.076   9.760  0.6579 -0.4401 -0.3887
  107OSM   H14S10959   0.931   3.175   9.740 -0.2720  0.1058  0.0601
  107OSM   H14T10960   0.774   3.085   9.769  0.7157 -0.3945  0.3223
  107OSM   C15S10961   0.903   2.999   9.626 -0.8050  0.4544 -0.2862
  107OSM   H15S10962   0.873   2.893   9.641  2.3867 -0.5719 -0.4701
  107OSM   H15T10963   1.014   2.999   9.618 -0.8432  0.4086 -0.8640
  107OSM   C16S10964   0.821   3.079   9.532 -0.6141  0.4577 -0.0915
  107OSM   H16S10965   0.876   3.175   9.527 -1.5111  0.9792  0.0175
  107OSM   H16T10966   0.716   3.092   9.564 -0.7524 -1.0702  0.1928
  107OSM   C17S10967   0.818   3.013   9.386  0.1666 -0.0021  0.3613
  107OSM   H17S10968   0.728   2.948   9.388  1.2418 -1.7903 -2.3834
  107OSM   H17T10969   0.906   2.945   9.383  0.4258  0.3586 -0.4305
  107OSM   C18S10970   0.811   3.107   9.265  0.4842 -0.4682  0.7754
  107OSM   H18S10971   0.707   3.141   9.249  0.6213 -0.6685 -0.6126
  107OSM   H18T10972   0.842   3.047   9.177 -1.7482  1.3280 -1.3789
  107OSM   H18U10973   0.881   3.193   9.260 -0.7010  0.4512 -1.8775
  107OSM    C1F10974   1.273   3.260  10.311 -0.0161 -0.5567 -0.8147
  107OSM     OF10975   1.362   3.180  10.332  0.6061  0.3078 -0.1228
  107OSM    C2F10976   1.251   3.310  10.170 -0.0545  0.2349 -0.0961
  107OSM    H2F10977   1.305   3.406  10.164  1.8790 -0.7694  0.4095
  107OSM    H2G10978   1.143   3.328  10.153 -0.3598 -0.3969  1.0160
  107OSM    C3F10979   1.311   3.224  10.059  0.6388  1.0433  0.2688
  107OSM    H3F10980   1.270   3.120  10.059 -0.9256  1.6350  1.2084
  107OSM    H3G10981   1.421   3.217  10.066  0.4370 -1.2114  2.6573
  107OSM    C4F10982   1.275   3.279   9.916  0.9585  0.5525  0.2739
  107OSM    H4F10983   1.287   3.390   9.916 -0.8369  0.7696 -0.2290
  107OSM    H4G10984   1.166   3.269   9.901  1.1475 -0.0392 -0.8480
  107OSM    C5F10985   1.359   3.211   9.803 -0.3121  0.0503 -0.3457
  107OSM    H5F10986   1.337   3.102   9.796 -3.4061  0.6682 -2.5779
  107OSM    H5G10987   1.468   3.213   9.823 -0.3894 -1.1701  0.2878
  107OSM    C6F10988   1.332   3.276   9.664 -0.3506  0.1287 -0.1102
  107OSM    H6F10989   1.434   3.288   9.623 -0.0545 -3.3177 -0.6467
  107OSM    H6G10990   1.297   3.379   9.685  1.1137  0.5501  0.3876
  107OSM    C7F10991   1.227   3.202   9.580  0.2884 -0.4605  0.1433
  107OSM    H7F10992   1.138   3.168   9.638 -2.2559  2.1922 -1.9133
  107OSM    H7G10993   1.273   3.109   9.541  0.3634 -0.2292 -0.3243
  107OSM    C8F10994   1.181   3.280   9.457  0.1290 -0.2728 -0.1405
  107OSM    H8F10995   1.123   3.367   9.495  0.8414  1.0298 -1.9277
  107OSM    H8G10996   1.102   3.221   9.405 -1.1833  1.3856 -0.1291
  107OSM    C9F10997   1.300   3.326   9.373  0.5793 -0.3131 -0.0316
  107OSM    H9F10998   1.369   3.397   9.422  2.4337 -2.5172  0.7447
  107OSM   C10F10999   1.329   3.286   9.251  0.1485 -0.8395 -0.1793
  107OSM   H10F11000   1.422   3.329   9.211 -0.7496  0.8080 -0.6407
  107OSM   C11F11001   1.252   3.184   9.167 -0.1310  0.5272 -0.3711
  107OSM   H11F11002   1.161   3.146   9.219  1.0634 -0.2864  1.2456
  107OSM   H11G11003   1.314   3.094   9.145 -0.6240 -0.2868  1.3970
  107OSM   C12F11004   1.235   3.255   9.035 -0.4772 -0.3289 -0.7747
  107OSM   H12F11005   1.178   3.348   9.057  0.0417 -0.3011  0.5153
  107OSM   H12G11006   1.166   3.202   8.965 -1.1541  0.5731 -0.8178
  107OSM   C13F11007   1.359   3.279   8.955 -0.0364 -0.2883  0.1033
  107OSM   H13F11008   1.418   3.186   8.937  0.5678  0.6454 -3.4364
  107OSM   H13G11009   1.424   3.356   9.001 -0.1892  1.6766 -2.7541
  107OSM   C14F11010   1.336   3.320   8.807  0.4011  0.4513  0.5858
  107OSM   H14F11011   1.412   3.396   8.780 -0.0724 -0.4416 -4.0461
  107OSM   H14G11012   1.238   3.369   8.789  0.8134  0.5817 -1.5143
  107OSM   C15F11013   1.357   3.197   8.710  0.5339  0.4080  0.0054
  107OSM   H15F11014   1.297   3.112   8.750  0.3185  0.1262 -0.8974
  107OSM   H15G11015   1.466   3.179   8.707  0.5779  0.4836  0.9144
  107OSM   C16F11016   1.321   3.219   8.566  0.4195 -0.6396  0.1580
  107OSM   H16F11017   1.370   3.311   8.527 -0.3276 -0.7103 -0.9823
  107OSM   H16G11018   1.214   3.249   8.563  0.4875 -0.1954  1.4579
  107OSM   C17F11019   1.333   3.106   8.472  0.1321 -0.1329  0.8021
  107OSM   H17F11020   1.253   3.121   8.396 -0.6612 -1.0903  1.4177
  107OSM   H17G11021   1.301   3.015   8.528  4.0454 -0.6802  2.4729
  107OSM   C18F11022   1.470   3.098   8.401  0.7627  0.4413  0.0135
  107OSM   H18F11023   1.491   3.188   8.338  0.4510 -0.6781 -1.7576
  107OSM   H18G11024   1.479   3.014   8.328  2.1337  1.8546 -1.5375
  107OSM   H18H11025   1.554   3.094   8.474  1.2355  0.8803 -0.4911
  108OSM      N11026   3.126   4.748  10.686  0.0517  0.2415 -0.3795
  108OSM    C1511027   3.124   4.604  10.698 -0.0554  0.3413  0.3880
  108OSM   H15A11028   3.227   4.569  10.704 -0.1281  0.0232 -0.1572
  108OSM   H15B11029   3.085   4.559  10.608  1.6618  2.1960 -1.3883
  108OSM   H15C11030   3.075   4.562  10.785  0.6517 -2.0433 -0.2824
  108OSM    C1411031   3.177   4.812  10.808  0.3534 -0.1530 -0.3804
  108OSM   H14A11032   3.197   4.917  10.794  1.4459  0.1057  2.5490
  108OSM   H14B11033   3.271   4.765  10.832  0.2274  0.0467  0.5233
  108OSM   H14C11034   3.108   4.801  10.891  0.4228 -0.5776 -0.3756
  108OSM    C1311035   3.215   4.771  10.566  0.2062  0.4707 -0.1386
  108OSM   H13A11036   3.238   4.877  10.569  1.8700  0.1316  0.0366
  108OSM   H13B11037   3.166   4.728  10.480 -2.8187  1.3969  0.9800
  108OSM   H13C11038   3.308   4.718  10.577 -0.1559 -0.2460 -0.4820
  108OSM    C1211039   2.992   4.803  10.652  0.5877 -0.1577  0.0176
  108OSM   H12A11040   2.997   4.910  10.662  1.0244 -0.1845  0.1053
  108OSM   H12B11041   2.923   4.777  10.731  0.0577 -1.2037 -0.7536
  108OSM    C1111042   2.923   4.768  10.509 -0.7715 -0.8891 -0.0431
  108OSM   H11A11043   2.984   4.821  10.433 -0.5090 -0.1378  0.6804
  108OSM   H11B11044   2.821   4.811  10.502 -0.2044  0.7261  1.0775
  108OSM      P11045   2.817   4.533  10.542 -0.1113  0.2773 -0.8478
  108OSM    O1311046   2.814   4.540  10.687  0.3674 -0.5293 -0.5408
  108OSM    O1411047   2.694   4.569  10.472 -0.2243  0.0501 -0.6959
  108OSM    O1111048   2.867   4.393  10.491  0.1738  0.0086 -0.1935
  108OSM    O1211049   2.929   4.628  10.485 -0.4170  0.0732  0.7176
  108OSM    C1S11050   2.858   4.354  10.353 -0.1588 -0.2852  0.9442
  108OSM    H1S11051   2.888   4.432  10.280 -4.1283 -1.1180 -1.8881
  108OSM    H1T11052   2.754   4.330  10.322  0.2586 -3.2042  1.4871
  108OSM     NF11053   2.981   4.195  10.200 -0.6141 -0.4916 -0.5867
  108OSM    HNF11054   2.944   4.115  10.154 -0.0727 -1.1285  0.0586
  108OSM    C2S11055   2.937   4.222  10.337 -0.6522 -0.0802 -0.6941
  108OSM    H2S11056   3.031   4.241  10.392 -1.0335 -1.5779  0.5572
  108OSM    C3S11057   2.866   4.097  10.398 -0.1237  0.7510  0.0025
  108OSM    H3S11058   2.758   4.085  10.374 -0.0208 -1.5053  0.4912
  108OSM     O311059   2.875   4.107  10.535 -0.7336  0.5014 -0.5715
  108OSM    HO311060   2.889   4.201  10.545 -1.7007  0.7107 -1.0275
  108OSM    C4S11061   2.930   3.968  10.356  0.1616  0.1321 -0.0510
  108OSM    H4S11062   3.019   3.932  10.409  0.9300  1.3151 -0.4914
  108OSM    C5S11063   2.902   3.898  10.241  0.1410  0.0584 -0.9513
  108OSM    H5S11064   2.832   3.925  10.161 -0.5561  0.0493 -0.3585
  108OSM    C6S11065   2.971   3.768  10.210 -0.1706 -0.1050  0.4485
  108OSM    H6S11066   2.902   3.685  10.183 -0.0571  0.0191 -0.2600
  108OSM    H6T11067   3.032   3.730  10.294 -0.1098 -2.0607 -0.4321
  108OSM    C7S11068   3.071   3.777  10.084 -0.6088 -0.0144 -0.2618
  108OSM    H7S11069   3.099   3.672  10.059 -0.8242 -0.1175 -0.0666
  108OSM    H7T11070   3.160   3.834  10.119 -0.9917 -0.1964  1.0795
  108OSM    C8S11071   3.009   3.824   9.954 -0.2379 -0.1529 -0.3743
  108OSM    H8S11072   2.968   3.926   9.970  2.1332  0.5923  1.6663
  108OSM    H8T11073   2.927   3.752   9.931 -0.4316 -0.1907  0.3923
  108OSM    C9S11074   3.113   3.833   9.842 -0.3610  0.3422 -0.1944
  108OSM    H9S11075   3.164   3.734   9.836 -0.4847  0.2837 -0.2781
  108OSM    H9T11076   3.188   3.912   9.865  0.1073 -0.6108  1.7572
  108OSM   C10S11077   3.044   3.864   9.717 -0.0885  0.5307  0.1049
  108OSM   H10S11078   2.978   3.954   9.721 -0.2161  0.3935  1.5964
  108OSM   H10T11079   2.969   3.785   9.692 -2.0493  1.5709  2.2936
  108OSM   C11S11080   3.139   3.875   9.599 -0.5289 -0.3425  0.6055
  108OSM   H11S11081   3.202   3.788   9.569  1.2984  0.5650  1.6590
  108OSM   H11T11082   3.211   3.959   9.607 -0.1252 -0.7442  1.3149
  108OSM   C12S11083   3.057   3.892   9.474 -0.0031 -0.5404  0.0017
  108OSM   H12S11084   2.982   3.974   9.467  1.2073  0.4580 -3.0381
  108OSM   H12T11085   3.010   3.794   9.453 -0.4525 -0.8920  2.3838
  108OSM   C13S11086   3.139   3.897   9.347  0.4514 -0.7653 -0.0283
  108OSM   H13S11087   3.235   3.843   9.359  0.7029 -0.2016  0.5664
  108OSM   H13T11088   3.170   4.004   9.342 -0.4758 -0.4469  0.5915
  108OSM   C14S11089   3.073   3.844   9.217 -0.2566 -0.7727 -0.0313
  108OSM   H14S11090   2.964   3.864   9.216 -0.4900 -1.7739  1.6588
  108OSM   H14T11091   3.076   3.734   9.206  1.1735 -0.5687 -2.2558
  108OSM   C15S11092   3.135   3.920   9.099 -0.1556 -0.7684  0.9345
  108OSM   H15S11093   3.245   3.914   9.087  0.0633  2.2168  0.6676
  108OSM   H15T11094   3.123   4.029   9.116  1.2850 -0.6806  1.4778
  108OSM   C16S11095   3.065   3.889   8.965 -0.3078  0.7128 -0.7660
  108OSM   H16S11096   2.954   3.900   8.974 -0.3552 -1.0572  1.4030
  108OSM   H16T11097   3.085   3.781   8.951  0.4970  0.8296 -0.5500
  108OSM   C17S11098   3.119   3.978   8.847  0.2223  0.1931 -0.4373
  108OSM   H17S11099   3.131   4.085   8.877 -0.0709 -0.7777  3.7205
  108OSM   H17T11100   3.048   3.956   8.765 -0.3822 -0.5187  0.2670
  108OSM   C18S11101   3.268   3.932   8.806 -0.1224 -0.7940  0.9493
  108OSM   H18S11102   3.264   3.826   8.773 -2.4437 -0.7901  1.0792
  108OSM   H18T11103   3.339   3.940   8.891  1.4096 -0.3926 -0.2966
  108OSM   H18U11104   3.315   3.991   8.723 -0.1384 -0.3030  1.2841
  108OSM    C1F11105   3.079   4.250  10.130  0.3730 -0.0537 -0.2870
  108OSM     OF11106   3.161   4.320  10.190  0.8854  0.6717  0.7862
  108OSM    C2F11107   3.095   4.209   9.987 -0.5568  0.2494  0.4502
  108OSM    H2F11108   3.015   4.248   9.921 -0.1780 -1.8592 -1.4109
  108OSM    H2G11109   3.101   4.098   9.979 -1.9291  0.2047 -0.2996
  108OSM    C3F11110   3.231   4.252   9.933  0.2967  0.6881  0.1665
  108OSM    H3F11111   3.310   4.208   9.999  1.2109  0.3257 -1.1350
  108OSM    H3G11112   3.237   4.363   9.937 -1.5544  0.8198  0.0294
  108OSM    C4F11113   3.232   4.215   9.781  0.2874 -0.0609 -0.3846
  108OSM    H4F11114   3.150   4.269   9.728 -0.1515 -0.2895  0.0533
  108OSM    H4G11115   3.202   4.108   9.780 -0.2075 -0.0483  2.8039
  108OSM    C5F11116   3.361   4.240   9.714 -0.1287  1.0680  0.7111
  108OSM    H5F11117   3.423   4.149   9.734 -1.8857 -0.4944 -0.5351
  108OSM    H5G11118   3.412   4.331   9.750 -1.4974  1.3919  1.9620
  108OSM    C6F11119   3.352   4.235   9.556 -0.2015  0.3809 -0.7463
  108OSM    H6F11120   3.271   4.161   9.536  0.7717 -0.9944  0.2172
  108OSM    H6G11121   3.441   4.181   9.517 -2.3488 -3.2657 -1.1161
  108OSM    C7F11122   3.335   4.361   9.481  0.2659  0.0096 -0.1791
  108OSM    H7F11123   3.424   4.425   9.500  1.1934  0.0552 -3.7700
  108OSM    H7G11124   3.242   4.398   9.528 -0.0976 -1.4123  0.2584
  108OSM    C8F11125   3.324   4.339   9.335  0.4403 -0.4958  0.4302
  108OSM    H8F11126   3.299   4.440   9.295  2.9053 -0.0360 -0.1209
  108OSM    H8G11127   3.228   4.285   9.321  0.6668 -1.1443  1.3208
  108OSM    C9F11128   3.430   4.277   9.252 -0.5566 -0.1456  0.7926
  108OSM    H9F11129   3.500   4.203   9.294 -0.1936 -0.8041 -0.8887
  108OSM   C10F11130   3.468   4.323   9.129  0.2907 -1.2461  0.0370
  108OSM   H10F11131   3.544   4.272   9.070  0.8942 -1.1260  0.6981
  108OSM   C11F11132   3.404   4.436   9.052  0.0461  0.3153 -0.9577
  108OSM   H11F11133   3.479   4.493   8.993  0.5635  0.0908 -0.5299
  108OSM   H11G11134   3.366   4.516   9.121  1.5817  0.3039 -0.0467
  108OSM   C12F11135   3.301   4.383   8.963  0.4273 -0.3336 -0.0880
  108OSM   H12F11136   3.227   4.463   8.938  0.8596 -0.0947 -0.6477
  108OSM   H12G11137   3.242   4.304   9.014 -2.4801  0.2091 -2.2702
  108OSM   C13F11138   3.345   4.321   8.828  0.2967  0.5441 -1.0992
  108OSM   H13F11139   3.250   4.313   8.771  0.3905 -0.7995 -1.1180
  108OSM   H13G11140   3.384   4.217   8.835 -1.4121 -0.1199 -0.9969
  108OSM   C14F11141   3.425   4.416   8.749 -0.1447  0.1790 -0.4020
  108OSM   H14F11142   3.522   4.431   8.802 -0.6748  2.0377  0.0839
  108OSM   H14G11143   3.376   4.515   8.756 -0.8401 -0.1750 -0.2722
  108OSM   C15F11144   3.456   4.383   8.606  0.2293  0.3154  0.0867
  108OSM   H15F11145   3.361   4.346   8.561 -0.5702  1.7713  0.5106
  108OSM   H15G11146   3.529   4.300   8.605  0.4383  0.5078 -0.8416
  108OSM   C16F11147   3.528   4.503   8.535  0.5908 -0.1497  0.0315
  108OSM   H16F11148   3.625   4.521   8.587 -0.3098 -0.0223  1.7203
  108OSM   H16G11149   3.468   4.595   8.549  0.2047  0.0841 -2.5707
  108OSM   C17F11150   3.545   4.470   8.387 -0.6245  0.0321 -0.4630
  108OSM   H17F11151   3.443   4.450   8.348  0.2653 -1.5033 -2.1401
  108OSM   H17G11152   3.603   4.376   8.384 -1.2942 -0.3489 -1.8710
  108OSM   C18F11153   3.619   4.582   8.308 -0.4147  0.4989  0.0330
  108OSM   H18F11154   3.561   4.676   8.296  0.1926  1.0873  1.4357
  108OSM   H18G11155   3.656   4.547   8.209  1.0156  0.9722  0.3698
  108OSM   H18H11156   3.706   4.615   8.370 -0.1836  1.9063 -0.9786
  109OSM      N11157   2.181   2.444  10.831 -0.3657 -0.3888 -0.3456
  109OSM    C1511158   2.220   2.588  10.851 -0.2851 -0.3200 -0.4420
  109OSM   H15A11159   2.141   2.648  10.893 -1.2078 -0.0633 -2.4142
  109OSM   H15B11160   2.256   2.627  10.757  0.5997  1.0410  0.4270
  109OSM   H15C11161   2.306   2.577  10.915 -0.4340 -2.2696 -0.5086
  109OSM    C1411162   2.162   2.378  10.959  0.3445  0.0704 -0.0688
  109OSM   H14A11163   2.123   2.277  10.958 -3.9882  1.4169  2.9896
  109OSM   H14B11164   2.080   2.433  11.005  1.2069  2.1376 -0.8960
  109OSM   H14C11165   2.257   2.364  11.008  0.8369  0.7732 -0.7972
  109OSM    C1311166   2.059   2.443  10.747 -0.2720 -0.0831 -0.5115
  109OSM   H13A11167   1.984   2.485  10.813 -0.7114 -1.5091 -0.0809
  109OSM   H13B11168   2.033   2.341  10.723 -1.3019  0.1529 -0.4359
  109OSM   H13C11169   2.057   2.494  10.651 -0.4555 -0.0853 -0.5099
  109OSM    C1211170   2.295   2.378  10.757  0.1299  0.2631  0.5935
  109OSM   H12A11171   2.273   2.274  10.736  1.7778 -0.0045 -0.0288
  109OSM   H12B11172   2.379   2.386  10.825  0.1801 -0.1632  0.5862
  109OSM    C1111173   2.339   2.445  10.622  0.1898 -0.0130 -0.6210
  109OSM   H11A11174   2.244   2.462  10.568 -1.8282 -1.0079  2.3437
  109OSM   H11B11175   2.408   2.380  10.563 -0.7177 -0.3084 -1.3709
  109OSM      P11176   2.560   2.570  10.690 -0.3040  0.3854 -0.3384
  109OSM    O1311177   2.584   2.709  10.723 -0.2581 -0.3290 -0.0658
  109OSM    O1411178   2.580   2.462  10.793 -0.3806 -0.2870 -0.3581
  109OSM    O1111179   2.652   2.523  10.570  0.3766 -0.5130 -0.2773
  109OSM    O1211180   2.409   2.566  10.641  0.3485 -0.0885 -0.3782
  109OSM    C1S11181   2.638   2.595  10.442 -0.2312  0.1953 -0.3266
  109OSM    H1S11182   2.692   2.692  10.446  1.3616 -0.4826 -2.7666
  109OSM    H1T11183   2.534   2.611  10.405 -0.7316 -1.5707  0.2386
  109OSM     NF11184   2.713   2.591  10.202  0.2511  0.3843  0.0961
  109OSM    HNF11185   2.663   2.546  10.128  0.0084  0.7196  0.0571
  109OSM    C2S11186   2.711   2.516  10.326  0.5071  0.0519  0.7678
  109OSM    H2S11187   2.814   2.506  10.365  0.3886  0.4537  1.1807
  109OSM    C3S11188   2.661   2.374  10.315 -0.0456 -0.0367  0.4707
  109OSM    H3S11189   2.553   2.373  10.290  0.0832  0.2433 -0.0991
  109OSM     O311190   2.646   2.308  10.441  0.0965  0.0504 -0.4066
  109OSM    HO311191   2.635   2.373  10.511 -2.0901 -1.5634  0.8611
  109OSM    C4S11192   2.730   2.293  10.210  0.0344  0.2873 -0.1819
  109OSM    H4S11193   2.663   2.273  10.125 -1.0746 -0.0115  0.7352
  109OSM    C5S11194   2.854   2.231  10.198  0.2615 -0.7197 -0.5106
  109OSM    H5S11195   2.921   2.226  10.285  0.1893 -1.9372 -0.5013
  109OSM    C6S11196   2.915   2.159  10.084  0.1904 -0.0609 -0.3209
  109OSM    H6S11197   2.903   2.050  10.104  2.0018 -0.0352  1.1654
  109OSM    H6T11198   3.019   2.197  10.084 -0.3030  1.3635 -1.3198
  109OSM    C7S11199   2.853   2.198   9.944 -0.2868  1.3545  0.3011
  109OSM    H7S11200   2.834   2.307   9.939  0.7015  1.5891  1.2165
  109OSM    H7T11201   2.760   2.139   9.932  0.5778 -0.2218  0.9916
  109OSM    C8S11202   2.944   2.160   9.828 -0.4995 -0.0345  0.6695
  109OSM    H8S11203   2.974   2.054   9.836 -0.9376 -0.4593 -2.0932
  109OSM    H8T11204   3.030   2.230   9.835  1.4600 -2.3595  0.8570
  109OSM    C9S11205   2.875   2.185   9.691  0.2728 -0.7788  0.1980
  109OSM    H9S11206   2.844   2.291   9.683 -0.4987 -1.0665 -0.8034
  109OSM    H9T11207   2.783   2.123   9.694  0.7697 -1.4936  1.5391
  109OSM   C10S11208   2.957   2.148   9.561 -0.2353 -0.4437 -0.2362
  109OSM   H10S11209   2.978   2.040   9.579 -0.1028 -0.2875  0.6323
  109OSM   H10T11210   3.054   2.201   9.548 -1.0535  1.0599 -0.3154
  109OSM   C11S11211   2.880   2.167   9.429  0.1859  0.2556 -0.8257
  109OSM   H11S11212   2.830   2.265   9.412 -0.8229  0.3488  2.0989
  109OSM   H11T11213   2.794   2.096   9.424  0.7307 -0.3842 -1.5011
  109OSM   C12S11214   2.961   2.128   9.302  0.0261  0.6799 -0.1716
  109OSM   H12S11215   2.968   2.018   9.311  0.9427  0.7820  0.5138
  109OSM   H12T11216   3.060   2.180   9.303 -0.2994  1.3316  1.3716
  109OSM   C13S11217   2.886   2.158   9.168 -0.5311  0.7297  0.1523
  109OSM   H13S11218   2.867   2.267   9.153 -1.5868  0.3245 -1.6693
  109OSM   H13T11219   2.791   2.100   9.164  1.2197 -2.2749 -1.1096
  109OSM   C14S11220   2.959   2.110   9.044 -0.0317 -0.7136 -0.4577
  109OSM   H14S11221   2.977   2.001   9.042  3.4914 -0.2402 -1.5072
  109OSM   H14T11222   3.064   2.148   9.047  0.2127 -1.2785 -1.4429
  109OSM   C15S11223   2.889   2.137   8.917  0.6131  0.1561  0.4581
  109OSM   H15S11224   2.793   2.080   8.916 -0.4075  1.7770 -2.2352
  109OSM   H15T11225   2.942   2.113   8.823  3.0954 -0.5315  1.9405
  109OSM   C16S11226   2.846   2.284   8.885  0.0976  0.1447  0.8097
  109OSM   H16S11227   2.754   2.316   8.939  0.4947  0.6882  1.1614
  109OSM   H16T11228   2.803   2.279   8.782 -1.7166 -1.3611  1.5625
  109OSM   C17S11229   2.958   2.386   8.884  0.2876 -0.2053 -0.1252
  109OSM   H17S11230   3.054   2.334   8.863 -0.2028 -0.9635 -0.5319
  109OSM   H17T11231   2.963   2.429   8.987 -0.8358  1.9911 -0.9328
  109OSM   C18S11232   2.940   2.487   8.772  0.0325 -0.1428  0.1369
  109OSM   H18S11233   3.008   2.574   8.791 -0.6767  0.5924 -0.6036
  109OSM   H18T11234   2.838   2.531   8.766  0.1757  0.3757  1.1268
  109OSM   H18U11235   2.952   2.445   8.670  0.7149 -1.7991  0.8654
  109OSM    C1F11236   2.784   2.706  10.180  0.1284  0.4642  0.1765
  109OSM     OF11237   2.816   2.773  10.277 -0.7591  0.7276  0.8519
  109OSM    C2F11238   2.831   2.736  10.038  0.4529  0.4652  0.5845
  109OSM    H2F11239   2.936   2.700  10.029  0.8373  1.4805  0.9100
  109OSM    H2G11240   2.831   2.846  10.026 -1.0738  0.2859 -1.8294
  109OSM    C3F11241   2.753   2.670   9.929 -0.3640  0.1324  0.2047
  109OSM    H3F11242   2.648   2.705   9.946 -0.0386  0.9047  0.7147
  109OSM    H3G11243   2.769   2.560   9.924  3.1863  0.5461  0.0837
  109OSM    C4F11244   2.802   2.724   9.795  0.4507  0.3966 -0.0787
  109OSM    H4F11245   2.913   2.715   9.797  0.7059  2.9809 -0.0813
  109OSM    H4G11246   2.780   2.832   9.783  0.3303  0.1183 -2.9903
  109OSM    C5F11247   2.744   2.648   9.673  0.2734 -0.3223  0.3178
  109OSM    H5F11248   2.635   2.631   9.682  0.3147 -0.2929  0.8993
  109OSM    H5G11249   2.790   2.548   9.687  0.7462  0.1895  2.9752
  109OSM    C6F11250   2.788   2.705   9.538  0.6072  0.3351 -0.4077
  109OSM    H6F11251   2.896   2.730   9.546  0.4030  0.9680  0.5323
  109OSM    H6G11252   2.737   2.803   9.525  0.1457  0.4132  1.6504
  109OSM    C7F11253   2.753   2.613   9.419 -0.0295 -0.2450  0.0750
  109OSM    H7F11254   2.645   2.594   9.404 -0.8533  1.9252  2.5583
  109OSM    H7G11255   2.797   2.513   9.438 -1.8690 -1.0416  0.3676
  109OSM    C8F11256   2.806   2.680   9.289  0.3613 -0.1759  0.7688
  109OSM    H8F11257   2.910   2.710   9.311  0.0331  1.8994 -0.2676
  109OSM    H8G11258   2.748   2.775   9.282  2.0755  0.8248 -0.5104
  109OSM    C9F11259   2.801   2.602   9.162 -0.6516 -0.6538  0.3411
  109OSM    H9F11260   2.858   2.508   9.154  1.0115  0.4328 -1.4432
  109OSM   C10F11261   2.741   2.647   9.050  1.0768 -0.9845 -1.0567
  109OSM   H10F11262   2.745   2.598   8.951  0.8320  3.2994 -3.4199
  109OSM   C11F11263   2.664   2.778   9.043 -1.1100 -0.1807  0.2857
  109OSM   H11F11264   2.694   2.826   8.948  1.2940  1.6352  1.8546
  109OSM   H11G11265   2.691   2.853   9.120 -1.5293 -1.0707  1.3362
  109OSM   C12F11266   2.510   2.757   9.055 -0.3402 -0.8873  0.1002
  109OSM   H12F11267   2.464   2.857   9.071  0.9003 -0.4572  1.2174
  109OSM   H12G11268   2.488   2.698   9.147 -0.6938  0.6834  1.0710
  109OSM   C13F11269   2.439   2.702   8.935 -0.1297  0.2205  0.0667
  109OSM   H13F11270   2.497   2.615   8.898  0.0968  0.3899  0.0237
  109OSM   H13G11271   2.457   2.772   8.851 -0.1107  0.5068  0.3111
  109OSM   C14F11272   2.288   2.689   8.938  0.0823  0.4094  0.1708
  109OSM   H14F11273   2.242   2.789   8.956 -1.4547 -0.1976 -0.2727
  109OSM   H14G11274   2.248   2.625   9.020 -0.3585 -0.2694 -0.5675
  109OSM   C15F11275   2.231   2.641   8.798 -0.0146  0.3291  0.8464
  109OSM   H15F11276   2.276   2.542   8.773  1.5037  0.8612  1.3968
  109OSM   H15G11277   2.292   2.699   8.725  1.6981 -0.5119  1.5452
  109OSM   C16F11278   2.084   2.642   8.782 -0.3749  0.0000 -0.1614
  109OSM   H16F11279   2.054   2.749   8.788  1.4863  0.5138  0.8801
  109OSM   H16G11280   2.040   2.586   8.867 -2.5419  2.6615  0.6215
  109OSM   C17F11281   2.028   2.589   8.650 -0.2878 -0.1652 -0.1296
  109OSM   H17F11282   1.918   2.598   8.658 -0.4176 -2.5697  2.2646
  109OSM   H17G11283   2.049   2.480   8.638 -1.7203 -0.4387 -0.3326
  109OSM   C18F11284   2.078   2.646   8.519  0.1054  0.1574  0.4069
  109OSM   H18F11285   2.188   2.630   8.510 -0.2636 -2.6633 -0.1618
  109OSM   H18G11286   2.055   2.752   8.499  2.1421  0.2510 -1.9609
  109OSM   H18H11287   2.052   2.590   8.426  0.0963  0.0473  0.4750
  110OSM      N11288   3.175   6.783  11.154 -0.0858  0.5553  0.0644
  110OSM    C1511289   3.127   6.869  11.271  0.3542 -0.3839 -0.0632
  110OSM   H15A11290   3.160   6.972  11.270 -2.5950  0.7313  2.4000
  110OSM   H15B11291   3.155   6.831  11.368 -0.6065  1.1073  0.8526
  110OSM   H15C11292   3.019   6.875  11.282  0.3256 -0.7541 -0.1247
  110OSM    C1411293   3.310   6.734  11.185 -0.3813 -0.5288  0.6356
  110OSM   H14A11294   3.387   6.808  11.203  2.5780 -2.6521 -2.0493
  110OSM   H14B11295   3.355   6.667  11.113  0.5326  1.3185 -0.6114
  110OSM   H14C11296   3.310   6.688  11.282  1.5047 -0.9108  0.5008
  110OSM    C1311297   3.088   6.661  11.156  0.5373 -1.0843 -0.5735
  110OSM   H13A11298   3.092   6.610  11.251  1.6960  0.3907  0.1985
  110OSM   H13B11299   3.121   6.594  11.078  2.6636  0.0278 -0.6954
  110OSM   H13C11300   2.987   6.690  11.131 -0.0783 -1.2206  1.5483
  110OSM    C1211301   3.179   6.855  11.022  0.3538 -0.0719 -0.4258
  110OSM   H12A11302   3.171   6.780  10.945  3.5361 -0.6322 -0.3255
  110OSM   H12B11303   3.279   6.884  10.994 -0.3851  0.3028 -2.9359
  110OSM    C1111304   3.099   6.988  11.001  0.4078 -0.2143 -0.0718
  110OSM   H11A11305   2.994   6.982  11.038 -0.3075  3.0739 -1.2431
  110OSM   H11B11306   3.085   7.007  10.893  0.6202  1.5636  0.1772
  110OSM      P11307   3.091   7.237  11.083  0.0597  0.2390  0.1083
  110OSM    O1311308   2.975   7.228  11.177 -0.8551 -0.4155 -0.2098
  110OSM    O1411309   3.199   7.338  11.111  0.1857 -0.5398 -0.0125
  110OSM    O1111310   3.031   7.292  10.948  0.3407  0.0818  0.0007
  110OSM    O1211311   3.170   7.095  11.062  0.2437 -0.3470 -0.6284
  110OSM    C1S11312   3.116   7.293  10.830 -0.4209  0.0572  0.8145
  110OSM    H1S11313   3.159   7.190  10.823 -1.2804 -0.2863  0.4574
  110OSM    H1T11314   3.200   7.365  10.829 -0.9072  0.6751 -1.6644
  110OSM     NF11315   3.105   7.270  10.582  0.3649  0.2079 -0.1578
  110OSM    HNF11316   3.154   7.342  10.533  1.8127  0.1362  1.1030
  110OSM    C2S11317   3.032   7.315  10.699  0.3503 -0.2440 -0.0617
  110OSM    H2S11318   2.941   7.252  10.703 -0.2259  0.3808 -2.0523
  110OSM    C3S11319   2.980   7.462  10.691  0.0364 -0.2577  0.2284
  110OSM    H3S11320   3.064   7.534  10.690  0.7194 -1.0198 -1.5384
  110OSM     O311321   2.894   7.507  10.803 -0.4114 -0.0030  0.3079
  110OSM    HO311322   2.881   7.430  10.858  0.2808  0.2767  0.8701
  110OSM    C4S11323   2.903   7.484  10.571 -0.6568 -0.9655  0.4617
  110OSM    H4S11324   2.840   7.400  10.539 -1.4198  0.3142 -1.6203
  110OSM    C5S11325   2.926   7.586  10.483  0.2585  0.7194  0.1183
  110OSM    H5S11326   3.006   7.659  10.504  0.2532  0.3791  1.4354
  110OSM    C6S11327   2.851   7.609  10.356 -0.1494  0.7576  0.5810
  110OSM    H6S11328   2.921   7.645  10.277 -0.2855  0.2675  0.2324
  110OSM    H6T11329   2.777   7.690  10.375 -0.8827  0.1871  0.2160
  110OSM    C7S11330   2.774   7.485  10.302  0.3202 -0.1515  0.2505
  110OSM    H7S11331   2.689   7.478  10.373  0.7147 -1.7202  0.6102
  110OSM    H7T11332   2.836   7.393  10.307  1.9126  0.9399  1.1482
  110OSM    C8S11333   2.723   7.509  10.157  0.1556 -0.3385  0.2206
  110OSM    H8S11334   2.690   7.615  10.155  1.2030  0.0124  0.7641
  110OSM    H8T11335   2.642   7.435  10.144  0.2888 -0.6758  1.2011
  110OSM    C9S11336   2.836   7.482  10.054 -0.2286  1.0055 -0.8508
  110OSM    H9S11337   2.881   7.383  10.073  1.2445  1.8258  0.1229
  110OSM    H9T11338   2.926   7.546  10.071  0.4157  0.0501 -0.6156
  110OSM   C10S11339   2.795   7.495   9.915 -0.1785  0.0611 -0.4946
  110OSM   H10S11340   2.778   7.602   9.890 -2.0104 -0.2703 -0.7814
  110OSM   H10T11341   2.695   7.450   9.900  0.2522 -0.5647 -1.5770
  110OSM   C11S11342   2.891   7.431   9.813 -0.7126  0.2545 -0.0884
  110OSM   H11S11343   2.877   7.321   9.822  1.5439  0.0329  1.2836
  110OSM   H11T11344   2.999   7.445   9.835 -0.9774  1.6948  0.4129
  110OSM   C12S11345   2.863   7.471   9.672  0.5858 -0.4237 -0.1071
  110OSM   H12S11346   2.863   7.579   9.646  2.2544  0.1147  1.8183
  110OSM   H12T11347   2.758   7.438   9.660  0.6461 -0.1051 -1.6905
  110OSM   C13S11348   2.962   7.417   9.566 -0.8125  0.2235  0.2978
  110OSM   H13S11349   2.943   7.308   9.562 -1.5166  0.2473  2.1006
  110OSM   H13T11350   3.064   7.436   9.603 -0.5540 -1.1766  0.3396
  110OSM   C14S11351   2.941   7.490   9.426  0.3002 -0.5659  0.0301
  110OSM   H14S11352   2.976   7.595   9.433 -0.5678 -0.0267 -2.6020
  110OSM   H14T11353   2.835   7.487   9.392  0.0331  0.3543  0.7357
  110OSM   C15S11354   3.017   7.421   9.317  0.2257 -0.0493 -0.3893
  110OSM   H15S11355   2.988   7.314   9.313  1.7208 -0.5561  1.2005
  110OSM   H15T11356   3.127   7.432   9.331 -0.0479  0.1819  1.8164
  110OSM   C16S11357   2.964   7.474   9.180 -0.7342 -0.5595 -0.1756
  110OSM   H16S11358   2.854   7.462   9.175 -0.6638 -1.2292 -0.1208
  110OSM   H16T11359   3.005   7.427   9.088  0.4033  3.4970 -2.0159
  110OSM   C17S11360   2.996   7.630   9.178  0.2293 -0.0814  0.4662
  110OSM   H17S11361   2.968   7.692   9.266  0.5725 -0.3283  0.7533
  110OSM   H17T11362   2.926   7.671   9.103 -1.6098 -0.3230  1.9828
  110OSM   C18S11363   3.135   7.665   9.128  0.2921 -0.1661 -0.4708
  110OSM   H18S11364   3.217   7.614   9.184  2.1557  0.6095 -2.3945
  110OSM   H18T11365   3.151   7.774   9.120 -0.8378 -0.0566 -1.3508
  110OSM   H18U11366   3.160   7.625   9.028  1.5333 -1.8047  0.4501
  110OSM    C1F11367   3.126   7.141  10.557  0.0992  0.2374  0.4016
  110OSM     OF11368   3.051   7.056  10.612 -0.1508 -0.2391  0.1830
  110OSM    C2F11369   3.230   7.108  10.454  0.0862  0.5382 -0.0919
  110OSM    H2F11370   3.282   7.013  10.480  1.5674  1.6949  1.3780
  110OSM    H2G11371   3.311   7.184  10.463 -1.3544  2.1199  0.0558
  110OSM    C3F11372   3.176   7.072  10.304 -0.0653 -0.4615 -0.0940
  110OSM    H3F11373   3.113   6.980  10.301 -0.0296 -0.5081  0.5042
  110OSM    H3G11374   3.268   7.060  10.242  0.3524  2.0621 -0.0481
  110OSM    C4F11375   3.089   7.186  10.242 -0.4191 -0.5220  0.1403
  110OSM    H4F11376   3.091   7.283  10.295 -1.8174 -0.1911 -0.3654
  110OSM    H4G11377   2.982   7.155  10.251 -0.1679 -2.4252 -2.3649
  110OSM    C5F11378   3.108   7.199  10.090 -1.0625  1.2985  0.0472
  110OSM    H5F11379   3.055   7.290  10.054 -4.2513 -1.3030 -2.4019
  110OSM    H5G11380   3.061   7.108  10.048  1.8653 -0.0955 -0.4898
  110OSM    C6F11381   3.254   7.214  10.052 -0.8450  0.5378 -0.2248
  110OSM    H6F11382   3.297   7.111  10.049 -0.1200  0.7453  1.7987
  110OSM    H6G11383   3.313   7.281  10.118  0.3918  1.2560 -1.9685
  110OSM    C7F11384   3.256   7.257   9.903 -0.0750 -0.3836  0.1191
  110OSM    H7F11385   3.246   7.368   9.906  0.5565 -0.3382  0.8503
  110OSM    H7G11386   3.174   7.213   9.843 -1.1340  2.0707 -0.3829
  110OSM    C8F11387   3.384   7.213   9.825  0.2212 -0.1491 -0.4262
  110OSM    H8F11388   3.382   7.102   9.817 -1.0420 -0.3312  1.6717
  110OSM    H8G11389   3.468   7.239   9.893  0.2775  0.0294 -0.5646
  110OSM    C9F11390   3.393   7.273   9.686  0.9829  0.4454 -1.0048
  110OSM    H9F11391   3.301   7.292   9.627  0.9313 -0.6242 -1.2915
  110OSM   C10F11392   3.505   7.275   9.618 -0.0313  0.5903  0.2342
  110OSM   H10F11393   3.500   7.323   9.520  2.5687  1.8141  0.6157
  110OSM   C11F11394   3.643   7.232   9.673  0.7959  0.3987 -0.3623
  110OSM   H11F11395   3.631   7.193   9.777 -1.0160  0.3423 -0.5703
  110OSM   H11G11396   3.715   7.316   9.688  0.3913  0.7803 -0.5512
  110OSM   C12F11397   3.715   7.123   9.590  0.5443 -0.1149  0.1034
  110OSM   H12F11398   3.824   7.109   9.609  0.5006 -1.3299 -0.4456
  110OSM   H12G11399   3.700   7.152   9.484  1.6748 -1.2041 -0.3812
  110OSM   C13F11400   3.648   6.981   9.595  0.0643  0.2183 -0.1295
  110OSM   H13F11401   3.539   6.993   9.582 -0.4474 -3.3563  0.1109
  110OSM   H13G11402   3.671   6.949   9.699  3.2244  0.3340 -0.6792
  110OSM   C14F11403   3.711   6.869   9.512 -0.4824  0.4484  0.8568
  110OSM   H14F11404   3.818   6.848   9.533 -0.5099 -1.3040 -0.5111
  110OSM   H14G11405   3.712   6.895   9.404  2.3383  1.2044  0.9871
  110OSM   C15F11406   3.627   6.740   9.526 -0.1867 -0.2055  0.2519
  110OSM   H15F11407   3.655   6.663   9.451 -1.6826  1.1907 -1.8566
  110OSM   H15G11408   3.521   6.758   9.496  0.4404  1.3365 -1.1596
  110OSM   C16F11409   3.639   6.672   9.669  0.0965 -0.0302 -0.1545
  110OSM   H16F11410   3.614   6.750   9.745 -0.1373  0.8230 -1.0848
  110OSM   H16G11411   3.744   6.639   9.683 -0.7528 -2.6060  0.8113
  110OSM   C17F11412   3.534   6.563   9.687 -0.3591  0.2004 -0.0428
  110OSM   H17F11413   3.538   6.488   9.605 -0.7524 -0.4455  0.5129
  110OSM   H17G11414   3.433   6.607   9.704 -0.6751 -0.2509 -0.7106
  110OSM   C18F11415   3.575   6.472   9.800  0.1962  0.3171 -0.1959
  110OSM   H18F11416   3.563   6.511   9.903 -1.2722 -0.4309 -0.0580
  110OSM   H18G11417   3.681   6.438   9.793 -0.7069 -2.5603 -2.1038
  110OSM   H18H11418   3.516   6.378   9.802  0.4212  0.1843  0.5024
  111OSM      N11419   5.244   3.102  11.297  0.3783  0.1962  0.2432
  111OSM    C1511420   5.369   3.184  11.300 -0.1518  0.2483 -0.3739
  111OSM   H15A11421   5.373   3.253  11.384 -0.1981 -0.1207 -0.0622
  111OSM   H15B11422   5.374   3.249  11.214  1.9044  0.7114  0.0379
  111OSM   H15C11423   5.457   3.122  11.305 -0.6504 -0.3658  2.5333
  111OSM    C1411424   5.240   3.019  11.424  0.0477 -0.6310  0.9598
  111OSM   H14A11425   5.326   2.955  11.435  1.0930  0.9709  2.8133
  111OSM   H14B11426   5.147   2.965  11.432  1.0709 -2.6683 -0.2790
  111OSM   H14C11427   5.245   3.083  11.511 -0.7369  2.1826 -0.9392
  111OSM    C1311428   5.124   3.192  11.291 -0.2221  0.1830 -1.0986
  111OSM   H13A11429   5.127   3.250  11.200  1.2541  0.2621 -1.0288
  111OSM   H13B11430   5.124   3.257  11.377 -1.7416  0.5651 -1.3708
  111OSM   H13C11431   5.040   3.130  11.316  1.0062 -0.3971  2.0300
  111OSM    C1211432   5.238   3.008  11.175 -0.0615  0.7845  0.8261
  111OSM   H12A11433   5.158   2.943  11.205 -1.1864  0.6652 -2.1222
  111OSM   H12B11434   5.328   2.949  11.172 -0.7154 -0.2135 -0.0028
  111OSM    C1111435   5.231   3.066  11.032  0.0562  0.4608 -0.5364
  111OSM   H11A11436   5.133   3.118  11.021 -0.3059 -0.3838 -1.5098
  111OSM   H11B11437   5.231   2.976  10.966 -1.0523 -1.2711  1.6894
  111OSM      P11438   5.462   3.106  10.941 -0.0312 -0.4607 -0.2500
  111OSM    O1311439   5.547   3.222  10.906 -0.0164  0.2326 -0.1514
  111OSM    O1411440   5.514   3.003  11.030 -0.1696  0.0185  0.0002
  111OSM    O1111441   5.431   3.038  10.802 -0.0625  0.3817  0.1201
  111OSM    O1211442   5.327   3.160  11.002 -1.1966  0.0607  0.3309
  111OSM    C1S11443   5.340   3.100  10.711  0.4429 -0.3892  0.3272
  111OSM    H1S11444   5.383   3.196  10.672 -1.0703  0.3716  0.4674
  111OSM    H1T11445   5.247   3.141  10.755 -1.2006  2.6763 -5.0200
  111OSM     NF11446   5.232   3.088  10.492 -0.5157 -0.0517  0.2144
  111OSM    HNF11447   5.132   3.093  10.493 -0.5313 -0.3305 -0.0801
  111OSM    C2S11448   5.292   3.006  10.590  0.0518 -0.9846  1.1781
  111OSM    H2S11449   5.381   2.963  10.540  0.1981  1.7468 -1.1898
  111OSM    C3S11450   5.201   2.885  10.647 -0.0685 -0.0740  0.5611
  111OSM    H3S11451   5.117   2.931  10.703 -1.3213 -2.9170  1.1818
  111OSM     O311452   5.269   2.811  10.745 -0.0945  0.1847 -0.4887
  111OSM    HO311453   5.345   2.866  10.763 -0.8986  1.6885 -1.3933
  111OSM    C4S11454   5.156   2.784  10.547  0.4685  0.2498 -0.1208
  111OSM    H4S11455   5.226   2.700  10.534 -0.6406 -1.1601  2.3622
  111OSM    C5S11456   5.035   2.773  10.493  0.7098 -0.2361  0.0367
  111OSM    H5S11457   4.963   2.850  10.524  1.9399  0.5507  1.0667
  111OSM    C6S11458   4.995   2.673  10.393 -0.1946  0.7166  0.2167
  111OSM    H6S11459   4.927   2.593  10.431  0.0973 -0.2313 -1.1580
  111OSM    H6T11460   5.077   2.614  10.348  2.3572  1.3150  3.6306
  111OSM    C7S11461   4.917   2.747  10.279 -0.1495  0.1070  0.0570
  111OSM    H7S11462   4.827   2.791  10.326  0.8517  1.1858  1.0226
  111OSM    H7T11463   4.886   2.669  10.205  0.2442 -0.0110  0.0123
  111OSM    C8S11464   5.003   2.831  10.189  0.1161 -0.8632  0.3715
  111OSM    H8S11465   5.053   2.912  10.247 -0.5953 -0.1720  0.0393
  111OSM    H8T11466   4.946   2.888  10.112 -2.0724 -0.2095  2.3756
  111OSM    C9S11467   5.122   2.763  10.116 -0.3305  0.2180  0.4070
  111OSM    H9S11468   5.080   2.676  10.061 -0.1093  0.5474 -0.2988
  111OSM    H9T11469   5.199   2.733  10.191 -0.3039  2.8341  1.5481
  111OSM   C10S11470   5.193   2.851  10.015  0.1282 -0.4347  0.0985
  111OSM   H10S11471   5.292   2.803  10.000  0.6238  0.9769 -1.3448
  111OSM   H10T11472   5.200   2.953  10.059 -0.9973  0.7018 -2.1906
  111OSM   C11S11473   5.128   2.861   9.878  0.9371 -0.0723 -0.8496
  111OSM   H11S11474   5.159   2.957   9.831  0.4621  0.1289 -0.7584
  111OSM   H11T11475   5.017   2.866   9.891  1.0953  1.0928  0.2010
  111OSM   C12S11476   5.174   2.753   9.778 -0.4091 -0.5368 -1.1846
  111OSM   H12S11477   5.145   2.649   9.802  1.8105 -1.1026 -0.6761
  111OSM   H12T11478   5.285   2.760   9.773 -0.4166  1.1625  0.2366
  111OSM   C13S11479   5.103   2.777   9.651 -0.3437 -0.1402  0.1629
  111OSM   H13S11480   5.123   2.881   9.617  0.4082 -0.4802 -0.4713
  111OSM   H13T11481   4.993   2.780   9.668 -0.2865  2.2185  0.5047
  111OSM   C14S11482   5.130   2.683   9.531  0.6242 -0.0541 -0.7839
  111OSM   H14S11483   5.093   2.583   9.562 -1.8875  1.1448  0.3996
  111OSM   H14T11484   5.239   2.678   9.510  0.6499  0.8114 -0.8673
  111OSM   C15S11485   5.047   2.733   9.414 -0.5739 -0.5542  0.6893
  111OSM   H15S11486   5.107   2.692   9.330 -1.1581 -1.5376  0.7393
  111OSM   H15T11487   5.038   2.844   9.407 -1.6775 -0.7491 -1.3907
  111OSM   C16S11488   4.911   2.678   9.406 -0.7808  0.0215  0.3544
  111OSM   H16S11489   4.873   2.693   9.509 -0.2617  1.5830  0.3471
  111OSM   H16T11490   4.902   2.569   9.386  0.1338 -0.5215  2.6655
  111OSM   C17S11491   4.807   2.755   9.312  0.0986  0.9323  0.7033
  111OSM   H17S11492   4.826   2.731   9.205  2.1492  2.8688  0.5620
  111OSM   H17T11493   4.824   2.865   9.309 -2.7457  1.4372 -0.7416
  111OSM   C18S11494   4.665   2.737   9.350 -0.6452  0.0425  0.3424
  111OSM   H18S11495   4.605   2.803   9.284 -0.8607  0.4807  0.9669
  111OSM   H18T11496   4.646   2.772   9.454 -1.4976  0.7686 -0.0405
  111OSM   H18U11497   4.627   2.632   9.350 -1.9130  0.4730 -0.3155
  111OSM    C1F11498   5.289   3.194  10.431  0.0712  0.6816  0.4730
  111OSM     OF11499   5.407   3.229  10.440 -0.0242 -0.0311 -0.0818
  111OSM    C2F11500   5.191   3.261  10.342  0.3856  0.8697  0.0643
  111OSM    H2F11501   5.176   3.365  10.378  0.8998  0.4671  1.5161
  111OSM    H2G11502   5.092   3.211  10.338 -0.5823  2.7439 -0.3705
  111OSM    C3F11503   5.257   3.273  10.199 -0.4025 -0.1872 -0.9226
  111OSM    H3F11504   5.309   3.177  10.180 -2.3158 -1.4260 -0.2100
  111OSM    H3G11505   5.326   3.360  10.200 -1.4048  0.6318 -0.4330
  111OSM    C4F11506   5.150   3.301  10.087 -0.1317  0.1295  0.2876
  111OSM    H4F11507   5.120   3.408  10.089  0.7163  0.4454 -1.9282
  111OSM    H4G11508   5.063   3.234  10.104 -0.3651 -0.2405 -2.0957
  111OSM    C5F11509   5.195   3.278   9.942 -0.2395  1.0527 -0.2119
  111OSM    H5F11510   5.103   3.247   9.889  0.7228 -3.8486  0.4925
  111OSM    H5G11511   5.262   3.190   9.946  1.2721  2.1101 -1.1831
  111OSM    C6F11512   5.266   3.392   9.868  0.4167  0.4901 -0.0110
  111OSM    H6F11513   5.313   3.362   9.772 -0.1983 -1.6345  0.3111
  111OSM    H6G11514   5.350   3.410   9.939 -0.5768  0.3190  1.2532
  111OSM    C7F11515   5.185   3.520   9.860 -0.4295  0.6057 -0.1179
  111OSM    H7F11516   5.151   3.562   9.957 -1.1484  0.2944 -0.2334
  111OSM    H7G11517   5.093   3.499   9.801 -0.9321  1.3206  0.3944
  111OSM    C8F11518   5.270   3.629   9.792  0.6593  0.2258 -0.1377
  111OSM    H8F11519   5.332   3.593   9.707 -1.3928 -4.1780 -0.0297
  111OSM    H8G11520   5.343   3.656   9.871  1.4680  0.4451 -0.9416
  111OSM    C9F11521   5.182   3.740   9.757 -0.0716 -0.5384  0.0760
  111OSM    H9F11522   5.167   3.811   9.840 -0.9768  0.4017 -0.8627
  111OSM   C10F11523   5.135   3.769   9.637 -0.2293 -0.1590 -0.1826
  111OSM   H10F11524   5.085   3.866   9.623  0.3751  0.1162 -0.4799
  111OSM   C11F11525   5.151   3.697   9.502 -0.5153 -0.1955  0.2613
  111OSM   H11F11526   5.197   3.597   9.516  0.7271  0.2672 -0.3132
  111OSM   H11G11527   5.210   3.749   9.424 -2.7358 -2.1313 -2.9234
  111OSM   C12F11528   5.023   3.673   9.423  0.3810 -1.0414 -0.0679
  111OSM   H12F11529   4.968   3.769   9.414 -0.4725 -1.4871  0.2813
  111OSM   H12G11530   4.958   3.596   9.469 -2.0691  1.7454  1.5466
  111OSM   C13F11531   5.041   3.641   9.271  0.2212 -0.5154  0.3476
  111OSM   H13F11532   5.099   3.546   9.265  0.0695 -0.5942  0.0585
  111OSM   H13G11533   5.110   3.711   9.221 -2.5579 -0.5158 -4.0482
  111OSM   C14F11534   4.921   3.627   9.180 -0.1066  0.4429 -0.5134
  111OSM   H14F11535   4.864   3.722   9.188  0.2765  0.5336  1.6933
  111OSM   H14G11536   4.851   3.551   9.220  0.7013 -0.2890 -0.4520
  111OSM   C15F11537   4.955   3.590   9.042 -0.6184 -0.9766  0.7749
  111OSM   H15F11538   5.007   3.492   9.043  0.3806 -0.4759  0.4934
  111OSM   H15G11539   5.032   3.663   9.010 -1.4791  1.1916  3.2911
  111OSM   C16F11540   4.835   3.595   8.940 -0.4932  0.2458 -0.4472
  111OSM   H16F11541   4.804   3.701   8.930  0.4237  0.6369  0.5876
  111OSM   H16G11542   4.758   3.537   8.995 -1.1353  0.7696 -0.7801
  111OSM   C17F11543   4.872   3.544   8.801  0.7181  0.6957  0.2314
  111OSM   H17F11544   4.890   3.434   8.797  0.0398  0.5260  1.4231
  111OSM   H17G11545   4.971   3.586   8.775  0.7181 -0.7672 -2.5843
  111OSM   C18F11546   4.762   3.586   8.699 -0.2939  0.2190 -0.0876
  111OSM   H18F11547   4.766   3.694   8.673  0.3435  0.1690 -0.2179
  111OSM   H18G11548   4.661   3.562   8.737  0.0607 -0.5335  0.4027
  111OSM   H18H11549   4.776   3.511   8.617 -1.7084 -0.4860  0.2854
  112OSM      N11550   1.554   5.118  10.964 -0.0372 -0.4271 -0.5869
  112OSM    C1511551   1.658   5.225  10.931 -0.9417  0.0593 -0.1989
  112OSM   H15A11552   1.611   5.314  10.891 -0.3775 -0.9239 -3.3441
  112OSM   H15B11553   1.724   5.183  10.856 -0.8903  2.5084 -1.6313
  112OSM   H15C11554   1.725   5.258  11.009 -0.9718 -1.5195  0.5431
  112OSM    C1411555   1.630   5.015  11.051  0.5908  0.0616 -0.2180
  112OSM   H14A11556   1.573   4.929  11.082  3.0088 -2.1379 -1.4982
  112OSM   H14B11557   1.660   5.054  11.148 -0.1485  2.3323 -0.8467
  112OSM   H14C11558   1.697   4.962  10.986 -0.7118  1.0690 -2.4851
  112OSM    C1311559   1.449   5.164  11.058  0.2749 -0.0440 -1.5361
  112OSM   H13A11560   1.366   5.208  11.005 -0.1874  1.2715  0.1996
  112OSM   H13B11561   1.483   5.237  11.130  1.3017 -1.4846 -0.5083
  112OSM   H13C11562   1.405   5.079  11.109  1.3918 -0.1777 -0.7557
  112OSM    C1211563   1.497   5.054  10.838 -0.3583  0.3742  0.0385
  112OSM   H12A11564   1.413   5.109  10.797  0.6713  2.2957  0.3963
  112OSM   H12B11565   1.448   4.964  10.872 -0.6628  0.0581 -1.2181
  112OSM    C1111566   1.597   4.999  10.740  0.4897  0.2418  1.4272
  112OSM   H11A11567   1.650   5.087  10.697 -0.3511  0.7369  1.3852
  112OSM   H11B11568   1.530   4.964  10.659  0.5249 -0.0822  1.5394
  112OSM      P11569   1.678   4.751  10.726 -0.3605 -0.3323 -0.6243
  112OSM    O1311570   1.816   4.694  10.736  0.3244  0.1959  0.0636
  112OSM    O1411571   1.574   4.662  10.773 -0.5207  0.6642  0.0440
  112OSM    O1111572   1.648   4.784  10.574 -0.1540 -0.0904  0.2762
  112OSM    O1211573   1.675   4.898  10.790 -0.1016  0.0524  0.4547
  112OSM    C1S11574   1.648   4.674  10.477  0.3727 -0.3218  0.1107
  112OSM    H1S11575   1.575   4.599  10.513 -0.3863 -0.9805 -2.5634
  112OSM    H1T11576   1.749   4.630  10.462  1.1034  0.1041  3.0643
  112OSM     NF11577   1.620   4.593  10.251 -0.1891  0.2546 -0.5377
  112OSM    HNF11578   1.701   4.576  10.195 -0.0550 -3.8883  0.5948
  112OSM    C2S11579   1.599   4.708  10.331 -0.3641 -0.3818  0.3046
  112OSM    H2S11580   1.488   4.721  10.330 -0.5232 -1.2757 -2.2573
  112OSM    C3S11581   1.675   4.839  10.282 -0.2516 -0.1197  0.2867
  112OSM    H3S11582   1.785   4.824  10.283  0.2389  1.7767 -3.5878
  112OSM     O311583   1.660   4.951  10.366  0.4446 -0.5842 -0.1274
  112OSM    HO311584   1.633   4.910  10.449  1.6447 -1.7480 -0.2844
  112OSM    C4S11585   1.635   4.873  10.138  0.4335 -0.3643 -0.0755
  112OSM    H4S11586   1.709   4.847  10.061 -0.5470  0.1759 -1.2572
  112OSM    C5S11587   1.526   4.944  10.090  0.1256 -0.9556 -0.1848
  112OSM    H5S11588   1.471   4.995  10.170  0.2683  0.0243 -0.6925
  112OSM    C6S11589   1.495   4.987   9.954  0.4059  0.0991  0.0702
  112OSM    H6S11590   1.514   5.096   9.948  0.9131 -0.0586 -1.8130
  112OSM    H6T11591   1.387   4.970   9.931  0.9775 -0.3994 -2.5969
  112OSM    C7S11592   1.579   4.927   9.836  0.4421  0.2666 -0.1801
  112OSM    H7S11593   1.574   4.816   9.829  0.6776  0.1756  0.8474
  112OSM    H7T11594   1.686   4.952   9.856  0.8817 -2.6227  1.6259
  112OSM    C8S11595   1.524   4.964   9.701  0.4185 -0.1783  0.2418
  112OSM    H8S11596   1.530   5.072   9.676  0.0452 -0.9397 -3.6791
  112OSM    H8T11597   1.422   4.920   9.704  0.0140  0.7704  1.3653
  112OSM    C9S11598   1.597   4.898   9.584 -0.2837  0.3858  0.3633
  112OSM    H9S11599   1.610   4.789   9.602 -1.4551  0.2861  0.6510
  112OSM    H9T11600   1.693   4.954   9.591 -0.3321  0.2897  3.0118
  112OSM   C10S11601   1.536   4.919   9.449  0.6350  1.0152 -0.1458
  112OSM   H10S11602   1.492   5.021   9.442 -2.1159  0.1441  2.2005
  112OSM   H10T11603   1.450   4.849   9.442  0.1180  1.7943 -2.8444
  112OSM   C11S11604   1.627   4.884   9.342  0.5093  0.2717 -0.0034
  112OSM   H11S11605   1.562   4.898   9.253  0.6605  0.2969 -0.1123
  112OSM   H11T11606   1.666   4.780   9.346  0.6984  0.3846  1.4780
  112OSM   C12S11607   1.748   4.973   9.315  0.8379 -0.4449 -0.1962
  112OSM   H12S11608   1.820   4.961   9.399  1.4850 -1.6690 -0.8884
  112OSM   H12T11609   1.717   5.079   9.309  1.9728 -0.1774 -2.0108
  112OSM   C13S11610   1.823   4.925   9.189  0.5724 -0.4080 -0.3447
  112OSM   H13S11611   1.834   4.815   9.191 -2.3944 -0.8181 -1.4138
  112OSM   H13T11612   1.925   4.968   9.196  0.1956  0.2079  3.0361
  112OSM   C14S11613   1.756   4.969   9.054  1.0637  0.5359  0.4411
  112OSM   H14S11614   1.757   5.080   9.055  0.3199  0.6055 -1.7151
  112OSM   H14T11615   1.649   4.938   9.063  0.7856  1.1974 -0.4180
  112OSM   C15S11616   1.808   4.914   8.921  0.0719  0.3895  0.2428
  112OSM   H15S11617   1.749   4.949   8.833  0.6768  0.3897 -0.1648
  112OSM   H15T11618   1.801   4.804   8.911  2.2885 -0.0469  2.5315
  112OSM   C16S11619   1.959   4.940   8.911 -0.0900 -0.2754 -0.4614
  112OSM   H16S11620   2.010   4.892   8.824  2.0690  1.7262 -0.4021
  112OSM   H16T11621   2.007   4.893   8.999 -1.8991 -0.7507  0.3211
  112OSM   C17S11622   2.008   5.086   8.925  0.4058  0.0056  0.3787
  112OSM   H17S11623   1.941   5.150   8.987  1.4665  0.8207  0.7093
  112OSM   H17T11624   2.011   5.129   8.822  0.7963  1.4938  0.9900
  112OSM   C18S11625   2.145   5.106   8.993 -0.4140  0.5279  0.6581
  112OSM   H18S11626   2.172   5.213   9.007  1.6677  0.0391  0.7001
  112OSM   H18T11627   2.221   5.064   8.924 -2.6607 -0.1086 -1.5727
  112OSM   H18U11628   2.153   5.054   9.091  0.8776  0.8460  0.7381
  112OSM    C1F11629   1.543   4.481  10.262 -0.8329 -0.3356  0.1803
  112OSM     OF11630   1.441   4.486  10.332 -0.0420 -0.3185  0.0802
  112OSM    C2F11631   1.587   4.357  10.190 -0.0587 -0.2616 -0.1833
  112OSM    H2F11632   1.557   4.262  10.240 -1.8559  0.6369  0.5498
  112OSM    H2G11633   1.697   4.360  10.178  0.1956 -0.0271  1.8070
  112OSM    C3F11634   1.534   4.347  10.044  0.4387 -0.1515 -0.9032
  112OSM    H3F11635   1.578   4.428   9.981  0.2385 -0.8690 -1.9945
  112OSM    H3G11636   1.423   4.342  10.047  0.3116  1.2332  2.7551
  112OSM    C4F11637   1.568   4.221   9.965  0.5553 -0.3297  0.1816
  112OSM    H4F11638   1.507   4.204   9.874 -0.3429 -1.0811  0.9050
  112OSM    H4G11639   1.563   4.131  10.030 -0.4425 -0.2646  0.2106
  112OSM    C5F11640   1.714   4.221   9.908  0.2050  0.8538 -0.2175
  112OSM    H5F11641   1.749   4.116   9.902  0.9481  1.0428  0.6153
  112OSM    H5G11642   1.780   4.262   9.987 -1.4284 -1.1929  2.3773
  112OSM    C6F11643   1.729   4.290   9.771 -0.1571  0.0696  0.1777
  112OSM    H6F11644   1.683   4.390   9.788  0.2643  0.1655  0.7697
  112OSM    H6G11645   1.660   4.234   9.704 -3.5122 -0.3139  3.5692
  112OSM    C7F11646   1.872   4.290   9.717  0.3205 -0.7743  1.1197
  112OSM    H7F11647   1.914   4.201   9.769  1.3436  0.0385  1.7213
  112OSM    H7G11648   1.927   4.376   9.760  0.5355 -2.4523  4.5571
  112OSM    C8F11649   1.876   4.280   9.560  0.5696  0.5544  0.2414
  112OSM    H8F11650   1.821   4.186   9.537  2.4081 -0.2622 -1.0914
  112OSM    H8G11651   1.978   4.241   9.537  0.8278 -0.0632  2.2777
  112OSM    C9F11652   1.817   4.394   9.477 -0.5625 -0.1971 -0.0181
  112OSM    H9F11653   1.728   4.435   9.526  0.0535 -0.5110  1.3908
  112OSM   C10F11654   1.864   4.453   9.366  0.3633 -0.1234  0.0551
  112OSM   H10F11655   1.804   4.536   9.326  1.1927  0.4543  0.0088
  112OSM   C11F11656   1.988   4.416   9.290 -0.2546 -0.2559  0.0582
  112OSM   H11F11657   2.021   4.313   9.318 -0.3697 -1.0936 -2.6031
  112OSM   H11G11658   2.071   4.483   9.320  0.7583 -1.9062  1.1110
  112OSM   C12F11659   1.975   4.410   9.134 -0.0034  0.0774  0.3457
  112OSM   H12F11660   1.900   4.339   9.094  1.5330 -1.1492 -0.4773
  112OSM   H12G11661   2.072   4.369   9.098 -1.2263 -1.5322 -1.3031
  112OSM   C13F11662   1.942   4.544   9.063 -0.7799 -0.1190  0.4494
  112OSM   H13F11663   2.019   4.620   9.087 -1.3459  1.1842 -1.6129
  112OSM   H13G11664   1.847   4.596   9.087  0.2903  1.3006  1.8774
  112OSM   C14F11665   1.965   4.544   8.908 -0.7205 -0.2543 -0.2719
  112OSM   H14F11666   2.041   4.472   8.871 -0.9010  0.8119 -2.9693
  112OSM   H14G11667   2.001   4.646   8.883 -3.1622  0.5175 -0.9015
  112OSM   C15F11668   1.837   4.514   8.834  0.0084  0.0090  0.5688
  112OSM   H15F11669   1.760   4.594   8.836  0.0868  0.1721 -1.2019
  112OSM   H15G11670   1.787   4.429   8.886 -2.2333  1.2946  0.6440
  112OSM   C16F11671   1.875   4.476   8.691  0.0995 -0.5898 -0.0886
  112OSM   H16F11672   1.798   4.416   8.638 -0.2073 -1.5454  1.3676
  112OSM   H16G11673   1.965   4.411   8.692 -0.1820 -0.9916 -0.4563
  112OSM   C17F11674   1.918   4.596   8.610 -0.8548  0.2989 -0.0226
  112OSM   H17F11675   1.969   4.559   8.519 -1.6312 -1.9251  0.3696
  112OSM   H17G11676   1.996   4.659   8.657  0.7592 -2.7822  1.7312
  112OSM   C18F11677   1.791   4.682   8.580 -0.7774  0.3350 -1.0709
  112OSM   H18F11678   1.744   4.721   8.673 -0.8241 -2.6280  0.2531
  112OSM   H18G11679   1.713   4.624   8.526 -0.4495 -0.5333 -0.6352
  112OSM   H18H11680   1.814   4.761   8.505  0.1738  0.6375 -0.4841
  113OSM      N11681   3.851   4.194  10.798  0.5653 -0.6092 -0.5055
  113OSM    C1511682   3.715   4.153  10.763  1.0460 -0.2149 -0.2029
  113OSM   H15A11683   3.679   4.218  10.685 -0.2336 -0.8727 -0.1740
  113OSM   H15B11684   3.641   4.142  10.841  1.6968 -0.4935  0.3911
  113OSM   H15C11685   3.707   4.057  10.714  0.2036 -0.0350 -0.4307
  113OSM    C1411686   3.846   4.340  10.828 -0.2997  0.2016 -0.2153
  113OSM   H14A11687   3.762   4.369  10.889  0.3140  1.5273  0.0244
  113OSM   H14B11688   3.832   4.393  10.735  1.0659 -2.3934 -2.0702
  113OSM   H14C11689   3.936   4.378  10.874 -0.1910 -0.0077 -0.2532
  113OSM    C1311690   3.891   4.111  10.917 -0.4025 -0.6809  0.5089
  113OSM   H13A11691   3.901   4.008  10.886  0.7577 -0.5948  0.5685
  113OSM   H13B11692   3.830   4.115  11.006  0.9563 -1.9003  1.5486
  113OSM   H13C11693   3.989   4.147  10.944  0.0319 -0.6445 -1.0352
  113OSM    C1211694   3.941   4.173  10.678 -0.1204 -0.3614 -0.1655
  113OSM   H12A11695   4.042   4.184  10.713 -0.2184  0.0373  0.0052
  113OSM   H12B11696   3.916   4.249  10.604 -1.6555 -1.3401 -0.7026
  113OSM    C1111697   3.938   4.039  10.597  0.5666  0.3759 -0.0135
  113OSM   H11A11698   4.030   4.044  10.535  0.2758  0.2535 -0.4559
  113OSM   H11B11699   3.861   4.048  10.518 -0.6104 -0.0813  1.0448
  113OSM      P11700   4.022   3.800  10.669 -0.6824 -0.1959 -0.0280
  113OSM    O1311701   4.154   3.831  10.727  0.1065 -0.4326  0.5624
  113OSM    O1411702   3.954   3.690  10.735  0.3710 -0.0893 -0.8845
  113OSM    O1111703   4.035   3.755  10.517 -0.1605 -0.1665  0.4451
  113OSM    O1211704   3.917   3.917  10.668  0.2403  0.0141  0.1882
  113OSM    C1S11705   3.915   3.711  10.447 -0.0455  0.3771  0.2015
  113OSM    H1S11706   3.824   3.764  10.483  1.2164  1.2288  2.3655
  113OSM    H1T11707   3.905   3.602  10.460 -0.6972  0.4038 -0.0477
  113OSM     NF11708   3.811   3.707  10.223  0.2349  0.2549  0.8185
  113OSM    HNF11709   3.809   3.614  10.186  1.8837  0.6637 -0.4026
  113OSM    C2S11710   3.934   3.745  10.292  0.5242 -0.7549 -0.7488
  113OSM    H2S11711   3.957   3.854  10.286  3.1133 -1.1187  1.0657
  113OSM    C3S11712   4.062   3.675  10.245 -0.5151  0.2315 -0.2818
  113OSM    H3S11713   4.062   3.564  10.251 -3.5692  0.0328 -1.8262
  113OSM     O311714   4.177   3.729  10.314 -0.1432  0.1895  0.1323
  113OSM    HO311715   4.138   3.767  10.393 -1.6732 -0.3086 -0.3441
  113OSM    C4S11716   4.078   3.701  10.093  0.2259  0.5315 -0.0898
  113OSM    H4S11717   4.138   3.789  10.065 -0.8995  0.6985 -2.2191
  113OSM    C5S11718   4.051   3.604  10.000  0.6680 -0.0699 -0.3038
  113OSM    H5S11719   4.010   3.510  10.038 -1.1636  1.0021  0.4901
  113OSM    C6S11720   4.097   3.622   9.854  0.3107 -0.1240  0.1054
  113OSM    H6S11721   4.010   3.578   9.800  0.2401 -1.9400  1.6261
  113OSM    H6T11722   4.191   3.564   9.841  0.7245 -0.3005  3.2564
  113OSM    C7S11723   4.114   3.770   9.819  0.6105  0.3259 -0.7953
  113OSM    H7S11724   4.201   3.814   9.872 -0.2182 -0.7141  1.5830
  113OSM    H7T11725   4.028   3.826   9.862  0.3417 -1.3296  0.9668
  113OSM    C8S11726   4.134   3.794   9.672  0.4758  0.3256  0.2472
  113OSM    H8S11727   4.057   3.748   9.607 -1.9723  2.1799  1.6520
  113OSM    H8T11728   4.225   3.734   9.650  0.6137  0.3976  0.6032
  113OSM    C9S11729   4.160   3.939   9.636  0.4941  0.1811  1.0337
  113OSM    H9S11730   4.238   3.982   9.704  1.2520  0.9558 -0.2870
  113OSM    H9T11731   4.064   3.989   9.661 -0.3681 -0.8664 -0.0795
  113OSM   C10S11732   4.194   3.963   9.489  0.2141  0.3347  0.2237
  113OSM   H10S11733   4.126   3.903   9.424 -0.5131 -1.0574  2.1719
  113OSM   H10T11734   4.297   3.923   9.475  0.5008  1.5256 -1.2957
  113OSM   C11S11735   4.210   4.111   9.445  0.9449  0.6455  0.3051
  113OSM   H11S11736   4.264   4.161   9.528 -1.2570 -2.6455  4.0707
  113OSM   H11T11737   4.110   4.161   9.444  0.6896  0.1592  1.0284
  113OSM   C12S11738   4.250   4.147   9.300  0.3777  0.8256 -0.4815
  113OSM   H12S11739   4.347   4.095   9.289 -1.1597 -2.3804 -0.2121
  113OSM   H12T11740   4.249   4.258   9.296 -1.0303  0.8829  0.4959
  113OSM   C13S11741   4.157   4.107   9.189 -0.6888  0.5254  0.4699
  113OSM   H13S11742   4.054   4.130   9.224 -0.2833 -1.7406  3.5358
  113OSM   H13T11743   4.160   3.996   9.179  1.4344  0.3897  1.9948
  113OSM   C14S11744   4.191   4.165   9.051 -0.1429  0.2360 -0.6220
  113OSM   H14S11745   4.292   4.135   9.017  0.8746  0.2066  2.1542
  113OSM   H14T11746   4.187   4.275   9.070  0.1163 -0.2985  3.6216
  113OSM   C15S11747   4.095   4.126   8.943 -0.2663 -0.2594 -0.2306
  113OSM   H15S11748   4.102   4.018   8.922 -0.5695 -0.5865  1.2656
  113OSM   H15T11749   4.120   4.173   8.845 -2.4875 -0.4744 -0.9554
  113OSM   C16S11750   3.949   4.161   8.968  0.6641 -0.1353  0.1153
  113OSM   H16S11751   3.941   4.265   9.006  1.2436  0.8504 -2.2872
  113OSM   H16T11752   3.904   4.100   9.050  1.5649 -1.6955 -0.5131
  113OSM   C17S11753   3.870   4.136   8.837 -0.5514 -0.3049 -0.4495
  113OSM   H17S11754   3.867   4.027   8.817  0.3789 -0.5774  0.7599
  113OSM   H17T11755   3.924   4.184   8.752 -0.3855 -1.3653 -0.9651
  113OSM   C18S11756   3.727   4.180   8.857 -0.2907 -0.4017 -0.1385
  113OSM   H18S11757   3.728   4.285   8.818 -0.8040 -0.0743  0.7037
  113OSM   H18T11758   3.691   4.173   8.962 -1.7242  1.3650 -0.4605
  113OSM   H18U11759   3.664   4.113   8.796  0.4514 -0.1434 -1.2171
  113OSM    C1F11760   3.699   3.777  10.240  0.2721 -0.4200 -0.1688
  113OSM     OF11761   3.697   3.889  10.291 -0.5464 -0.0240 -0.1410
  113OSM    C2F11762   3.572   3.719  10.188  0.4195  0.3371  0.5529
  113OSM    H2F11763   3.512   3.707  10.280  0.2788 -1.8879  0.2259
  113OSM    H2G11764   3.584   3.618  10.142  0.7351  1.0198 -0.9007
  113OSM    C3F11765   3.492   3.818  10.101 -0.3372 -0.5955 -0.0346
  113OSM    H3F11766   3.461   3.917  10.142 -2.1914 -0.0978 -2.4312
  113OSM    H3G11767   3.399   3.766  10.069  0.5010 -1.2332 -1.5144
  113OSM    C4F11768   3.557   3.855   9.963 -0.5710  0.2096 -0.1395
  113OSM    H4F11769   3.650   3.915   9.974 -0.9734  1.1091 -1.3658
  113OSM    H4G11770   3.490   3.920   9.902  0.0038  1.4700  0.5381
  113OSM    C5F11771   3.604   3.735   9.872 -0.5302 -0.2286  0.3815
  113OSM    H5F11772   3.521   3.662   9.860 -0.6161 -0.2221  0.9359
  113OSM    H5G11773   3.688   3.680   9.920  0.9629 -0.3033 -2.1058
  113OSM    C6F11774   3.665   3.789   9.734  0.4415 -0.1542 -0.4907
  113OSM    H6F11775   3.728   3.705   9.699  1.5283 -0.0161  1.0335
  113OSM    H6G11776   3.734   3.869   9.766  1.3005  0.2846 -3.2143
  113OSM    C7F11777   3.569   3.847   9.627  0.3959  0.6452  0.5134
  113OSM    H7F11778   3.542   3.951   9.654  2.7586  0.8103  2.5445
  113OSM    H7G11779   3.476   3.786   9.628  0.2262  0.9099  1.1309
  113OSM    C8F11780   3.607   3.835   9.484  0.1159 -0.3244  0.3927
  113OSM    H8F11781   3.519   3.881   9.434 -1.1047 -1.0404  1.8093
  113OSM    H8G11782   3.623   3.732   9.447  0.1462  0.0259 -0.5802
  113OSM    C9F11783   3.726   3.921   9.445  0.3680  0.0237  0.5891
  113OSM    H9F11784   3.767   3.983   9.526  0.3450 -0.9284  1.3410
  113OSM   C10F11785   3.785   3.904   9.321  0.1209 -0.6310 -0.5853
  113OSM   H10F11786   3.872   3.969   9.305 -0.6214  0.8237  0.8871
  113OSM   C11F11787   3.745   3.814   9.207  0.1600  0.2197 -1.1479
  113OSM   H11F11788   3.679   3.733   9.247 -0.9098  1.4220 -0.4002
  113OSM   H11G11789   3.837   3.767   9.167 -1.1945 -2.5391 -1.2505
  113OSM   C12F11790   3.659   3.883   9.102  0.2829 -0.0088  0.1343
  113OSM   H12F11791   3.719   3.967   9.061 -0.3934 -0.0037 -0.8810
  113OSM   H12G11792   3.569   3.921   9.157 -0.7046  0.3043 -1.6344
  113OSM   C13F11793   3.614   3.799   8.983 -0.6964 -0.9706  0.1550
  113OSM   H13F11794   3.534   3.857   8.934 -0.1277 -0.7732 -0.5628
  113OSM   H13G11795   3.564   3.707   9.021  0.3749 -0.6828  2.3730
  113OSM   C14F11796   3.734   3.760   8.895  0.5948 -0.0210 -0.1112
  113OSM   H14F11797   3.795   3.696   8.963 -1.5557 -0.2785  1.6864
  113OSM   H14G11798   3.786   3.852   8.862  2.8092 -0.8101  0.9495
  113OSM   C15F11799   3.683   3.677   8.774 -0.4912  0.1493 -0.1737
  113OSM   H15F11800   3.597   3.715   8.715 -1.7718  0.8460  2.0362
  113OSM   H15G11801   3.665   3.579   8.823  2.3480 -0.0213  0.7196
  113OSM   C16F11802   3.780   3.641   8.661 -0.3939 -0.1851 -0.0062
  113OSM   H16F11803   3.880   3.613   8.700 -0.0359 -1.3403 -1.6599
  113OSM   H16G11804   3.794   3.739   8.611 -2.8540 -1.1620 -2.9274
  113OSM   C17F11805   3.737   3.540   8.553  0.2343 -1.0006 -0.2355
  113OSM   H17F11806   3.719   3.450   8.615  0.6382 -1.7469 -1.1806
  113OSM   H17G11807   3.819   3.519   8.481  2.1875  0.6804  1.3573
  113OSM   C18F11808   3.611   3.574   8.472  0.4398  0.1765 -0.5315
  113OSM   H18F11809   3.577   3.482   8.419 -0.2066  1.0775 -1.7357
  113OSM   H18G11810   3.626   3.662   8.405  1.5621  0.6451  0.2930
  113OSM   H18H11811   3.521   3.605   8.530 -1.1971  0.1455 -2.9050
  114OSM      N11812   5.079   1.832  11.483  0.1020  0.9766  0.4752
  114OSM    C1511813   5.061   1.802  11.630  0.1974  0.5854  0.8460
  114OSM   H15A11814   4.981   1.730  11.644 -0.6365  1.9282  3.5989
  114OSM   H15B11815   5.030   1.888  11.686  0.6239  0.3511  1.4488
  114OSM   H15C11816   5.148   1.755  11.673  0.1666  0.3554  0.6574
  114OSM    C1411817   5.202   1.913  11.461 -0.0867  0.1559  0.5028
  114OSM   H14A11818   5.212   1.989  11.537  0.6879 -0.6065  1.1827
  114OSM   H14B11819   5.201   1.955  11.362  1.2763  1.0792  0.8518
  114OSM   H14C11820   5.292   1.854  11.468 -0.0671  0.2671  1.2429
  114OSM    C1311821   5.106   1.702  11.409 -0.0309  0.2874  0.0761
  114OSM   H13A11822   5.017   1.641  11.408 -0.3452  0.7274 -0.7064
  114OSM   H13B11823   5.188   1.650  11.455 -0.3326  0.4565  0.8201
  114OSM   H13C11824   5.129   1.725  11.306  0.9415 -2.6000 -0.4186
  114OSM    C1211825   4.950   1.884  11.420 -0.5677 -0.0897 -0.0489
  114OSM   H12A11826   4.925   1.981  11.458 -1.9579 -0.6617  0.5612
  114OSM   H12B11827   4.869   1.816  11.445 -1.5501  1.7167  1.9729
  114OSM    C1111828   4.951   1.908  11.268 -0.1409 -0.2050  0.1329
  114OSM   H11A11829   4.852   1.950  11.239  0.1368 -0.0452 -0.5937
  114OSM   H11B11830   4.951   1.811  11.214 -0.0842 -0.5840  0.7999
  114OSM      P11831   5.050   2.149  11.238  0.2032 -0.0897 -0.2175
  114OSM    O1311832   4.920   2.183  11.298 -0.5437 -0.3719 -0.0204
  114OSM    O1411833   5.172   2.189  11.311 -0.3389 -0.5761  0.1119
  114OSM    O1111834   5.057   2.205  11.081  0.4457  0.5925 -0.0728
  114OSM    O1211835   5.053   1.994  11.220  0.2423 -0.1909  0.2627
  114OSM    C1S11836   5.068   2.110  10.975  0.0558  0.2525  0.3445
  114OSM    H1S11837   4.977   2.046  10.973 -0.3897  0.8850 -0.8437
  114OSM    H1T11838   5.159   2.047  10.984  1.2544  1.8288 -0.1820
  114OSM     NF11839   5.067   2.083  10.726  0.0492 -0.3298  0.2454
  114OSM    HNF11840   5.152   2.048  10.687  0.2503  0.2436  0.1520
  114OSM    C2S11841   5.077   2.183  10.836 -0.5276 -0.0951 -0.0368
  114OSM    H2S11842   4.986   2.246  10.827 -2.4007 -2.2589  2.2929
  114OSM    C3S11843   5.199   2.268  10.818 -0.2784 -0.1839  0.1511
  114OSM    H3S11844   5.287   2.201  10.808  0.0533  0.1546  0.7436
  114OSM     O311845   5.235   2.347  10.933  0.3602 -0.0122  0.2291
  114OSM    HO311846   5.165   2.333  10.997  1.1348  2.2442  1.6652
  114OSM    C4S11847   5.186   2.357  10.695 -0.4147 -0.1979 -0.0131
  114OSM    H4S11848   5.103   2.427  10.708 -0.5343 -0.6278  1.9296
  114OSM    C5S11849   5.254   2.337  10.583 -0.0018  0.3042 -0.2188
  114OSM    H5S11850   5.315   2.246  10.576 -0.1414  0.1857  0.1117
  114OSM    C6S11851   5.248   2.418  10.459  0.4331 -0.2239 -0.3782
  114OSM    H6S11852   5.322   2.501  10.460  0.2690  0.1271 -4.0333
  114OSM    H6T11853   5.142   2.449  10.441 -0.4350 -2.3050  0.7573
  114OSM    C7S11854   5.278   2.339  10.328  0.5838 -0.3016  0.5307
  114OSM    H7S11855   5.202   2.260  10.311 -1.3752  1.7721 -0.8704
  114OSM    H7T11856   5.374   2.285  10.343  0.7823 -0.0734  0.1071
  114OSM    C8S11857   5.275   2.432  10.207 -0.2451  0.6030  0.1680
  114OSM    H8S11858   5.327   2.529  10.221 -1.2810  1.0434  1.0380
  114OSM    H8T11859   5.171   2.457  10.178 -0.2871  2.7715  1.9327
  114OSM    C9S11860   5.336   2.361  10.086  0.2911  0.1699 -0.7500
  114OSM    H9S11861   5.281   2.264  10.089 -2.9013  1.8615  0.8995
  114OSM    H9T11862   5.444   2.342  10.102  0.6524  0.2370 -2.8388
  114OSM   C10S11863   5.304   2.433   9.955 -0.1322 -0.1834 -0.0775
  114OSM   H10S11864   5.331   2.541   9.953  1.4192 -0.5394 -0.0053
  114OSM   H10T11865   5.194   2.423   9.945 -0.0782  0.7622 -2.1994
  114OSM   C11S11866   5.349   2.350   9.830 -0.9109  0.2755 -0.1855
  114OSM   H11S11867   5.313   2.246   9.846 -2.1954  0.9205  1.4614
  114OSM   H11T11868   5.460   2.348   9.839 -0.7230  0.7752 -1.9479
  114OSM   C12S11869   5.313   2.405   9.691  0.3859 -0.1376 -0.0892
  114OSM   H12S11870   5.380   2.493   9.686  0.0198  0.1735  0.3571
  114OSM   H12T11871   5.205   2.431   9.689  0.2069 -0.8134  0.2327
  114OSM   C13S11872   5.347   2.309   9.577 -0.3919  0.6003  0.5548
  114OSM   H13S11873   5.287   2.217   9.594  1.1264 -0.1327  2.3261
  114OSM   H13T11874   5.458   2.297   9.581  0.2147  3.8996 -1.7032
  114OSM   C14S11875   5.296   2.375   9.447  0.1616 -0.1275  0.3523
  114OSM   H14S11876   5.352   2.470   9.434 -0.0214  0.0485  0.8513
  114OSM   H14T11877   5.191   2.401   9.470  0.2488  0.7967 -0.2287
  114OSM   C15S11878   5.315   2.282   9.327 -0.0974  0.5764  0.0159
  114OSM   H15S11879   5.268   2.184   9.349  0.9493  0.2243  0.8042
  114OSM   H15T11880   5.425   2.268   9.315 -0.1681 -0.0974  0.1208
  114OSM   C16S11881   5.252   2.336   9.200 -0.0910 -0.3477 -0.0870
  114OSM   H16S11882   5.300   2.433   9.176 -0.2504  0.3689  2.2529
  114OSM   H16T11883   5.147   2.361   9.229  0.0137 -0.0172 -0.0012
  114OSM   C17S11884   5.257   2.239   9.080 -0.1827  0.6376 -0.0159
  114OSM   H17S11885   5.209   2.144   9.112  0.3350  0.3288 -0.1567
  114OSM   H17T11886   5.362   2.216   9.052  0.3797  2.4611  0.4361
  114OSM   C18S11887   5.189   2.294   8.954  0.4910 -0.1057 -0.1217
  114OSM   H18S11888   5.078   2.306   8.954  0.5737  1.2369 -2.6168
  114OSM   H18T11889   5.218   2.221   8.876  0.1248 -1.2560  0.7866
  114OSM   H18U11890   5.229   2.396   8.935 -1.2005  0.1207 -3.0354
  114OSM    C1F11891   4.956   2.010  10.704 -0.4681 -0.6482 -0.1040
  114OSM     OF11892   4.853   2.037  10.763 -0.2210  0.3507  0.0728
  114OSM    C2F11893   4.963   1.894  10.608  0.2339 -1.0781  0.4253
  114OSM    H2F11894   5.021   1.811  10.653  1.5448 -0.2219  0.3741
  114OSM    H2G11895   5.012   1.923  10.513 -1.8814  0.2012 -0.3359
  114OSM    C3F11896   4.821   1.844  10.568 -0.4541 -0.3717 -0.2896
  114OSM    H3F11897   4.745   1.925  10.559  1.0253  1.6147  2.9728
  114OSM    H3G11898   4.784   1.790  10.658 -1.9079  4.5024  2.4179
  114OSM    C4F11899   4.820   1.755  10.444  0.2644  0.2980  0.2457
  114OSM    H4F11900   4.876   1.661  10.461  1.8459  0.6405 -2.4370
  114OSM    H4G11901   4.876   1.805  10.361  0.8608 -2.0364 -0.8490
  114OSM    C5F11902   4.679   1.726  10.396 -0.4978 -0.6170 -0.4854
  114OSM    H5F11903   4.616   1.814  10.422  2.9302  1.3447  1.9644
  114OSM    H5G11904   4.632   1.639  10.446 -1.7759 -0.6674 -1.7048
  114OSM    C6F11905   4.672   1.700  10.244 -0.0849 -0.1444  0.5532
  114OSM    H6F11906   4.722   1.605  10.217  1.5741 -0.0288  2.9161
  114OSM    H6G11907   4.720   1.791  10.201 -0.9691  0.2543  0.3804
  114OSM    C7F11908   4.523   1.693  10.198  0.8454  0.8442 -0.2082
  114OSM    H7F11909   4.470   1.778  10.246 -0.7009 -0.1889 -0.0253
  114OSM    H7G11910   4.484   1.593  10.229  1.1011  1.1223  1.0608
  114OSM    C8F11911   4.506   1.720  10.042  0.1874  0.2317 -0.1586
  114OSM    H8F11912   4.579   1.795  10.004 -1.3014  0.4152 -2.9843
  114OSM    H8G11913   4.407   1.767  10.024 -1.0061 -1.9459  0.3214
  114OSM    C9F11914   4.532   1.595   9.962  0.3633  1.0278 -0.6050
  114OSM    H9F11915   4.599   1.516   9.999  1.4724  1.2572 -2.0000
  114OSM   C10F11916   4.483   1.565   9.838 -0.1307 -0.2019  0.6361
  114OSM   H10F11917   4.521   1.470   9.797  1.3656  0.4414  0.4661
  114OSM   C11F11918   4.391   1.643   9.744 -0.5390 -0.6375  0.7018
  114OSM   H11F11919   4.464   1.693   9.676 -0.5511 -1.1635  0.2945
  114OSM   H11G11920   4.350   1.727   9.803 -1.4081 -1.9401  2.0087
  114OSM   C12F11921   4.288   1.559   9.668  0.1177 -0.2539 -0.0033
  114OSM   H12F11922   4.217   1.637   9.630 -2.2059 -2.0741  0.3835
  114OSM   H12G11923   4.231   1.509   9.749 -0.1778 -0.9763 -0.6445
  114OSM   C13F11924   4.333   1.466   9.561  0.2628 -0.8525  0.4572
  114OSM   H13F11925   4.238   1.411   9.549 -0.2277 -0.4027  1.9902
  114OSM   H13G11926   4.412   1.401   9.604 -0.5870 -0.1402  3.3217
  114OSM   C14F11927   4.370   1.527   9.422 -0.2425 -0.3462 -0.3204
  114OSM   H14F11928   4.429   1.449   9.369  1.0753  0.8780 -0.7359
  114OSM   H14G11929   4.447   1.607   9.431  1.9988 -2.5116  0.9510
  114OSM   C15F11930   4.251   1.566   9.328  0.3247 -0.4941  0.0207
  114OSM   H15F11931   4.190   1.634   9.391  2.0622 -1.1076  2.5220
  114OSM   H15G11932   4.183   1.479   9.320  0.1453 -0.5352  1.6696
  114OSM   C16F11933   4.297   1.615   9.188  0.1172 -0.5527 -0.5825
  114OSM   H16F11934   4.368   1.539   9.151  0.5001  0.6146 -2.3550
  114OSM   H16G11935   4.346   1.714   9.201  0.4989 -0.4447 -2.5873
  114OSM   C17F11936   4.192   1.632   9.078 -0.1517 -0.4181 -0.3121
  114OSM   H17F11937   4.221   1.710   9.005 -2.5360  1.2261  0.3895
  114OSM   H17G11938   4.100   1.675   9.123 -0.5272 -0.5080 -0.9812
  114OSM   C18F11939   4.153   1.502   9.000 -0.1596  0.1583 -0.0207
  114OSM   H18F11940   4.106   1.439   9.078  1.8764 -1.0875  0.2761
  114OSM   H18G11941   4.235   1.441   8.957 -1.1367 -0.5918 -0.8716
  114OSM   H18H11942   4.086   1.539   8.920  1.2978  2.3055 -0.3326
  115OSM      N11943   5.261   4.959   5.893  0.1215 -0.2859 -0.0367
  115OSM    C1511944   5.153   4.892   5.968  0.5919 -0.3979  0.2340
  115OSM   H15A11945   5.184   4.815   6.037  0.1994  0.0602  0.9440
  115OSM   H15B11946   5.074   4.865   5.901  0.5044  0.5325 -0.0539
  115OSM   H15C11947   5.111   4.968   6.034  0.4708  0.6768 -1.0430
  115OSM    C1411948   5.324   4.855   5.800 -0.5987  0.4966  0.1409
  115OSM   H14A11949   5.246   4.797   5.751 -1.2604  1.0341  0.5422
  115OSM   H14B11950   5.383   4.792   5.865 -0.9479  2.2964  2.2793
  115OSM   H14C11951   5.385   4.902   5.725 -0.2969 -2.5387 -1.7147
  115OSM    C1311952   5.205   5.063   5.800  0.0061 -0.1207  0.3343
  115OSM   H13A11953   5.286   5.117   5.753 -0.3479 -0.3636 -0.5761
  115OSM   H13B11954   5.150   5.145   5.844  0.6916  0.8102 -0.4987
  115OSM   H13C11955   5.133   5.020   5.732 -1.2007 -0.6427  1.8775
  115OSM    C1211956   5.358   5.032   5.983  0.1700  0.0820 -0.1563
  115OSM   H12A11957   5.420   5.086   5.913  0.3951  1.3345  0.9570
  115OSM   H12B11958   5.417   4.961   6.038  1.5650 -1.4842 -3.4304
  115OSM    C1111959   5.304   5.140   6.081  0.6484 -0.3190 -0.6594
  115OSM   H11A11960   5.251   5.214   6.016 -1.9078 -1.3750  0.1019
  115OSM   H11B11961   5.390   5.191   6.128  0.3125  0.5590 -0.9742
  115OSM      P11962   5.265   4.995   6.286  0.1153  0.5227  0.0967
  115OSM    O1311963   5.159   4.975   6.390 -0.0106  0.1535  0.4539
  115OSM    O1411964   5.321   4.872   6.234  0.1150  0.4902  0.3292
  115OSM    O1111965   5.377   5.072   6.360 -0.2278 -0.4026  0.3479
  115OSM    O1211966   5.210   5.089   6.174  0.3425 -0.1031  0.0486
  115OSM    C1S11967   5.355   5.198   6.427 -0.1706  0.1250  0.5348
  115OSM    H1S11968   5.279   5.262   6.378  0.4109  1.1515  0.9392
  115OSM    H1T11969   5.449   5.256   6.415 -0.3413  0.4269  0.6339
  115OSM     NF11970   5.295   5.319   6.620 -0.3587  0.0493 -0.7415
  115OSM    HNF11971   5.368   5.364   6.671 -1.3296 -1.4114  2.1454
  115OSM    C2S11972   5.311   5.185   6.574 -0.5099  0.9886  0.1166
  115OSM    H2S11973   5.211   5.136   6.579 -1.9454  3.3776 -2.2747
  115OSM    C3S11974   5.411   5.110   6.663  0.2713  0.0583  1.3609
  115OSM    H3S11975   5.513   5.151   6.651 -0.5638  1.5078 -1.7079
  115OSM     O311976   5.442   4.971   6.611 -0.2175 -0.3830  0.1939
  115OSM    HO311977   5.406   4.966   6.522  2.7192 -1.5628 -1.0708
  115OSM    C4S11978   5.366   5.115   6.806 -0.0951 -0.0465  0.0953
  115OSM    H4S11979   5.418   5.192   6.864  0.3215  1.2579 -1.8945
  115OSM    C5S11980   5.267   5.042   6.859  0.1239  0.2956 -0.3039
  115OSM    H5S11981   5.222   4.968   6.791  1.3347 -0.7827  0.0311
  115OSM    C6S11982   5.216   5.034   7.004 -0.0936 -0.3743  0.1858
  115OSM    H6S11983   5.114   5.075   6.989 -0.1927 -0.6312  0.1601
  115OSM    H6T11984   5.289   5.089   7.068  3.6054 -1.3201 -2.8177
  115OSM    C7S11985   5.218   4.891   7.067  0.4377 -0.1340  0.3797
  115OSM    H7S11986   5.319   4.846   7.062 -0.5337 -2.4600  0.4871
  115OSM    H7T11987   5.141   4.829   7.017  0.5513  0.6461 -0.7962
  115OSM    C8S11988   5.192   4.892   7.220  0.3759 -0.1829  0.2325
  115OSM    H8S11989   5.117   4.967   7.253  1.1116  0.5721  0.1984
  115OSM    H8T11990   5.284   4.927   7.270  0.8308 -0.6929 -0.2336
  115OSM    C9S11991   5.173   4.756   7.279  0.2593 -0.1965 -0.2972
  115OSM    H9S11992   5.255   4.689   7.246  2.5826  1.6453  1.4981
  115OSM    H9T11993   5.084   4.713   7.226  0.7603 -3.0557  0.9659
  115OSM   C10S11994   5.150   4.749   7.431 -0.4574 -0.3266 -0.1883
  115OSM   H10S11995   5.234   4.801   7.482 -0.0064  1.6086 -2.7359
  115OSM   H10T11996   5.157   4.645   7.471  0.3403  1.1325  4.0355
  115OSM   C11S11997   5.018   4.801   7.494  0.2681  0.1024 -0.1719
  115OSM   H11S11998   4.940   4.752   7.432 -0.4012 -1.2385  1.6389
  115OSM   H11T11999   4.998   4.909   7.482 -0.1788 -0.0011 -0.3799
  115OSM   C12S12000   5.002   4.762   7.644  0.9660  0.2209 -0.3071
  115OSM   H12S12001   5.091   4.799   7.698  1.4070 -1.6775  0.3373
  115OSM   H12T12002   5.013   4.653   7.663  0.5582  0.5398  2.1414
  115OSM   C13S12003   4.874   4.800   7.721 -0.0514 -0.0917  0.3261
  115OSM   H13S12004   4.839   4.729   7.799  1.6540 -0.5293  0.7393
  115OSM   H13T12005   4.794   4.783   7.646  0.1428 -0.6932  0.2454
  115OSM   C14S12006   4.876   4.947   7.776 -0.0473 -0.8082  0.1931
  115OSM   H14S12007   4.778   4.997   7.788 -0.6294 -1.3675 -1.8408
  115OSM   H14T12008   4.925   5.000   7.692 -3.2662  1.1956 -0.5926
  115OSM   C15S12009   4.950   4.952   7.910 -0.2293  0.2322 -0.6130
  115OSM   H15S12010   5.042   4.892   7.893 -0.2594  0.1265 -0.4146
  115OSM   H15T12011   4.881   4.896   7.978 -0.3188  3.1895  1.9618
  115OSM   C16S12012   4.979   5.086   7.965 -0.8035 -1.1771  0.4274
  115OSM   H16S12013   4.889   5.150   7.975 -1.8647 -2.3151 -1.2048
  115OSM   H16T12014   5.057   5.136   7.904 -1.0917  0.1424  1.1100
  115OSM   C17S12015   5.041   5.076   8.111  0.5441 -0.5159 -0.0952
  115OSM   H17S12016   5.038   5.181   8.148 -1.4125 -0.2608 -0.8596
  115OSM   H17T12017   5.147   5.049   8.093  0.9078  0.7138  0.1339
  115OSM   C18S12018   4.973   4.987   8.214 -0.4794 -0.1059 -0.8217
  115OSM   H18S12019   5.040   4.955   8.297 -1.4969 -1.2423 -0.3925
  115OSM   H18T12020   4.927   4.897   8.167 -0.9484  0.2474 -1.0425
  115OSM   H18U12021   4.886   5.033   8.266  0.5990 -0.4636  1.4434
  115OSM    C1F12022   5.204   5.404   6.572 -0.5906 -0.0872 -0.5416
  115OSM     OF12023   5.101   5.356   6.516  0.1802 -0.3412 -0.3462
  115OSM    C2F12024   5.219   5.564   6.581 -0.2726  0.2462 -0.4219
  115OSM    H2F12025   5.248   5.601   6.481 -4.2522  1.5289 -1.2796
  115OSM    H2G12026   5.299   5.578   6.657 -1.7976  1.4135  1.0639
  115OSM    C3F12027   5.086   5.637   6.605  0.5127 -0.6788 -1.3980
  115OSM    H3F12028   5.036   5.590   6.693 -0.7475 -0.3626 -1.9299
  115OSM    H3G12029   5.023   5.621   6.515  1.9344  1.3084 -2.8372
  115OSM    C4F12030   5.096   5.789   6.649  0.1840 -0.0665 -0.3608
  115OSM    H4F12031   4.992   5.814   6.676  0.4852 -0.4379  1.2006
  115OSM    H4G12032   5.122   5.841   6.554  0.2135 -0.6992 -0.7043
  115OSM    C5F12033   5.198   5.816   6.753 -0.0459  0.0243  0.0528
  115OSM    H5F12034   5.293   5.762   6.731 -0.0372  0.9761 -2.5917
  115OSM    H5G12035   5.159   5.766   6.845  1.5375 -0.1233  0.6743
  115OSM    C6F12036   5.207   5.964   6.784 -0.4599  0.5038 -0.8194
  115OSM    H6F12037   5.261   6.006   6.697  1.0224  0.4627  0.0416
  115OSM    H6G12038   5.262   5.989   6.877 -2.1616  3.1580 -0.3969
  115OSM    C7F12039   5.073   6.044   6.793 -0.6864  0.0684  0.2759
  115OSM    H7F12040   4.995   5.983   6.845  0.8780 -0.6723  1.8704
  115OSM    H7G12041   5.051   6.072   6.688  2.4760  0.3941 -0.3880
  115OSM    C8F12042   5.099   6.177   6.867  0.8535  0.4308 -1.0311
  115OSM    H8F12043   5.185   6.232   6.823  0.8387  0.3859 -1.1172
  115OSM    H8G12044   5.129   6.146   6.969 -1.4579  1.4552  0.0324
  115OSM    C9F12045   4.967   6.255   6.873 -0.0738 -0.0235 -0.3678
  115OSM    H9F12046   4.931   6.292   6.776 -0.8390 -0.2470 -0.1778
  115OSM   C10F12047   4.896   6.285   6.980  0.2745 -0.3549  0.2297
  115OSM   H10F12048   4.801   6.339   6.971  1.1167  1.3645  1.1322
  115OSM   C11F12049   4.932   6.257   7.120  0.3036 -0.1497 -0.1167
  115OSM   H11F12050   4.992   6.339   7.166  3.5549 -2.0338 -0.7472
  115OSM   H11G12051   4.985   6.160   7.131 -0.5148 -0.3591  3.0641
  115OSM   C12F12052   4.804   6.239   7.205  1.4501  0.4557 -0.2666
  115OSM   H12F12053   4.753   6.143   7.184  1.0383  0.3703  1.0096
  115OSM   H12G12054   4.730   6.318   7.183  0.0438 -0.8178 -0.2696
  115OSM   C13F12055   4.839   6.240   7.360  0.6722  0.3018  0.0548
  115OSM   H13F12056   4.746   6.250   7.420 -0.8906 -0.7124 -2.0402
  115OSM   H13G12057   4.916   6.318   7.378  1.8450 -0.5896 -0.9236
  115OSM   C14F12058   4.910   6.106   7.386 -0.3066 -0.2484 -0.1844
  115OSM   H14F12059   5.008   6.097   7.334 -0.1936  0.0750 -0.0319
  115OSM   H14G12060   4.834   6.032   7.354 -0.1007 -1.7653  2.5693
  115OSM   C15F12061   4.923   6.075   7.540  0.4470  0.2778 -0.4389
  115OSM   H15F12062   4.983   5.982   7.552 -2.1069 -1.3454  0.4779
  115OSM   H15G12063   4.820   6.044   7.568 -0.3927  0.8857 -2.6236
  115OSM   C16F12064   4.956   6.190   7.636  0.0136  0.0158 -0.5138
  115OSM   H16F12065   4.887   6.272   7.606 -0.8559 -0.3715  0.3584
  115OSM   H16G12066   5.060   6.229   7.632  0.6543 -1.5770 -0.4666
  115OSM   C17F12067   4.920   6.156   7.777  0.3207 -0.0844 -1.1022
  115OSM   H17F12068   4.944   6.049   7.799 -3.6372 -0.8548  0.2429
  115OSM   H17G12069   4.810   6.158   7.793  0.0814 -2.4754 -2.0123
  115OSM   C18F12070   4.984   6.233   7.892  0.1773 -0.1801 -0.1725
  115OSM   H18F12071   4.923   6.219   7.984 -0.7682  1.9166 -0.4357
  115OSM   H18G12072   4.982   6.341   7.867  0.2394 -0.4214 -1.2371
  115OSM   H18H12073   5.086   6.196   7.920 -0.0954 -0.1052  0.9823
  116OSM      N12074   6.495   3.405   6.128  0.1008 -0.0061 -0.7892
  116OSM    C1512075   6.421   3.535   6.101 -0.7670  0.7289 -0.2637
  116OSM   H15A12076   6.399   3.589   6.192  0.8026  2.4293 -0.8411
  116OSM   H15B12077   6.348   3.530   6.021  0.0732  1.4840 -1.0874
  116OSM   H15C12078   6.487   3.607   6.057  1.5740 -0.7132  0.7150
  116OSM    C1412079   6.397   3.302   6.180 -0.0657  0.3610  0.9797
  116OSM   H14A12080   6.447   3.209   6.205  0.3352  0.6553  1.2681
  116OSM   H14B12081   6.331   3.294   6.095  0.2990  1.0580  0.6246
  116OSM   H14C12082   6.342   3.333   6.268 -1.3195  0.0892  0.3253
  116OSM    C1312083   6.561   3.363   5.998 -0.2544  0.7881 -0.5851
  116OSM   H13A12084   6.499   3.375   5.910 -1.3733  1.5813  0.2891
  116OSM   H13B12085   6.588   3.259   6.002 -0.5835  0.7478  1.0994
  116OSM   H13C12086   6.659   3.407   5.985  1.0582 -1.8242 -0.3014
  116OSM    C1212087   6.604   3.434   6.232 -0.2361  0.2216 -0.3797
  116OSM   H12A12088   6.559   3.480   6.319 -3.0662 -2.0615 -0.4942
  116OSM   H12B12089   6.687   3.495   6.199  1.7269 -0.5006  2.7849
  116OSM    C1112090   6.677   3.307   6.299 -0.0097  0.2201 -1.0316
  116OSM   H11A12091   6.596   3.239   6.335  0.9800 -1.3001 -1.5526
  116OSM   H11B12092   6.738   3.342   6.385  0.6583 -3.6891  0.2824
  116OSM      P12093   6.899   3.295   6.151  0.4136 -0.1690 -0.0967
  116OSM    O1312094   6.939   3.228   6.024  0.0373  0.1633  0.2730
  116OSM    O1412095   6.879   3.444   6.142 -0.2147  0.3137 -0.2430
  116OSM    O1112096   7.021   3.271   6.251  0.1112 -0.3383 -0.4618
  116OSM    O1212097   6.757   3.236   6.205 -0.1479 -0.0463  0.5944
  116OSM    C1S12098   7.007   3.278   6.394  0.0332 -0.0129  0.0683
  116OSM    H1S12099   6.916   3.223   6.427  0.6823 -0.9017  0.4209
  116OSM    H1T12100   7.010   3.380   6.438  0.8813 -0.2356  0.5499
  116OSM     NF12101   7.090   3.206   6.621 -0.3284  0.4218 -0.1817
  116OSM    HNF12102   7.148   3.256   6.685  0.6509  2.3305 -2.3985
  116OSM    C2S12103   7.123   3.207   6.477  0.6253  0.4030 -0.5994
  116OSM    H2S12104   7.124   3.100   6.445 -1.7008  0.7676 -2.1700
  116OSM    C3S12105   7.254   3.281   6.446 -0.0082  0.0288  0.1583
  116OSM    H3S12106   7.260   3.388   6.474  0.8590  0.4939 -1.6362
  116OSM     O312107   7.285   3.282   6.311  0.2970  0.2298  0.7562
  116OSM    HO312108   7.204   3.259   6.265 -0.1830  0.9212  1.2341
  116OSM    C4S12109   7.368   3.216   6.523 -0.0809  0.0189 -0.2533
  116OSM    H4S12110   7.397   3.282   6.607  1.4001 -0.7771 -0.0902
  116OSM    C5S12111   7.440   3.099   6.509 -0.7014 -0.4159 -0.6861
  116OSM    H5S12112   7.408   3.047   6.417 -2.9042 -0.2353 -0.0885
  116OSM    C6S12113   7.559   3.053   6.588 -0.9280 -0.5353  0.4062
  116OSM    H6S12114   7.631   3.041   6.504 -0.1212  1.4345  0.7472
  116OSM    H6T12115   7.534   2.954   6.632  0.5739 -1.6573 -1.1756
  116OSM    C7S12116   7.617   3.146   6.695  0.6957  0.0634  0.2544
  116OSM    H7S12117   7.598   3.251   6.665 -1.6635  1.0315  4.3672
  116OSM    H7T12118   7.727   3.134   6.701  1.0792  3.4257  1.6052
  116OSM    C8S12119   7.556   3.114   6.833 -0.0446  0.1534  0.1883
  116OSM    H8S12120   7.586   3.009   6.852 -1.6195  0.0577  2.5603
  116OSM    H8T12121   7.446   3.118   6.845 -0.0016 -1.1033  1.1302
  116OSM    C9S12122   7.629   3.202   6.942 -1.0333  0.3178 -0.6091
  116OSM    H9S12123   7.592   3.306   6.932 -0.6375  0.3404 -2.2688
  116OSM    H9T12124   7.735   3.219   6.913 -1.2656  1.2487 -0.9794
  116OSM   C10S12125   7.607   3.133   7.080  0.2552  0.3268  0.0644
  116OSM   H10S12126   7.631   3.025   7.077 -1.1491 -0.0178 -2.9356
  116OSM   H10T12127   7.498   3.131   7.103 -0.7193  1.2773 -3.7136
  116OSM   C11S12128   7.679   3.209   7.189  0.5886  0.0521 -0.3747
  116OSM   H11S12129   7.629   3.309   7.191 -0.1050 -0.2768 -0.9884
  116OSM   H11T12130   7.788   3.214   7.168  0.2151 -0.9860 -2.8766
  116OSM   C12S12131   7.668   3.138   7.328 -0.3529  0.5555  1.1774
  116OSM   H12S12132   7.701   3.032   7.326 -1.4470  0.1972  1.1267
  116OSM   H12T12133   7.559   3.139   7.351 -1.0225 -1.1331 -1.5463
  116OSM   C13S12134   7.735   3.213   7.443 -0.0818 -0.4428  0.1953
  116OSM   H13S12135   7.711   3.322   7.446  1.8933  0.0519 -0.5955
  116OSM   H13T12136   7.845   3.202   7.431 -0.3128 -0.4622 -2.7873
  116OSM   C14S12137   7.703   3.137   7.569 -0.1853 -0.5957 -0.1630
  116OSM   H14S12138   7.750   3.039   7.589 -2.1721 -1.5929 -0.0585
  116OSM   H14T12139   7.592   3.135   7.582 -0.4817 -1.0416 -2.2831
  116OSM   C15S12140   7.761   3.211   7.692 -0.5012  0.0979 -0.1138
  116OSM   H15S12141   7.709   3.309   7.706  2.1965  1.2210  3.5071
  116OSM   H15T12142   7.868   3.212   7.662 -0.0444 -1.3042  1.3426
  116OSM   C16S12143   7.752   3.138   7.828 -0.9349  0.2651 -0.0299
  116OSM   H16S12144   7.778   3.032   7.809  2.1545  0.9137  0.0174
  116OSM   H16T12145   7.656   3.140   7.883 -1.1440  0.2579 -0.3950
  116OSM   C17S12146   7.869   3.184   7.923  0.6332  0.3567 -0.0898
  116OSM   H17S12147   7.842   3.287   7.954 -0.1530  0.7318 -1.8688
  116OSM   H17T12148   7.965   3.193   7.868  1.0359 -0.0624  0.5297
  116OSM   C18S12149   7.888   3.091   8.041 -0.2519 -0.0188 -0.0009
  116OSM   H18S12150   7.789   3.086   8.092 -2.7607 -1.2982 -4.4293
  116OSM   H18T12151   7.974   3.129   8.100  0.3412 -0.6903 -0.4162
  116OSM   H18U12152   7.921   2.989   8.012 -0.7470  0.1786 -1.2945
  116OSM    C1F12153   6.982   3.147   6.669  0.4683  0.4094  0.1275
  116OSM     OF12154   6.916   3.068   6.597  1.0012  0.4409  0.1094
  116OSM    C2F12155   6.951   3.166   6.810  0.0901  0.0410 -0.2982
  116OSM    H2F12156   6.977   3.269   6.845  0.6331 -0.4687  0.8615
  116OSM    H2G12157   7.031   3.113   6.865  0.0529  1.2078  0.9517
  116OSM    C3F12158   6.816   3.111   6.867  0.1378 -0.0730  0.0359
  116OSM    H3F12159   6.813   2.999   6.870 -0.6454 -0.0920 -0.9192
  116OSM    H3G12160   6.741   3.145   6.792  1.4474 -1.3429 -1.9605
  116OSM    C4F12161   6.786   3.174   7.003  0.2703  0.4841  0.7469
  116OSM    H4F12162   6.684   3.137   7.026 -0.4796  2.2573  0.4178
  116OSM    H4G12163   6.781   3.285   7.005  1.8271  0.6623 -1.4857
  116OSM    C5F12164   6.891   3.141   7.119  0.7566  0.0798  0.9314
  116OSM    H5F12165   6.975   3.212   7.104 -2.1027  3.6600  0.6126
  116OSM    H5G12166   6.930   3.037   7.114  2.8489  0.6667  3.3706
  116OSM    C6F12167   6.825   3.171   7.248 -0.3132 -0.1760 -0.3460
  116OSM    H6F12168   6.751   3.090   7.262  1.8907 -2.4204 -0.8772
  116OSM    H6G12169   6.780   3.272   7.241 -1.2226 -0.3099  2.5603
  116OSM    C7F12170   6.927   3.177   7.366  0.0550 -0.5611  0.1105
  116OSM    H7F12171   6.998   3.262   7.353  0.6640 -1.1566 -0.5065
  116OSM    H7G12172   6.985   3.083   7.357  0.0842 -0.6110  0.7773
  116OSM    C8F12173   6.859   3.194   7.504 -0.7770 -0.0092 -0.3757
  116OSM    H8F12174   6.932   3.162   7.582 -1.6280 -1.8257 -0.2894
  116OSM    H8G12175   6.774   3.124   7.519 -0.4405  0.0908  2.8532
  116OSM    C9F12176   6.785   3.323   7.531 -0.0445 -0.3688 -0.1183
  116OSM    H9F12177   6.687   3.346   7.488 -1.5516 -0.9951  2.7353
  116OSM   C10F12178   6.832   3.413   7.618  0.0026 -0.3875  0.2747
  116OSM   H10F12179   6.769   3.502   7.632 -0.5227 -0.9608  1.8131
  116OSM   C11F12180   6.961   3.405   7.697  0.0959  0.3052  0.4624
  116OSM   H11F12181   6.999   3.501   7.737 -0.0103 -0.0197  1.3618
  116OSM   H11G12182   7.037   3.372   7.623 -0.2265  0.4866  0.0428
  116OSM   C12F12183   6.948   3.312   7.820 -0.5280  0.1965  0.2376
  116OSM   H12F12184   7.053   3.300   7.854 -0.4208  0.5221  0.0242
  116OSM   H12G12185   6.907   3.211   7.795  1.3464 -0.6289  0.3755
  116OSM   C13F12186   6.868   3.379   7.935  0.0929 -0.3332 -0.4067
  116OSM   H13F12187   6.850   3.314   8.023 -1.8510  1.3600  0.5538
  116OSM   H13G12188   6.771   3.421   7.900  1.2090  1.9331 -1.0120
  116OSM   C14F12189   6.926   3.512   8.002 -0.7311 -0.2607  0.2062
  116OSM   H14F12190   6.840   3.547   8.061 -1.0611  0.5488 -0.7203
  116OSM   H14G12191   6.953   3.577   7.916  0.7868 -1.7336 -0.5074
  116OSM   C15F12192   7.053   3.491   8.085  0.5132 -0.0264 -0.0717
  116OSM   H15F12193   7.134   3.457   8.017 -1.5595 -0.2578 -2.6165
  116OSM   H15G12194   7.027   3.412   8.159 -0.1999  0.5239  0.2836
  116OSM   C16F12195   7.091   3.617   8.161  0.0554 -0.0614 -0.4241
  116OSM   H16F12196   7.001   3.680   8.178  0.0830 -0.0138 -0.4548
  116OSM   H16G12197   7.151   3.684   8.095  1.3286  1.1875  1.8843
  116OSM   C17F12198   7.152   3.585   8.302 -0.7147 -0.3814 -0.5268
  116OSM   H17F12199   7.255   3.545   8.290 -0.5842 -0.1234 -0.2815
  116OSM   H17G12200   7.100   3.498   8.348  1.5869 -1.5681 -0.0391
  116OSM   C18F12201   7.166   3.706   8.404  0.6524 -0.3471 -0.1470
  116OSM   H18F12202   7.225   3.783   8.350  0.7323  0.0316  0.4803
  116OSM   H18G12203   7.210   3.668   8.498 -0.0387 -1.5425 -0.2796
  116OSM   H18H12204   7.066   3.754   8.415  1.1912  0.5952  0.7477
  117OSM      N12205   2.490   0.483   6.368  0.6958  0.0046 -0.2422
  117OSM    C1512206   2.515   0.375   6.461  0.7070  0.3040  0.3249
  117OSM   H15A12207   2.430   0.361   6.526  0.2150 -1.5577 -0.6462
  117OSM   H15B12208   2.602   0.383   6.523  0.7264  1.6532  0.1444
  117OSM   H15C12209   2.519   0.278   6.412 -1.4337 -0.1664  0.9649
  117OSM    C1412210   2.630   0.510   6.310  0.4320  0.2358 -0.1080
  117OSM   H14A12211   2.691   0.566   6.379 -1.1609  1.4981  0.3515
  117OSM   H14B12212   2.619   0.572   6.222 -0.7246  0.0774 -0.0965
  117OSM   H14C12213   2.674   0.416   6.280 -1.1685  0.1336 -2.3942
  117OSM    C1312214   2.386   0.454   6.263  0.4727 -0.2596  0.0627
  117OSM   H13A12215   2.289   0.426   6.302 -0.8143  1.1540 -1.9211
  117OSM   H13B12216   2.427   0.374   6.203  0.0349 -0.2524 -0.2486
  117OSM   H13C12217   2.369   0.537   6.197  0.3618  0.3120  0.8035
  117OSM    C1212218   2.446   0.607   6.445  0.4698 -0.0637 -0.3984
  117OSM   H12A12219   2.508   0.616   6.532 -1.0313 -0.5096  0.7538
  117OSM   H12B12220   2.344   0.599   6.481  0.4311  1.6419 -0.0658
  117OSM    C1112221   2.456   0.751   6.381  0.1433  0.9172 -0.1411
  117OSM   H11A12222   2.564   0.778   6.372  0.0288  1.4583  0.0889
  117OSM   H11B12223   2.421   0.825   6.456  2.4588  2.7790 -0.7777
  117OSM      P12224   2.220   0.786   6.255  0.2834  0.3578 -0.1161
  117OSM    O1312225   2.187   0.895   6.165  0.8697 -0.0471  0.7845
  117OSM    O1412226   2.155   0.656   6.234  0.1499 -1.0459  0.1055
  117OSM    O1112227   2.184   0.824   6.398 -0.5650  0.4273  0.2207
  117OSM    O1212228   2.381   0.765   6.260  0.4277  0.1170 -0.1611
  117OSM    C1S12229   2.047   0.835   6.439  0.4772 -0.3388  0.4391
  117OSM    H1S12230   1.995   0.759   6.376  1.2544 -0.4190 -0.1292
  117OSM    H1T12231   2.008   0.937   6.419  1.7686 -0.1973 -1.6530
  117OSM     NF12232   1.882   0.762   6.601  0.2706 -1.1348  0.1928
  117OSM    HNF12233   1.825   0.831   6.646  0.1586 -1.3812  0.4310
  117OSM    C2S12234   2.024   0.794   6.587  0.6555  0.5320  0.3584
  117OSM    H2S12235   2.074   0.696   6.602  0.8721  0.4704 -0.6918
  117OSM    C3S12236   2.078   0.906   6.683 -0.0631 -0.2256 -0.4481
  117OSM    H3S12237   2.037   1.006   6.657  2.7787  1.3740  0.6792
  117OSM     O312238   2.221   0.924   6.660  0.4781 -0.1978  0.0754
  117OSM    HO312239   2.238   0.907   6.567  1.1222  2.4759 -0.3687
  117OSM    C4S12240   2.059   0.874   6.829 -0.7357 -0.2731 -0.2259
  117OSM    H4S12241   2.116   0.790   6.871 -0.6291 -0.5182 -0.8578
  117OSM    C5S12242   1.977   0.948   6.913  0.4016  0.0773  0.5158
  117OSM    H5S12243   1.919   1.030   6.869  0.1576 -2.4180 -4.5341
  117OSM    C6S12244   1.951   0.917   7.058  0.1559 -0.7698  0.8330
  117OSM    H6S12245   1.845   0.887   7.072 -0.5013  1.2941  0.5530
  117OSM    H6T12246   1.955   1.016   7.107  1.2040  0.4463 -1.5715
  117OSM    C7S12247   2.046   0.834   7.130 -0.1172 -0.0028 -0.0553
  117OSM    H7S12248   2.148   0.874   7.112 -0.8923  0.8865 -2.8964
  117OSM    H7T12249   2.064   0.736   7.081 -2.6227 -0.8067  0.5011
  117OSM    C8S12250   2.002   0.808   7.274 -0.2826  0.6134  0.4910
  117OSM    H8S12251   1.900   0.766   7.272 -0.7980  1.7172 -2.9511
  117OSM    H8T12252   1.980   0.904   7.326 -3.0332 -0.8475  2.2852
  117OSM    C9S12253   2.117   0.738   7.346  0.6994 -0.0362  0.1459
  117OSM    H9S12254   2.205   0.804   7.334  1.6197 -1.4397 -1.3244
  117OSM    H9T12255   2.148   0.645   7.294 -0.1601 -0.8344  1.0303
  117OSM   C10S12256   2.095   0.720   7.495  0.6142 -0.1724 -0.1301
  117OSM   H10S12257   2.023   0.636   7.504  1.8685 -1.3555 -0.8082
  117OSM   H10T12258   2.040   0.812   7.525 -0.0752 -0.2856 -0.9880
  117OSM   C11S12259   2.214   0.695   7.576  0.0012 -0.0441 -0.1577
  117OSM   H11S12260   2.290   0.771   7.549 -0.7230  0.9736  0.6077
  117OSM   H11T12261   2.258   0.595   7.555 -0.3885 -0.2784  0.1340
  117OSM   C12S12262   2.176   0.686   7.724  0.0384 -0.3972  0.6558
  117OSM   H12S12263   2.111   0.599   7.745  0.9010 -0.3474  4.1185
  117OSM   H12T12264   2.141   0.787   7.755  0.5742  0.0412 -0.1206
  117OSM   C13S12265   2.291   0.650   7.812  0.2005  0.0406  0.0074
  117OSM   H13S12266   2.379   0.710   7.781  0.9575 -0.2005  1.5987
  117OSM   H13T12267   2.321   0.550   7.773  1.1359 -0.9737  3.0109
  117OSM   C14S12268   2.254   0.651   7.959 -0.4099 -0.3833 -0.4645
  117OSM   H14S12269   2.161   0.591   7.972  0.4198 -1.7508 -0.6890
  117OSM   H14T12270   2.230   0.756   7.987  1.1888 -0.2759  0.5946
  117OSM   C15S12271   2.359   0.601   8.055  0.4299 -0.6978 -0.8440
  117OSM   H15S12272   2.452   0.658   8.038  1.1450 -1.4122  0.5088
  117OSM   H15T12273   2.374   0.492   8.037  0.7501 -1.1152  1.5636
  117OSM   C16S12274   2.323   0.633   8.200  0.1690 -0.4670 -1.0871
  117OSM   H16S12275   2.214   0.622   8.220 -0.1148 -0.7076 -2.6398
  117OSM   H16T12276   2.352   0.740   8.207 -1.1950 -0.2084  1.6287
  117OSM   C17S12277   2.391   0.554   8.314 -0.2399 -0.0384 -0.2123
  117OSM   H17S12278   2.350   0.590   8.410 -1.6252 -1.3696 -0.2880
  117OSM   H17T12279   2.501   0.569   8.321  0.3715 -3.8370  0.0678
  117OSM   C18S12280   2.377   0.402   8.290 -0.3744  0.2943  0.4976
  117OSM   H18S12281   2.442   0.369   8.205  1.2631  0.7004  1.5381
  117OSM   H18T12282   2.269   0.385   8.275 -0.5195  0.3629  1.4549
  117OSM   H18U12283   2.397   0.344   8.382 -4.5951  0.9875  2.0596
  117OSM    C1F12284   1.818   0.658   6.536 -0.8998  0.5748 -0.3070
  117OSM     OF12285   1.876   0.553   6.499 -0.1995 -0.4951 -0.4613
  117OSM    C2F12286   1.674   0.670   6.521 -0.4760  0.2058 -0.3534
  117OSM    H2F12287   1.648   0.671   6.413 -0.4825  0.8687 -0.3491
  117OSM    H2G12288   1.626   0.761   6.564 -0.5927  0.4603 -1.0149
  117OSM    C3F12289   1.600   0.555   6.594 -0.0563  0.0991  1.1606
  117OSM    H3F12290   1.637   0.458   6.552  0.6554  0.6012  0.6000
  117OSM    H3G12291   1.492   0.557   6.570 -0.0145 -1.1164  0.8049
  117OSM    C4F12292   1.637   0.545   6.745  0.0681 -0.1922  0.0815
  117OSM    H4F12293   1.745   0.517   6.744  0.1517  0.1148  0.5136
  117OSM    H4G12294   1.603   0.447   6.784  0.5607 -0.1914  0.5216
  117OSM    C5F12295   1.598   0.663   6.838  0.4072 -0.1443  0.0747
  117OSM    H5F12296   1.487   0.662   6.836  0.4127 -0.3553 -0.2721
  117OSM    H5G12297   1.636   0.751   6.782 -2.4153  0.5344 -0.9811
  117OSM    C6F12298   1.661   0.647   6.979  0.9867  0.0561 -0.3097
  117OSM    H6F12299   1.627   0.736   7.037 -1.3080 -0.8817 -0.1458
  117OSM    H6G12300   1.772   0.660   6.973  0.8472  1.4359 -0.3607
  117OSM    C7F12301   1.597   0.524   7.049 -0.5212  0.2932 -0.0081
  117OSM    H7F12302   1.622   0.429   6.997  0.1891  1.9434 -2.9277
  117OSM    H7G12303   1.487   0.542   7.053 -0.6931 -0.8509  1.6532
  117OSM    C8F12304   1.641   0.510   7.198  0.7893  0.5579  0.6632
  117OSM    H8F12305   1.750   0.500   7.214  0.8264  1.6272  1.1268
  117OSM    H8G12306   1.607   0.409   7.230  0.4628  0.1774 -0.8019
  117OSM    C9F12307   1.584   0.608   7.291 -0.3731  0.7059  0.1728
  117OSM    H9F12308   1.492   0.654   7.253 -0.6096 -1.4410 -2.0924
  117OSM   C10F12309   1.624   0.636   7.417  0.6139 -0.2688  0.1355
  117OSM   H10F12310   1.560   0.714   7.460  0.1833 -1.7691  2.4164
  117OSM   C11F12311   1.745   0.578   7.487  0.1312 -0.0809 -0.5899
  117OSM   H11F12312   1.813   0.667   7.492 -0.8085  0.6183  0.0821
  117OSM   H11G12313   1.809   0.496   7.447 -0.2680 -1.5474  1.5703
  117OSM   C12F12314   1.702   0.541   7.621  0.1948 -0.2870 -0.5587
  117OSM   H12F12315   1.633   0.455   7.606 -1.6689  0.7534  1.3268
  117OSM   H12G12316   1.631   0.600   7.684 -0.9146 -0.6325 -1.4519
  117OSM   C13F12317   1.810   0.496   7.712 -0.2244 -0.0526 -0.0259
  117OSM   H13F12318   1.855   0.587   7.757 -0.7095 -0.8478  2.2458
  117OSM   H13G12319   1.879   0.427   7.659 -1.5770  0.3016 -2.3473
  117OSM   C14F12320   1.741   0.415   7.823 -0.0784  0.0879  0.2870
  117OSM   H14F12321   1.704   0.319   7.780 -2.3964  2.0238 -2.4202
  117OSM   H14G12322   1.649   0.461   7.864 -0.7194 -0.3353 -0.6322
  117OSM   C15F12323   1.843   0.390   7.938 -1.0743 -0.0320 -0.9071
  117OSM   H15F12324   1.870   0.478   8.000 -0.0439 -0.7854 -0.2540
  117OSM   H15G12325   1.933   0.342   7.893 -0.7184  1.7812 -2.2466
  117OSM   C16F12326   1.792   0.280   8.045  0.0817  0.6581  0.8306
  117OSM   H16F12327   1.764   0.180   8.007 -0.9032  0.0580  3.0102
  117OSM   H16G12328   1.705   0.329   8.093  0.4611  0.5239  1.6823
  117OSM   C17F12329   1.889   0.242   8.152 -0.2231  0.4707 -0.1296
  117OSM   H17F12330   1.972   0.190   8.098  0.2759  1.8598 -0.7617
  117OSM   H17G12331   1.934   0.332   8.200  0.5183  0.9548 -1.6444
  117OSM   C18F12332   1.830   0.151   8.254 -0.0863  0.1950 -0.1021
  117OSM   H18F12333   1.902   0.123   8.334 -1.5539 -1.2236  0.7893
  117OSM   H18G12334   1.795   0.053   8.218  0.4527 -1.0988  2.6111
  117OSM   H18H12335   1.737   0.193   8.300  0.9250 -1.9084  4.4499
  118OSM      N12336   5.139   0.146   6.032 -0.0492 -0.3774 -0.2412
  118OSM    C1512337   5.241   0.196   5.932  0.3754 -0.1552  0.1519
  118OSM   H15A12338   5.198   0.238   5.842  0.0226  2.0572  1.2807
  118OSM   H15B12339   5.318   0.126   5.905  2.7320  2.4313 -0.2817
  118OSM   H15C12340   5.298   0.279   5.970  0.9008 -0.6316  0.4156
  118OSM    C1412341   5.084   0.020   5.990 -0.5502  0.8564 -0.1390
  118OSM   H14A12342   5.003  -0.002   6.058 -0.4704  0.1090 -0.2731
  118OSM   H14B12343   5.152  -0.062   6.010 -1.6610  0.1102  0.7386
  118OSM   H14C12344   5.052   0.004   5.888 -0.3692 -2.3171  0.2078
  118OSM    C1312345   5.205   0.126   6.166  0.0205 -0.7660  0.4522
  118OSM   H13A12346   5.253   0.220   6.185 -0.8709  0.0992 -1.3555
  118OSM   H13B12347   5.279   0.047   6.166 -0.9806 -1.8921 -2.8297
  118OSM   H13C12348   5.133   0.114   6.245 -0.7347  0.0049 -0.1025
  118OSM    C1212349   5.025   0.246   6.048 -0.3132 -0.5126 -0.3694
  118OSM   H12A12350   4.990   0.270   5.949  0.5176  1.9422 -0.1493
  118OSM   H12B12351   5.069   0.339   6.083 -2.9661  0.4121  0.8119
  118OSM    C1112352   4.910   0.215   6.147 -0.6411  1.0539 -0.5213
  118OSM   H11A12353   4.834   0.296   6.152  2.3910  4.0962  0.3188
  118OSM   H11B12354   4.961   0.234   6.245 -0.4663  1.8062 -0.7516
  118OSM      P12355   4.729   0.058   6.057 -0.1226 -0.0556  0.0379
  118OSM    O1312356   4.732   0.113   5.918 -0.5894 -0.7346  0.0656
  118OSM    O1412357   4.707  -0.088   6.054  0.4615 -0.2603 -0.3604
  118OSM    O1112358   4.616   0.144   6.140 -0.7687  0.5609 -0.9096
  118OSM    O1212359   4.864   0.083   6.131  0.1935 -0.0141 -0.5256
  118OSM    C1S12360   4.586   0.119   6.275  0.2883  0.3251  0.0814
  118OSM    H1S12361   4.647   0.038   6.321  0.0452 -0.3263 -0.7163
  118OSM    H1T12362   4.483   0.077   6.276  0.4958 -0.2765 -1.5192
  118OSM     NF12363   4.622   0.217   6.499  0.3050  0.4383 -0.6626
  118OSM    HNF12364   4.542   0.244   6.552  0.1682  0.4589 -0.8813
  118OSM    C2S12365   4.610   0.248   6.358 -0.3366  1.3543 -0.4445
  118OSM    H2S12366   4.711   0.282   6.329  0.2521 -1.5819 -2.2909
  118OSM    C3S12367   4.509   0.360   6.324  0.4613 -0.7732 -0.3906
  118OSM    H3S12368   4.412   0.316   6.355  0.8324  0.4784  2.8652
  118OSM     O312369   4.504   0.393   6.192 -0.1098  0.0522  0.3541
  118OSM    HO312370   4.535   0.319   6.140 -0.3239  0.2656 -0.0871
  118OSM    C4S12371   4.535   0.484   6.405 -0.1314 -0.2173 -0.0075
  118OSM    H4S12372   4.638   0.521   6.407  0.4464 -1.7540  2.6097
  118OSM    C5S12373   4.444   0.569   6.464 -1.0298  0.5543  0.8922
  118OSM    H5S12374   4.343   0.526   6.474  0.3312 -2.6786  2.0576
  118OSM    C6S12375   4.472   0.690   6.557 -0.2545 -0.3429 -0.0564
  118OSM    H6S12376   4.452   0.792   6.519 -0.6782  0.6712  2.6263
  118OSM    H6T12377   4.582   0.694   6.576 -0.5592  1.3224  1.7452
  118OSM    C7S12378   4.393   0.674   6.693  0.0423  0.6433 -0.0516
  118OSM    H7S12379   4.284   0.690   6.682 -0.3097 -0.1372  1.9965
  118OSM    H7T12380   4.441   0.757   6.750 -2.4626  2.3079 -0.2305
  118OSM    C8S12381   4.419   0.549   6.766  0.6752  1.4332 -0.2191
  118OSM    H8S12382   4.395   0.577   6.871 -0.6929  0.4653 -0.2376
  118OSM    H8T12383   4.525   0.515   6.774  0.2126  0.2939  2.1376
  118OSM    C9S12384   4.325   0.430   6.746  0.2860  0.1670 -0.1694
  118OSM    H9S12385   4.331   0.391   6.642 -0.1389  0.9159 -0.4817
  118OSM    H9T12386   4.222   0.467   6.766  0.1882 -0.2554  0.1328
  118OSM   C10S12387   4.345   0.310   6.844 -0.0882 -0.3225 -0.2753
  118OSM   H10S12388   4.450   0.271   6.841  0.4121  0.9426  0.1331
  118OSM   H10T12389   4.268   0.239   6.808 -1.7744  1.5710 -0.5499
  118OSM   C11S12390   4.306   0.345   6.990 -0.0603 -0.4480  0.4254
  118OSM   H11S12391   4.210   0.400   6.983  1.2340  2.0499  0.7858
  118OSM   H11T12392   4.385   0.402   7.044  1.5201 -1.8312 -0.3418
  118OSM   C12S12393   4.293   0.226   7.082  0.5467 -0.3635 -0.1821
  118OSM   H12S12394   4.374   0.153   7.061 -0.3353 -1.2244 -0.6380
  118OSM   H12T12395   4.203   0.163   7.066 -0.3838  0.9781 -0.3984
  118OSM   C13S12396   4.305   0.252   7.231  0.0460  1.0486 -0.3855
  118OSM   H13S12397   4.238   0.336   7.258 -0.6433  0.5140 -0.3882
  118OSM   H13T12398   4.409   0.278   7.263  0.0261  0.9187 -0.2134
  118OSM   C14S12399   4.270   0.122   7.310 -0.2231  0.0532  0.5802
  118OSM   H14S12400   4.349   0.059   7.265 -0.1151  1.2476 -1.0070
  118OSM   H14T12401   4.173   0.085   7.269 -0.3067  1.4972 -0.6125
  118OSM   C15S12402   4.278   0.136   7.465 -0.1584  0.2655  0.2333
  118OSM   H15S12403   4.195   0.205   7.489 -1.2484 -0.4224 -1.3917
  118OSM   H15T12404   4.374   0.181   7.498  0.4972  0.3906 -1.7040
  118OSM   C16S12405   4.255  -0.001   7.538  0.2657 -0.0314 -0.4093
  118OSM   H16S12406   4.328  -0.078   7.505  0.1658 -0.7402  0.9473
  118OSM   H16T12407   4.153  -0.039   7.516  0.6207 -2.0056  0.9908
  118OSM   C17S12408   4.264   0.012   7.694 -0.2244 -0.0974  0.5068
  118OSM   H17S12409   4.198   0.093   7.732  2.1504  0.5995  3.5628
  118OSM   H17T12410   4.367   0.041   7.722  0.2895 -0.3320 -1.0543
  118OSM   C18S12411   4.210  -0.108   7.766  0.3504  0.1223  0.4665
  118OSM   H18S12412   4.232  -0.106   7.875  0.3473 -3.0091  0.6188
  118OSM   H18T12413   4.261  -0.199   7.729  1.2487  0.9302 -0.3139
  118OSM   H18U12414   4.100  -0.120   7.751  0.4497 -0.6006  0.2356
  118OSM    C1F12415   4.725   0.164   6.558 -0.2614  0.0730 -0.4445
  118OSM     OF12416   4.830   0.166   6.495 -0.2486  0.3689 -0.3696
  118OSM    C2F12417   4.698   0.118   6.697  0.3515  0.0221  1.0657
  118OSM    H2F12418   4.739   0.015   6.706 -0.3612 -0.1636  2.3728
  118OSM    H2G12419   4.588   0.117   6.709  0.1353  0.0613 -0.6369
  118OSM    C3F12420   4.773   0.198   6.804  0.4160 -0.2072  0.6542
  118OSM    H3F12421   4.761   0.307   6.784 -0.7041 -0.3298  0.6224
  118OSM    H3G12422   4.882   0.181   6.788  0.9358  2.5009  0.8757
  118OSM    C4F12423   4.724   0.158   6.938 -0.1882 -1.0175  0.5391
  118OSM    H4F12424   4.615   0.175   6.949 -0.7367 -3.4902 -0.4611
  118OSM    H4G12425   4.782   0.217   7.013 -1.3083 -1.7405  2.0191
  118OSM    C5F12426   4.739   0.012   6.978  0.7786  0.3071 -0.6291
  118OSM    H5F12427   4.843  -0.028   6.968 -0.8752 -5.0046  0.3700
  118OSM    H5G12428   4.672  -0.048   6.913  1.0930  1.8332 -2.4394
  118OSM    C6F12429   4.700  -0.015   7.128  0.0094  0.0269 -0.1831
  118OSM    H6F12430   4.678  -0.123   7.138  1.7636 -0.3833 -0.3038
  118OSM    H6G12431   4.615   0.046   7.163  0.6410 -0.1980  1.8373
  118OSM    C7F12432   4.825   0.005   7.221 -0.3595  0.1792  0.1194
  118OSM    H7F12433   4.874   0.104   7.206  0.7758 -0.1289  1.5631
  118OSM    H7G12434   4.907  -0.059   7.182 -0.8294  0.3274 -1.1621
  118OSM    C8F12435   4.791  -0.029   7.375 -0.5109  0.7430 -0.1285
  118OSM    H8F12436   4.697   0.020   7.409 -0.2937  0.7917  0.4015
  118OSM    H8G12437   4.874   0.004   7.441  0.1669 -1.5776  0.2858
  118OSM    C9F12438   4.782  -0.178   7.399 -0.0937 -0.5147  0.3673
  118OSM    H9F12439   4.827  -0.238   7.318 -1.6965 -1.4555  0.1427
  118OSM   C10F12440   4.726  -0.246   7.501  0.6858  0.5747 -0.1304
  118OSM   H10F12441   4.737  -0.355   7.500  2.7244  0.7013 -2.6549
  118OSM   C11F12442   4.661  -0.176   7.609  0.3220  0.4984 -0.3681
  118OSM   H11F12443   4.553  -0.203   7.614  1.1369 -3.1374  1.7117
  118OSM   H11G12444   4.671  -0.066   7.597  1.0557  0.3902 -0.8204
  118OSM   C12F12445   4.722  -0.205   7.746  0.9799  0.0063 -0.4393
  118OSM   H12F12446   4.825  -0.164   7.755  0.3767  1.0939  3.6940
  118OSM   H12G12447   4.723  -0.315   7.759 -0.8369  0.1398  1.4322
  118OSM   C13F12448   4.633  -0.147   7.863 -0.1779  0.1306  0.8344
  118OSM   H13F12449   4.528  -0.175   7.838  0.3916 -0.5010 -1.0010
  118OSM   H13G12450   4.628  -0.036   7.870  0.1137  0.1976  0.1418
  118OSM   C14F12451   4.669  -0.209   7.997 -0.2331 -0.1222 -0.3814
  118OSM   H14F12452   4.776  -0.185   8.017 -0.9054  1.4102  1.7812
  118OSM   H14G12453   4.645  -0.317   7.992 -2.2578  0.2752 -0.2498
  118OSM   C15F12454   4.593  -0.137   8.106  0.3644  0.2431  0.3298
  118OSM   H15F12455   4.483  -0.150   8.094  0.6717 -2.4421 -0.1591
  118OSM   H15G12456   4.617  -0.029   8.099 -1.9887  0.7967 -0.0586
  118OSM   C16F12457   4.622  -0.188   8.252 -0.1620 -0.0901  0.0527
  118OSM   H16F12458   4.717  -0.151   8.295 -0.9805  0.2133  1.6700
  118OSM   H16G12459   4.626  -0.299   8.245  0.1386 -0.1883  1.5307
  118OSM   C17F12460   4.505  -0.144   8.344 -0.5521  0.4306  0.5361
  118OSM   H17F12461   4.419  -0.199   8.301  1.0716  0.4247 -3.0537
  118OSM   H17G12462   4.480  -0.036   8.331 -1.0478  0.6176  2.6577
  118OSM   C18F12463   4.533  -0.172   8.487 -0.5370 -0.2459 -0.3810
  118OSM   H18F12464   4.441  -0.153   8.547 -0.7372 -1.2422 -0.3477
  118OSM   H18G12465   4.618  -0.108   8.519 -1.3433  0.5414  0.2405
  118OSM   H18H12466   4.576  -0.274   8.501  0.4586  0.3564  1.3346
  119OSM      N12467   6.103   6.716   5.808 -0.2122  0.0866 -0.4463
  119OSM    C1512468   6.081   6.697   5.960 -0.5617  0.4760 -0.2939
  119OSM   H15A12469   5.974   6.691   5.970 -0.5664  2.6478  1.8545
  119OSM   H15B12470   6.120   6.785   6.010 -1.0164  0.9897 -0.8119
  119OSM   H15C12471   6.121   6.603   5.994  0.4742  2.0720  3.3906
  119OSM    C1412472   6.038   6.852   5.781  0.0338 -0.1136  0.6525
  119OSM   H14A12473   6.088   6.931   5.834 -0.5876  0.0717  0.9660
  119OSM   H14B12474   5.937   6.848   5.818  0.5857 -0.8427  2.1834
  119OSM   H14C12475   6.047   6.875   5.676  1.1160  0.2294  0.8027
  119OSM    C1312476   6.255   6.716   5.782 -0.0378 -0.4078  0.1740
  119OSM   H13A12477   6.297   6.771   5.865  0.0950  0.0679 -0.1998
  119OSM   H13B12478   6.278   6.763   5.687  2.2885  1.1894  1.4341
  119OSM   H13C12479   6.312   6.625   5.782  1.8419  0.6962 -1.1247
  119OSM    C1212480   6.039   6.600   5.738 -0.2885  0.8200  0.1511
  119OSM   H12A12481   6.089   6.510   5.771 -0.9538 -0.0869 -1.2305
  119OSM   H12B12482   6.053   6.612   5.632 -0.8596  0.7168  0.0578
  119OSM    C1112483   5.882   6.584   5.759 -0.1382  0.0314 -1.1832
  119OSM   H11A12484   5.832   6.514   5.689  2.6739 -2.5097 -0.8199
  119OSM   H11B12485   5.838   6.686   5.746 -1.7778 -0.5977 -0.8781
  119OSM      P12486   5.846   6.393   5.931 -0.1145  0.3846 -0.2723
  119OSM    O1312487   5.745   6.316   5.851 -0.5015 -0.6943  0.0679
  119OSM    O1412488   5.980   6.344   5.929 -0.6367 -0.5727 -0.0459
  119OSM    O1112489   5.795   6.405   6.078  0.3341 -0.2943  0.0128
  119OSM    O1212490   5.853   6.547   5.897 -0.0685  0.0052 -0.2061
  119OSM    C1S12491   5.874   6.468   6.181 -0.0254 -0.6247  0.4926
  119OSM    H1S12492   5.894   6.573   6.152 -3.6539  0.0332 -0.0764
  119OSM    H1T12493   5.968   6.414   6.203  0.4284 -0.0722 -0.0568
  119OSM     NF12494   5.860   6.572   6.399 -0.1445 -0.3028  0.1382
  119OSM    HNF12495   5.913   6.513   6.460 -0.3318 -2.0748 -1.3117
  119OSM    C2S12496   5.787   6.485   6.310 -0.3818 -0.0344 -0.5234
  119OSM    H2S12497   5.695   6.536   6.276 -0.5772 -0.1100 -0.1191
  119OSM    C3S12498   5.746   6.355   6.381  0.0010 -0.1137 -0.4124
  119OSM    H3S12499   5.836   6.290   6.382 -0.4213 -0.7035 -0.5810
  119OSM     O312500   5.643   6.292   6.300 -0.5100 -0.2529 -0.4568
  119OSM    HO312501   5.672   6.320   6.213  3.1368  0.2171  0.7315
  119OSM    C4S12502   5.691   6.389   6.523  0.8322 -0.6681 -0.3867
  119OSM    H4S12503   5.615   6.468   6.523  0.5382 -0.8790 -2.5425
  119OSM    C5S12504   5.735   6.341   6.643 -0.0628  0.4109  0.2058
  119OSM    H5S12505   5.817   6.268   6.643  0.2530  0.7568  0.6952
  119OSM    C6S12506   5.683   6.365   6.772 -0.0120  0.1510  0.1290
  119OSM    H6S12507   5.637   6.466   6.780  1.0249  0.5340  1.7509
  119OSM    H6T12508   5.770   6.365   6.841  1.5047 -1.7163 -1.6507
  119OSM    C7S12509   5.573   6.267   6.814  1.0700 -0.5228 -0.6038
  119OSM    H7S12510   5.603   6.161   6.795  1.5179 -0.2559 -1.4784
  119OSM    H7T12511   5.482   6.291   6.755  0.6606 -1.3144 -0.3096
  119OSM    C8S12512   5.538   6.282   6.962 -0.3032 -0.8496 -0.3904
  119OSM    H8S12513   5.443   6.225   6.966  0.6857 -2.7246 -1.8456
  119OSM    H8T12514   5.537   6.389   6.992 -0.2314 -0.6884 -0.9430
  119OSM    C9S12515   5.636   6.216   7.061  0.4550  0.1685  0.4142
  119OSM    H9S12516   5.729   6.276   7.049  0.6651  0.0074  1.1794
  119OSM    H9T12517   5.658   6.112   7.029 -0.6534 -0.2130  0.8458
  119OSM   C10S12518   5.608   6.204   7.207  0.7041  0.4568 -0.8009
  119OSM   H10S12519   5.691   6.150   7.256 -0.1449 -0.7520 -0.6475
  119OSM   H10T12520   5.522   6.139   7.233  1.5519 -0.7986 -1.0238
  119OSM   C11S12521   5.618   6.347   7.275  0.1293  0.1163  0.3869
  119OSM   H11S12522   5.551   6.411   7.213 -0.0858 -1.6546 -1.3109
  119OSM   H11T12523   5.717   6.391   7.254  0.0019 -0.8113 -2.6146
  119OSM   C12S12524   5.568   6.333   7.419  0.4194  0.0211 -0.1760
  119OSM   H12S12525   5.611   6.244   7.469  2.3401  0.4860 -0.8798
  119OSM   H12T12526   5.459   6.317   7.411  0.0774  2.6888 -2.5155
  119OSM   C13S12527   5.590   6.455   7.504  0.0509  0.0078  0.1253
  119OSM   H13S12528   5.522   6.530   7.457  0.9851  0.3115 -0.7502
  119OSM   H13T12529   5.691   6.493   7.480  0.9860 -1.6776  1.2165
  119OSM   C14S12530   5.562   6.435   7.656 -0.4206 -0.1018 -0.3416
  119OSM   H14S12531   5.617   6.346   7.693 -1.0610 -0.3996 -0.0755
  119OSM   H14T12532   5.453   6.416   7.671 -1.0509  3.6797  1.1612
  119OSM   C15S12533   5.586   6.554   7.755  0.2465  0.1978 -0.1370
  119OSM   H15S12534   5.521   6.643   7.739 -1.3417 -1.4277 -4.0487
  119OSM   H15T12535   5.689   6.592   7.738 -0.3141  1.2280 -1.4329
  119OSM   C16S12536   5.565   6.502   7.898 -0.3513  0.3741  0.5955
  119OSM   H16S12537   5.630   6.412   7.908  1.0867  0.9325 -2.5859
  119OSM   H16T12538   5.458   6.489   7.923 -0.5004 -0.7918 -0.5307
  119OSM   C17S12539   5.632   6.608   7.997  0.2925  0.2115  0.4957
  119OSM   H17S12540   5.597   6.712   7.982  0.8400  0.6460  2.0796
  119OSM   H17T12541   5.740   6.621   7.977 -0.1970  1.4687 -1.5951
  119OSM   C18S12542   5.617   6.561   8.143  0.2072  0.5097  0.0275
  119OSM   H18S12543   5.653   6.641   8.212  0.3712 -0.1283  0.6934
  119OSM   H18T12544   5.680   6.473   8.167 -2.2878 -1.8449 -1.5449
  119OSM   H18U12545   5.520   6.520   8.177  0.5007 -0.2423 -0.0271
  119OSM    C1F12546   5.869   6.704   6.389  0.2643  0.2462  0.1371
  119OSM     OF12547   5.790   6.762   6.322  0.1389  0.6027  0.1663
  119OSM    C2F12548   5.981   6.764   6.458 -0.5329 -0.2375 -0.6864
  119OSM    H2F12549   5.939   6.855   6.506 -1.9164 -1.4386  0.4705
  119OSM    H2G12550   6.064   6.796   6.391  0.2206  1.4888  0.9904
  119OSM    C3F12551   6.056   6.687   6.573 -0.0414  0.3892 -0.0110
  119OSM    H3F12552   6.152   6.740   6.589 -0.6029  0.5627  3.7356
  119OSM    H3G12553   6.078   6.581   6.549  2.5831  0.7924  0.3077
  119OSM    C4F12554   5.975   6.691   6.702  0.0126 -0.4133 -0.2787
  119OSM    H4F12555   5.888   6.625   6.684  0.0408 -0.5828  0.1864
  119OSM    H4G12556   5.942   6.796   6.715 -1.1626 -0.6294 -1.3665
  119OSM    C5F12557   6.046   6.643   6.829 -0.5439  0.6832 -0.8032
  119OSM    H5F12558   6.155   6.664   6.830 -0.3103  0.0509  2.8803
  119OSM    H5G12559   6.042   6.532   6.826  2.7141  0.4129  0.4497
  119OSM    C6F12560   5.992   6.701   6.961 -0.2552  0.0064 -0.5546
  119OSM    H6F12561   5.996   6.812   6.955  0.0960  0.1475  1.6521
  119OSM    H6G12562   6.056   6.667   7.045 -0.9054  0.2710  0.0587
  119OSM    C7F12563   5.845   6.665   6.964  0.2508 -0.2679  0.3903
  119OSM    H7F12564   5.816   6.562   6.933 -0.3840 -0.1872  0.7108
  119OSM    H7G12565   5.788   6.718   6.885  0.6787  1.5334  1.2385
  119OSM    C8F12566   5.763   6.672   7.098 -0.1435  0.7039  0.0274
  119OSM    H8F12567   5.830   6.640   7.181  0.6046  0.7213 -0.5499
  119OSM    H8G12568   5.674   6.607   7.098  0.2357  0.1579 -1.2537
  119OSM    C9F12569   5.698   6.808   7.116  0.2631  0.2160  0.3283
  119OSM    H9F12570   5.606   6.817   7.056 -0.4675 -0.3231  1.3275
  119OSM   C10F12571   5.736   6.897   7.207  0.0249 -0.5274  0.1465
  119OSM   H10F12572   5.667   6.982   7.218 -1.1912 -1.5765  0.9645
  119OSM   C11F12573   5.843   6.887   7.310  0.4441 -0.6924  0.0530
  119OSM   H11F12574   5.904   6.979   7.296  0.4709 -0.8339 -0.7781
  119OSM   H11G12575   5.912   6.802   7.291 -0.2275 -0.6902 -2.8156
  119OSM   C12F12576   5.790   6.896   7.456  0.0409 -0.4380 -0.3228
  119OSM   H12F12577   5.753   6.797   7.490  0.8359  0.9867  5.9388
  119OSM   H12G12578   5.709   6.971   7.465  1.8437  1.3825  1.4948
  119OSM   C13F12579   5.907   6.930   7.552  0.5380  0.7557 -0.4509
  119OSM   H13F12580   5.946   7.029   7.520 -1.3919  2.1900  1.3398
  119OSM   H13G12581   5.988   6.856   7.535 -2.0526 -2.1172 -1.1722
  119OSM   C14F12582   5.867   6.932   7.699  0.4736  0.0658  0.9708
  119OSM   H14F12583   5.818   6.834   7.715  1.3788 -0.2161  2.1852
  119OSM   H14G12584   5.794   7.010   7.729  1.2688  0.0125  3.2503
  119OSM   C15F12585   5.979   6.933   7.804  0.6332 -1.0042 -0.1439
  119OSM   H15F12586   6.045   7.018   7.779 -3.0010  2.6269  1.3076
  119OSM   H15G12587   6.040   6.842   7.814  3.1069  0.6729  0.8578
  119OSM   C16F12588   5.921   6.944   7.945  0.2119  1.1476 -0.6633
  119OSM   H16F12589   5.842   6.867   7.960 -0.0607  1.2542 -1.4956
  119OSM   H16G12590   5.872   7.043   7.936  0.4213  1.0838 -3.4908
  119OSM   C17F12591   6.021   6.931   8.060 -0.5411  1.0770 -0.2468
  119OSM   H17F12592   6.080   7.025   8.056  1.6235  0.0261  2.9525
  119OSM   H17G12593   6.080   6.840   8.036 -3.9873 -0.9124 -1.9896
  119OSM   C18F12594   5.967   6.916   8.206  0.3767 -0.0928 -0.2662
  119OSM   H18F12595   6.049   6.886   8.275  1.7353  0.9369 -1.3611
  119OSM   H18G12596   5.889   6.837   8.200 -1.2110  1.3999  0.1916
  119OSM   H18H12597   5.919   7.005   8.251  0.5354 -1.6978  3.4727
  120OSM      N12598   5.356   4.215   6.269 -0.1686  0.1139  0.4197
  120OSM    C1512599   5.280   4.274   6.160 -0.3429 -0.2072  0.4550
  120OSM   H15A12600   5.179   4.307   6.183  0.2897  1.7345  0.6001
  120OSM   H15B12601   5.281   4.207   6.076  0.6134  2.3504 -1.7124
  120OSM   H15C12602   5.330   4.366   6.132  0.7002 -1.0280 -0.4460
  120OSM    C1412603   5.292   4.088   6.311  0.5749 -1.1852  0.0788
  120OSM   H14A12604   5.294   4.022   6.226  2.7173  1.0123 -1.7154
  120OSM   H14B12605   5.191   4.118   6.337 -0.2614 -1.7836 -2.2146
  120OSM   H14C12606   5.338   4.042   6.397  0.3587 -0.4466  0.6030
  120OSM    C1312607   5.497   4.179   6.214 -0.4958  0.1187 -0.1327
  120OSM   H13A12608   5.492   4.086   6.160  2.9455 -0.7169  0.7397
  120OSM   H13B12609   5.565   4.153   6.294  0.0412  0.1198 -0.5893
  120OSM   H13C12610   5.543   4.262   6.162  0.4354 -0.2562  0.0769
  120OSM    C1212611   5.368   4.302   6.392 -0.0034  0.0737 -0.2768
  120OSM   H12A12612   5.271   4.334   6.428 -0.6837 -0.7789 -1.3190
  120OSM   H12B12613   5.405   4.399   6.362  0.3959 -0.1554 -0.5359
  120OSM    C1112614   5.458   4.242   6.505  0.3004  0.4198  0.7661
  120OSM   H11A12615   5.419   4.139   6.524 -3.2255  0.8437 -2.8099
  120OSM   H11B12616   5.435   4.298   6.598 -3.0834  1.8981 -0.7885
  120OSM      P12617   5.695   4.353   6.467  0.1863 -0.0242  0.2182
  120OSM    O1312618   5.767   4.350   6.599  0.2425  0.4096  0.1749
  120OSM    O1412619   5.776   4.358   6.341  0.3847  0.2223 -0.1307
  120OSM    O1112620   5.591   4.471   6.465 -0.4683 -0.3260  0.1464
  120OSM    O1212621   5.594   4.228   6.471 -0.4285 -0.3392  0.4755
  120OSM    C1S12622   5.553   4.556   6.565  0.6687  0.3045 -0.7688
  120OSM    H1S12623   5.542   4.492   6.655  0.1141  2.4614  0.7956
  120OSM    H1T12624   5.452   4.599   6.549 -0.2085 -0.6004  1.8249
  120OSM     NF12625   5.622   4.762   6.687 -0.1310  0.2503  0.3555
  120OSM    HNF12626   5.560   4.835   6.660  0.0346 -0.4448 -2.1905
  120OSM    C2S12627   5.656   4.674   6.578 -0.3058  0.1953  0.7196
  120OSM    H2S12628   5.753   4.621   6.583 -0.6887 -0.7596 -1.1204
  120OSM    C3S12629   5.673   4.760   6.446  0.3037  0.3407  0.3203
  120OSM    H3S12630   5.575   4.801   6.414 -0.0961 -0.4077  0.5505
  120OSM     O312631   5.717   4.678   6.333  0.1099  0.1731 -0.1034
  120OSM    HO312632   5.696   4.592   6.371 -1.3984  0.0286 -1.1597
  120OSM    C4S12633   5.777   4.873   6.469 -0.2218  0.1671  0.9306
  120OSM    H4S12634   5.877   4.835   6.496 -1.3640 -3.0324  1.0604
  120OSM    C5S12635   5.747   5.005   6.460 -0.4209 -0.5344 -0.4912
  120OSM    H5S12636   5.645   5.045   6.452 -0.2139  0.5613  1.6678
  120OSM    C6S12637   5.844   5.113   6.488  0.4590  0.4850  0.5922
  120OSM    H6S12638   5.852   5.187   6.406 -0.7727  1.3332  1.2245
  120OSM    H6T12639   5.947   5.075   6.506  1.3248  1.7862 -1.2357
  120OSM    C7S12640   5.809   5.203   6.601 -0.1318  0.0237 -0.4360
  120OSM    H7S12641   5.712   5.255   6.586 -0.4557 -1.1040 -2.5837
  120OSM    H7T12642   5.888   5.280   6.613  0.7186 -0.9998  0.8085
  120OSM    C8S12643   5.813   5.142   6.744  0.5663  0.3984 -0.0867
  120OSM    H8S12644   5.904   5.081   6.765 -0.4170 -0.6952  1.1966
  120OSM    H8T12645   5.723   5.077   6.751  1.5836 -1.0909 -0.3271
  120OSM    C9S12646   5.804   5.241   6.858 -0.2828  0.6651  0.3035
  120OSM    H9S12647   5.763   5.333   6.811  0.4093  0.8404  0.0320
  120OSM    H9T12648   5.903   5.270   6.900  0.3798 -1.1946  0.1008
  120OSM   C10S12649   5.710   5.193   6.972  0.0307  0.0472 -0.5013
  120OSM   H10S12650   5.763   5.130   7.047 -0.2079  1.3084  0.7693
  120OSM   H10T12651   5.621   5.140   6.932  0.3141 -1.3200  0.6178
  120OSM   C11S12652   5.665   5.316   7.046  0.7796 -0.1570 -0.1836
  120OSM   H11S12653   5.586   5.372   6.992 -1.5193 -0.6466  2.4036
  120OSM   H11T12654   5.751   5.380   7.075  0.7741 -0.7264  1.1625
  120OSM   C12S12655   5.600   5.288   7.188 -0.4359  0.5758  0.5513
  120OSM   H12S12656   5.687   5.246   7.243 -0.2489  1.1146  0.6774
  120OSM   H12T12657   5.514   5.218   7.183  0.1472 -0.0519 -1.8330
  120OSM   C13S12658   5.556   5.415   7.252  1.0221 -0.3399  0.3027
  120OSM   H13S12659   5.486   5.461   7.180 -1.8803 -3.9506  0.5093
  120OSM   H13T12660   5.642   5.485   7.256  0.3522  0.4498  1.5665
  120OSM   C14S12661   5.492   5.388   7.384  0.3188  0.6537  0.4070
  120OSM   H14S12662   5.414   5.311   7.375  0.0151  1.0876 -0.9257
  120OSM   H14T12663   5.440   5.483   7.408 -1.9983 -0.2698 -0.7168
  120OSM   C15S12664   5.592   5.343   7.494 -1.0077  0.4785 -0.0775
  120OSM   H15S12665   5.666   5.419   7.527  3.1670 -3.5899  1.0237
  120OSM   H15T12666   5.645   5.256   7.450 -0.7483  0.4478  0.2874
  120OSM   C16S12667   5.515   5.316   7.626  0.5865 -0.0946  0.4104
  120OSM   H16S12668   5.587   5.258   7.689  0.5493 -1.9010 -1.1397
  120OSM   H16T12669   5.428   5.250   7.605  0.7718 -0.9180  2.0222
  120OSM   C17S12670   5.455   5.438   7.697 -0.1773 -0.3888  0.3089
  120OSM   H17S12671   5.379   5.486   7.633  0.1170  0.8454  0.8730
  120OSM   H17T12672   5.537   5.513   7.702 -1.1402  0.6077  1.7762
  120OSM   C18S12673   5.387   5.417   7.837 -0.3238 -0.2832 -0.0666
  120OSM   H18S12674   5.460   5.378   7.911 -1.2786  0.9023  1.5753
  120OSM   H18T12675   5.296   5.352   7.836 -0.5054 -0.0349 -1.1565
  120OSM   H18U12676   5.370   5.518   7.879 -1.0271 -1.3651  2.5093
  120OSM    C1F12677   5.651   4.735   6.812 -0.6192 -0.7586  0.2787
  120OSM     OF12678   5.686   4.622   6.838  0.1201 -0.6216 -0.1927
  120OSM    C2F12679   5.643   4.839   6.924  0.2603  0.1568 -0.5376
  120OSM    H2F12680   5.555   4.905   6.912  0.0341  0.3115  1.5905
  120OSM    H2G12681   5.732   4.905   6.917  0.2534  0.3298  0.8668
  120OSM    C3F12682   5.626   4.776   7.067 -0.5535  0.1530  0.2667
  120OSM    H3F12683   5.711   4.714   7.103  0.2483  0.8401 -0.3677
  120OSM    H3G12684   5.543   4.704   7.059 -0.4267 -0.1401  1.4631
  120OSM    C4F12685   5.595   4.885   7.170 -0.2872 -0.5480 -0.0082
  120OSM    H4F12686   5.505   4.940   7.134  0.9097  1.3643 -0.1715
  120OSM    H4G12687   5.673   4.963   7.176 -1.3696  0.9157 -2.8306
  120OSM    C5F12688   5.575   4.836   7.313  0.5472 -1.1262 -1.2307
  120OSM    H5F12689   5.663   4.775   7.342  0.7804  0.6748  2.5019
  120OSM    H5G12690   5.483   4.774   7.310 -0.0168 -0.4518  0.6889
  120OSM    C6F12691   5.556   4.955   7.408  0.3265 -0.1772 -0.1944
  120OSM    H6F12692   5.456   5.003   7.402 -1.3116 -3.1891  0.9943
  120OSM    H6G12693   5.633   5.032   7.383 -0.1061  0.3718  0.1417
  120OSM    C7F12694   5.590   4.946   7.558 -0.3488 -0.1522 -0.3171
  120OSM    H7F12695   5.623   5.045   7.598  1.2054 -0.9877  0.5658
  120OSM    H7G12696   5.684   4.887   7.560  0.1408  0.6275  0.4192
  120OSM    C8F12697   5.478   4.877   7.638  0.6890  0.4984  0.0866
  120OSM    H8F12698   5.522   4.828   7.727 -1.5172 -2.4619 -0.3021
  120OSM    H8G12699   5.439   4.789   7.583  0.8426  0.5203 -0.0578
  120OSM    C9F12700   5.358   4.957   7.688  0.8991  0.2616 -0.1470
  120OSM    H9F12701   5.314   5.023   7.612 -1.7709 -1.5785 -0.3562
  120OSM   C10F12702   5.308   4.965   7.812 -0.2032  0.0006  0.1204
  120OSM   H10F12703   5.226   5.035   7.834 -0.3575  0.2466 -1.1518
  120OSM   C11F12704   5.367   4.908   7.933  0.5503  0.2333 -0.4858
  120OSM   H11F12705   5.416   4.809   7.914  0.2110 -0.3905  1.6879
  120OSM   H11G12706   5.277   4.882   7.993  2.4213  0.2120  2.5187
  120OSM   C12F12707   5.449   5.003   8.027  0.4501  0.3179 -0.0542
  120OSM   H12F12708   5.447   4.950   8.124 -0.7661 -0.2911 -0.3807
  120OSM   H12G12709   5.416   5.109   8.036 -0.3158  0.1704 -0.8937
  120OSM   C13F12710   5.593   5.012   7.974  0.1127  0.3566  0.0833
  120OSM   H13F12711   5.590   5.057   7.873  0.5913 -2.8416 -1.4941
  120OSM   H13G12712   5.639   4.912   7.955 -1.4277 -0.7563  1.8178
  120OSM   C14F12713   5.678   5.073   8.088  0.4480  0.5392 -0.2575
  120OSM   H14F12714   5.636   5.171   8.117  2.3217  1.4359 -0.4624
  120OSM   H14G12715   5.780   5.095   8.051  1.2295 -0.7088  1.0207
  120OSM   C15F12716   5.707   4.995   8.218  0.0100 -0.4802 -0.1000
  120OSM   H15F12717   5.751   4.896   8.194  0.4370 -0.6715  1.3520
  120OSM   H15G12718   5.613   4.979   8.275 -0.5292 -1.2225 -1.1568
  120OSM   C16F12719   5.794   5.080   8.321  0.3605  0.3163  0.1944
  120OSM   H16F12720   5.739   5.171   8.352  1.2929  1.1617 -0.5322
  120OSM   H16G12721   5.892   5.110   8.277  0.0349 -1.5868 -2.0284
  120OSM   C17F12722   5.816   4.995   8.446 -0.2451 -0.1658  0.2248
  120OSM   H17F12723   5.869   4.907   8.404  0.4888  0.0696  0.6552
  120OSM   H17G12724   5.709   4.984   8.474 -0.6470  3.6755  0.7650
  120OSM   C18F12725   5.896   5.064   8.556 -0.2194 -0.0510 -0.8175
  120OSM   H18F12726   5.844   5.152   8.600  0.1939  0.4226 -1.2570
  120OSM   H18G12727   5.988   5.089   8.499  0.2487 -0.9124 -0.4545
  120OSM   H18H12728   5.933   5.003   8.641 -2.0108  1.5197  1.2226
  121OSM      N12729   0.444   6.020   5.726  0.1238  0.0399 -0.3341
  121OSM    C1512730   0.309   6.082   5.698  0.2526  0.2968  0.5660
  121OSM   H15A12731   0.232   6.010   5.673 -0.8710  2.0748 -1.4341
  121OSM   H15B12732   0.321   6.142   5.610  0.4878  0.3014  0.5985
  121OSM   H15C12733   0.270   6.134   5.784  0.7761  2.6181 -0.5391
  121OSM    C1412734   0.420   5.893   5.805  0.4840  0.1387  0.2191
  121OSM   H14A12735   0.505   5.858   5.862 -0.6921 -0.2973  1.7879
  121OSM   H14B12736   0.400   5.812   5.737 -0.4316 -0.7919  1.5365
  121OSM   H14C12737   0.347   5.903   5.884  1.6397 -1.0147  1.4937
  121OSM    C1312738   0.505   5.981   5.598 -0.0863 -0.1958  0.4981
  121OSM   H13A12739   0.434   5.917   5.547  1.5624 -0.3732 -1.7064
  121OSM   H13B12740   0.592   5.918   5.615  0.1931 -0.9523 -2.9443
  121OSM   H13C12741   0.532   6.065   5.536 -0.0995 -0.8444 -0.4030
  121OSM    C1212742   0.531   6.116   5.805 -0.2579  0.6644 -0.8295
  121OSM   H12A12743   0.554   6.198   5.739  1.6266 -0.2489 -1.3791
  121OSM   H12B12744   0.618   6.062   5.839 -1.7444  0.1638  2.6713
  121OSM    C1112745   0.468   6.181   5.929 -0.5780  0.4293 -0.0395
  121OSM   H11A12746   0.381   6.246   5.905 -1.7407  0.0738  2.8704
  121OSM   H11B12747   0.542   6.246   5.980  0.9848  0.3675 -2.1032
  121OSM      P12748   0.300   6.122   6.128  0.1333  0.3488 -0.4478
  121OSM    O1312749   0.234   6.257   6.085 -0.5670 -0.0371  0.0422
  121OSM    O1412750   0.209   6.006   6.160 -0.1746 -0.3688  0.3383
  121OSM    O1112751   0.383   6.147   6.262  0.4063 -0.1221 -0.5288
  121OSM    O1212752   0.420   6.081   6.029 -0.1304  0.3392 -0.6298
  121OSM    C1S12753   0.465   6.271   6.275 -0.1284  0.2132  0.5408
  121OSM    H1S12754   0.413   6.362   6.239 -0.1005 -0.4947 -1.3905
  121OSM    H1T12755   0.567   6.258   6.232 -1.1291  1.4658 -2.5039
  121OSM     NF12756   0.585   6.406   6.436  0.3025 -0.1107  0.0661
  121OSM    HNF12757   0.684   6.397   6.435  0.2078 -1.6070  1.1176
  121OSM    C2S12758   0.503   6.291   6.426  0.0145 -0.0945 -0.0505
  121OSM    H2S12759   0.410   6.300   6.485  0.6999 -0.3736  1.1042
  121OSM    C3S12760   0.577   6.166   6.482  0.1027  0.5174  0.3257
  121OSM    H3S12761   0.673   6.148   6.429 -0.1194 -0.0328  0.1028
  121OSM     O312762   0.504   6.044   6.476 -0.2296  0.2634 -0.1212
  121OSM    HO312763   0.444   6.061   6.403  1.3781 -2.4050 -2.2369
  121OSM    C4S12764   0.609   6.188   6.630 -0.3279  0.1542 -0.2048
  121OSM    H4S12765   0.528   6.213   6.700  1.2721 -0.0464  1.8223
  121OSM    C5S12766   0.737   6.187   6.685  0.9549 -0.1449  0.2796
  121OSM    H5S12767   0.821   6.183   6.614  0.8375 -0.2193  0.1462
  121OSM    C6S12768   0.776   6.224   6.829  0.0251 -0.7019  0.5737
  121OSM    H6S12769   0.871   6.283   6.830  0.4484 -1.2576 -1.5636
  121OSM    H6T12770   0.802   6.129   6.879  0.5590 -1.0143 -0.2678
  121OSM    C7S12771   0.669   6.306   6.905  0.6041 -0.4867  0.6008
  121OSM    H7S12772   0.578   6.247   6.929  0.9589 -0.7029  1.4414
  121OSM    H7T12773   0.638   6.394   6.844  3.7449 -0.4620 -1.1802
  121OSM    C8S12774   0.723   6.363   7.035  0.2846 -0.2994  0.5538
  121OSM    H8S12775   0.640   6.419   7.082 -1.4183 -0.2200 -2.2917
  121OSM    H8T12776   0.813   6.427   7.021  0.6530 -0.1583  3.1542
  121OSM    C9S12777   0.758   6.265   7.147  0.1769 -0.3212  0.3247
  121OSM    H9S12778   0.816   6.178   7.110  0.3771  0.1067 -0.3762
  121OSM    H9T12779   0.668   6.216   7.190 -1.4255  0.6175 -1.7509
  121OSM   C10S12780   0.841   6.333   7.260 -0.2444  0.3599 -0.4129
  121OSM   H10S12781   0.761   6.397   7.305 -1.9669  0.1826 -3.0233
  121OSM   H10T12782   0.920   6.390   7.207  2.2792 -2.1223  0.4716
  121OSM   C11S12783   0.888   6.228   7.361 -0.0588 -0.2817  0.1843
  121OSM   H11S12784   0.948   6.144   7.320 -0.2313 -0.5054  0.3826
  121OSM   H11T12785   0.794   6.182   7.401  0.2806  0.3725  1.8263
  121OSM   C12S12786   0.958   6.297   7.474 -0.2103 -0.7972 -0.6130
  121OSM   H12S12787   0.892   6.357   7.540 -0.2023 -0.3926 -0.9670
  121OSM   H12T12788   1.021   6.375   7.426 -1.9073  0.5720 -0.7046
  121OSM   C13S12789   1.045   6.203   7.556 -0.8998  0.6025 -1.0553
  121OSM   H13S12790   1.130   6.159   7.499 -0.8472 -0.9575  0.1892
  121OSM   H13T12791   0.991   6.118   7.600 -0.5680  0.6007 -0.6486
  121OSM   C14S12792   1.119   6.271   7.681 -0.5907  0.5793  0.2864
  121OSM   H14S12793   1.189   6.348   7.642 -0.0044 -0.3995 -0.6495
  121OSM   H14T12794   1.176   6.190   7.732 -2.8372 -0.1383  1.7903
  121OSM   C15S12795   1.033   6.321   7.800  0.3216 -0.6259  0.5160
  121OSM   H15S12796   0.946   6.254   7.815 -0.8282  1.2719  2.9920
  121OSM   H15T12797   0.991   6.416   7.762 -0.7597 -1.5106 -0.5962
  121OSM   C16S12798   1.108   6.333   7.926 -0.2734  0.1736 -0.1386
  121OSM   H16S12799   1.139   6.231   7.958  1.2166  1.0870  1.4990
  121OSM   H16T12800   1.051   6.379   8.009 -0.2907 -1.1617  0.6100
  121OSM   C17S12801   1.234   6.419   7.901 -0.0248 -0.8333 -0.7236
  121OSM   H17S12802   1.207   6.517   7.855 -1.1540 -1.2256 -0.9298
  121OSM   H17T12803   1.300   6.368   7.828  1.0827 -0.4135 -0.0317
  121OSM   C18S12804   1.304   6.458   8.038  0.2447 -0.8934  0.4210
  121OSM   H18S12805   1.333   6.360   8.082  2.2900 -0.5466 -0.0258
  121OSM   H18T12806   1.239   6.527   8.096 -0.6130 -1.4558  0.1486
  121OSM   H18U12807   1.404   6.505   8.021  0.1590  0.5113  3.2931
  121OSM    C1F12808   0.521   6.521   6.434 -0.3445 -0.2139  0.3504
  121OSM     OF12809   0.404   6.535   6.404  0.2173 -0.1090 -0.7796
  121OSM    C2F12810   0.599   6.644   6.445  0.3688  0.5384  0.2922
  121OSM    H2F12811   0.593   6.701   6.350 -0.6410 -0.1902 -0.0981
  121OSM    H2G12812   0.706   6.628   6.471  0.2416  1.5668  1.5894
  121OSM    C3F12813   0.547   6.735   6.551  0.1298  0.3914 -0.1465
  121OSM    H3F12814   0.445   6.775   6.528 -0.0740  0.3066  0.5777
  121OSM    H3G12815   0.609   6.827   6.556 -0.0970  0.6538 -1.6314
  121OSM    C4F12816   0.551   6.670   6.687 -0.6811 -0.2925  0.1186
  121OSM    H4F12817   0.649   6.618   6.691 -1.5821 -2.0517  0.0924
  121OSM    H4G12818   0.465   6.600   6.699 -1.7997  1.2594  1.5174
  121OSM    C5F12819   0.555   6.763   6.801 -0.0238  0.7831 -0.6027
  121OSM    H5F12820   0.447   6.789   6.813 -0.5524 -1.8279  1.0164
  121OSM    H5G12821   0.620   6.852   6.791 -0.1244  0.6489 -2.7917
  121OSM    C6F12822   0.590   6.679   6.930  0.6658  0.0162  0.3302
  121OSM    H6F12823   0.697   6.651   6.923  1.1765  2.1929 -1.2906
  121OSM    H6G12824   0.529   6.586   6.929 -0.0456  0.4740  0.5197
  121OSM    C7F12825   0.569   6.765   7.060  0.4820 -0.3035 -0.5043
  121OSM    H7F12826   0.461   6.789   7.071  1.0088  1.6468  1.0013
  121OSM    H7G12827   0.617   6.864   7.044  0.0723 -0.2303 -1.3022
  121OSM    C8F12828   0.631   6.697   7.188  0.1338  0.5627 -0.8053
  121OSM    H8F12829   0.732   6.659   7.161  1.2353  1.3313  1.9657
  121OSM    H8G12830   0.561   6.617   7.222  2.2697 -2.2395 -2.4929
  121OSM    C9F12831   0.649   6.793   7.305 -0.6411 -0.0402 -0.5148
  121OSM    H9F12832   0.667   6.895   7.268  0.0186 -0.8622 -2.6047
  121OSM   C10F12833   0.648   6.776   7.439  0.2757  0.6024  0.2141
  121OSM   H10F12834   0.650   6.871   7.494  1.0064  0.6749  0.0733
  121OSM   C11F12835   0.624   6.643   7.509 -0.3319 -0.7935 -0.2924
  121OSM   H11F12836   0.709   6.571   7.504  0.4071  0.0170  0.3978
  121OSM   H11G12837   0.532   6.592   7.472 -1.0552 -0.8001  1.3952
  121OSM   C12F12838   0.593   6.664   7.655 -0.1441  0.3367  0.5302
  121OSM   H12F12839   0.513   6.592   7.681 -1.1547  0.3878 -2.1072
  121OSM   H12G12840   0.550   6.764   7.678  2.6024  1.8659 -0.4637
  121OSM   C13F12841   0.719   6.633   7.744  0.1462  0.4187  0.9302
  121OSM   H13F12842   0.792   6.712   7.717  0.4016  0.1801  0.9217
  121OSM   H13G12843   0.763   6.533   7.724  0.2291  0.4230  1.0941
  121OSM   C14F12844   0.676   6.637   7.890  0.3705  0.4652 -0.0619
  121OSM   H14F12845   0.598   6.560   7.909  0.9839 -0.3514 -0.7660
  121OSM   H14G12846   0.639   6.741   7.904  3.3646  1.5548  0.5728
  121OSM   C15F12847   0.798   6.610   7.982  0.2134 -0.1457  0.4241
  121OSM   H15F12848   0.894   6.631   7.929  0.9918 -2.3067  0.8768
  121OSM   H15G12849   0.793   6.500   7.995 -2.6433 -0.1496 -0.0909
  121OSM   C16F12850   0.812   6.700   8.100 -0.7545  0.6916  0.6263
  121OSM   H16F12851   0.895   6.662   8.163  1.5992  1.0881 -2.0357
  121OSM   H16G12852   0.720   6.713   8.161 -0.5033 -0.0223  1.1648
  121OSM   C17F12853   0.865   6.841   8.058 -0.2503 -0.8243  0.6008
  121OSM   H17F12854   0.818   6.881   7.966  1.0157 -1.2234 -0.2273
  121OSM   H17G12855   0.969   6.838   8.021 -0.0358  2.1246  0.7409
  121OSM   C18F12856   0.848   6.955   8.161 -0.4525 -0.5991 -0.5912
  121OSM   H18F12857   0.883   7.050   8.115 -0.2095 -0.2931  0.2036
  121OSM   H18G12858   0.910   6.920   8.247 -2.2906  0.1537  1.1196
  121OSM   H18H12859   0.745   6.966   8.201  0.1588 -2.1463  1.6048
  122OSM      N12860   6.447   0.843   6.041  0.2744  0.8344 -0.1607
  122OSM    C1512861   6.417   0.705   5.995  0.2577 -0.0593 -0.2509
  122OSM   H15A12862   6.324   0.700   5.941 -1.3688 -0.8348  2.4460
  122OSM   H15B12863   6.399   0.645   6.084 -0.5368  0.6142  0.0502
  122OSM   H15C12864   6.504   0.662   5.947  0.1058 -2.0704  1.1335
  122OSM    C1412865   6.569   0.831   6.133  0.9910  0.2968  0.2938
  122OSM   H14A12866   6.550   0.777   6.225 -2.2538 -1.9333 -1.4949
  122OSM   H14B12867   6.601   0.929   6.165 -0.5857  0.9219  0.0339
  122OSM   H14C12868   6.656   0.786   6.086 -0.4588 -2.7050  0.2337
  122OSM    C1312869   6.493   0.923   5.921  0.3059 -0.5333  0.0426
  122OSM   H13A12870   6.501   1.027   5.948  0.0284 -0.6304  0.5071
  122OSM   H13B12871   6.431   0.918   5.832 -1.2329 -1.0278  1.0983
  122OSM   H13C12872   6.592   0.901   5.885  0.6596  1.2235 -0.1301
  122OSM    C1212873   6.333   0.906   6.118 -0.1286  0.5995 -0.2945
  122OSM   H12A12874   6.374   0.980   6.186 -0.1385 -0.4615  0.9108
  122OSM   H12B12875   6.280   0.834   6.180  2.5190  0.8489  2.5073
  122OSM    C1112876   6.220   0.980   6.040  0.2409 -0.1956 -0.0422
  122OSM   H11A12877   6.271   1.070   5.999 -1.5447  0.5081 -0.7969
  122OSM   H11B12878   6.146   1.017   6.114  1.4094 -1.3327  1.7614
  122OSM      P12879   6.068   0.779   5.993 -0.2823  0.0142  0.0421
  122OSM    O1312880   5.932   0.822   5.961 -0.3268 -0.2287  0.4677
  122OSM    O1412881   6.110   0.648   5.938  0.3483  0.1674  0.2447
  122OSM    O1112882   6.090   0.774   6.147  0.6689 -0.1079 -0.3907
  122OSM    O1212883   6.167   0.895   5.936  0.1417  0.1578  0.1127
  122OSM    C1S12884   6.080   0.648   6.215  0.3838 -0.6125 -0.0032
  122OSM    H1S12885   6.162   0.578   6.189 -0.2743 -1.9457  1.2916
  122OSM    H1T12886   5.988   0.588   6.198  0.3306 -0.6959  0.5431
  122OSM     NF12887   6.047   0.539   6.427 -0.1839 -0.1973 -0.0604
  122OSM    HNF12888   5.948   0.531   6.434 -0.2753  0.2630 -0.6855
  122OSM    C2S12889   6.086   0.672   6.363  0.0679 -0.1491 -0.3224
  122OSM    H2S12890   6.190   0.707   6.385 -0.6037  1.6226  0.2022
  122OSM    C3S12891   5.987   0.794   6.415 -0.3234 -0.6272 -0.0547
  122OSM    H3S12892   5.888   0.761   6.377  0.2364  1.4690 -3.9170
  122OSM     O312893   6.004   0.920   6.352  0.5523  0.0144 -0.2033
  122OSM    HO312894   6.060   0.890   6.280  0.9580 -1.4491  0.6795
  122OSM    C4S12895   5.984   0.816   6.563 -0.2481  0.2237  0.2141
  122OSM    H4S12896   6.075   0.860   6.605 -0.1002  1.0231 -0.9098
  122OSM    C5S12897   5.878   0.786   6.639  0.4538  0.6604  0.3415
  122OSM    H5S12898   5.792   0.737   6.592 -1.1536  0.8290  2.9158
  122OSM    C6S12899   5.883   0.802   6.795 -0.6523  0.3657 -0.2640
  122OSM    H6S12900   5.802   0.737   6.834 -1.7468  2.1154  0.5411
  122OSM    H6T12901   5.847   0.906   6.811  1.2948  1.2668 -1.3954
  122OSM    C7S12902   6.022   0.775   6.859 -0.0973 -0.1302  0.0466
  122OSM    H7S12903   6.105   0.841   6.824  0.9464 -1.4956 -0.1529
  122OSM    H7T12904   6.039   0.680   6.804  1.1959  1.0702 -1.7670
  122OSM    C8S12905   6.018   0.762   7.011  1.2073  0.0632 -0.0633
  122OSM    H8S12906   6.115   0.721   7.045  0.4107 -0.5853  1.5169
  122OSM    H8T12907   5.935   0.691   7.030  1.3679 -0.3326 -0.8003
  122OSM    C9S12908   5.986   0.895   7.082  0.2037  0.0479  0.5570
  122OSM    H9S12909   5.879   0.921   7.072  0.1444 -0.5403 -0.5222
  122OSM    H9T12910   6.054   0.973   7.042 -0.5642 -0.1278 -1.1861
  122OSM   C10S12911   6.003   0.899   7.235 -0.1798 -0.1422 -0.4643
  122OSM   H10S12912   5.963   0.999   7.263  1.2794 -0.1687  1.9374
  122OSM   H10T12913   6.109   0.884   7.263  0.8388  0.7884 -3.4778
  122OSM   C11S12914   5.914   0.794   7.309 -0.2814 -0.1855 -0.2185
  122OSM   H11S12915   5.981   0.709   7.335 -0.2787 -0.6125 -1.5287
  122OSM   H11T12916   5.836   0.745   7.247 -0.2357 -0.2411 -0.2331
  122OSM   C12S12917   5.850   0.842   7.438  0.0049 -0.2788 -0.3783
  122OSM   H12S12918   5.776   0.768   7.476 -0.9837  1.2401  0.8171
  122OSM   H12T12919   5.808   0.944   7.433  3.0879  1.0639 -1.3577
  122OSM   C13S12920   5.958   0.861   7.551  0.3276  0.2707  0.6081
  122OSM   H13S12921   6.026   0.937   7.507  0.1145  0.4635  0.6119
  122OSM   H13T12922   6.021   0.769   7.557  1.9300  1.3752  1.5390
  122OSM   C14S12923   5.897   0.907   7.679 -0.5832  0.4994 -0.8039
  122OSM   H14S12924   5.846   0.824   7.732  0.6639 -1.1998 -2.1729
  122OSM   H14T12925   5.828   0.991   7.654  0.5625  1.4125 -0.9888
  122OSM   C15S12926   6.003   0.946   7.789  0.1371 -0.1055 -0.4710
  122OSM   H15S12927   6.068   1.021   7.738  0.3329  0.3132  0.3662
  122OSM   H15T12928   6.054   0.854   7.826  0.9500  0.0616 -1.1259
  122OSM   C16S12929   5.952   1.022   7.920  0.2485  0.6310  0.4442
  122OSM   H16S12930   5.895   1.110   7.883  1.3972  0.9903 -0.5490
  122OSM   H16T12931   6.042   1.054   7.977  0.6813 -0.2414  0.2671
  122OSM   C17S12932   5.861   0.952   8.019  0.7355  0.4593 -0.1613
  122OSM   H17S12933   5.900   0.855   8.057 -2.4524 -0.8743  0.0213
  122OSM   H17T12934   5.777   0.921   7.953 -0.1425 -0.6457  1.4272
  122OSM   C18S12935   5.817   1.037   8.137  0.5665 -0.5471 -0.0506
  122OSM   H18S12936   5.900   1.031   8.210 -1.5451 -1.2881  2.4333
  122OSM   H18T12937   5.729   1.003   8.195 -0.4374  1.8560 -0.0140
  122OSM   H18U12938   5.789   1.143   8.115  2.3644  0.1066  0.6537
  122OSM    C1F12939   6.134   0.440   6.438 -0.3604  0.8088 -0.1990
  122OSM     OF12940   6.254   0.462   6.428  0.0694 -0.8185 -0.1442
  122OSM    C2F12941   6.089   0.304   6.488  0.5940  1.0904 -0.4464
  122OSM    H2F12942   6.088   0.233   6.403  0.1769  2.6080 -1.7714
  122OSM    H2G12943   5.990   0.321   6.536  0.9681 -0.3833  0.8900
  122OSM    C3F12944   6.174   0.240   6.598  1.6498 -0.0738 -0.5295
  122OSM    H3F12945   6.272   0.212   6.555  1.4345 -2.9957  0.6502
  122OSM    H3G12946   6.130   0.146   6.638  0.8763  0.6393  0.3336
  122OSM    C4F12947   6.186   0.338   6.719  0.1946  0.4315 -0.8836
  122OSM    H4F12948   6.160   0.444   6.700  0.8413  0.2183 -3.2649
  122OSM    H4G12949   6.293   0.328   6.747  0.4509  0.6365 -1.7624
  122OSM    C5F12950   6.095   0.284   6.834 -0.1777 -0.0239 -0.3299
  122OSM    H5F12951   6.119   0.176   6.845 -1.1912 -0.5316 -2.6404
  122OSM    H5G12952   5.991   0.304   6.801  1.0476  2.6975 -2.9983
  122OSM    C6F12953   6.132   0.356   6.966  0.0492  0.6394 -0.6929
  122OSM    H6F12954   6.109   0.464   6.955  0.4785  0.9331  0.9666
  122OSM    H6G12955   6.243   0.354   6.978  0.5239 -3.6138 -3.5761
  122OSM    C7F12956   6.050   0.301   7.091 -0.1573 -0.2415  0.0990
  122OSM    H7F12957   6.079   0.195   7.102 -2.9316 -1.0701  0.1858
  122OSM    H7G12958   5.941   0.305   7.071  0.3439 -0.8152 -3.1964
  122OSM    C8F12959   6.068   0.372   7.223  0.9018 -0.5463  0.2683
  122OSM    H8F12960   5.997   0.320   7.291 -1.3205  0.4390 -1.2071
  122OSM    H8G12961   6.024   0.474   7.219 -1.5491 -1.4808  1.4630
  122OSM    C9F12962   6.208   0.351   7.263 -0.7822 -1.4390 -0.1299
  122OSM    H9F12963   6.280   0.299   7.199  0.1762 -1.9722  1.3361
  122OSM   C10F12964   6.263   0.395   7.383  0.3619  0.2722 -0.1552
  122OSM   H10F12965   6.370   0.374   7.400  0.2998 -2.1787 -2.1566
  122OSM   C11F12966   6.192   0.477   7.485 -0.0863  0.2575 -0.1969
  122OSM   H11F12967   6.097   0.524   7.452 -0.1524 -0.5707 -1.2646
  122OSM   H11G12968   6.263   0.560   7.506 -1.5146  0.9622  2.1858
  122OSM   C12F12969   6.165   0.401   7.616 -0.2870  0.2622 -0.0334
  122OSM   H12F12970   6.246   0.338   7.658 -0.3055  0.4561  0.3005
  122OSM   H12G12971   6.072   0.339   7.620 -0.9041  1.2210  2.2174
  122OSM   C13F12972   6.149   0.505   7.730 -0.4712 -0.1756 -0.0809
  122OSM   H13F12973   6.072   0.579   7.700 -0.5455 -0.5145 -0.7275
  122OSM   H13G12974   6.246   0.560   7.729 -0.3536 -0.3396  1.0029
  122OSM   C14F12975   6.109   0.445   7.862  0.0439  0.2257 -0.0593
  122OSM   H14F12976   6.173   0.356   7.883 -0.8101 -0.4625 -0.3114
  122OSM   H14G12977   6.003   0.412   7.858  0.0789  0.0767  0.1840
  122OSM   C15F12978   6.131   0.538   7.978 -0.0500 -0.1812 -0.1519
  122OSM   H15F12979   6.070   0.631   7.972  2.3384  1.4895 -0.0298
  122OSM   H15G12980   6.234   0.579   7.985 -0.6535  1.3198  0.3830
  122OSM   C16F12981   6.108   0.476   8.118  0.1780 -0.4287  0.2785
  122OSM   H16F12982   6.180   0.393   8.132 -2.1873 -2.5566  0.6024
  122OSM   H16G12983   6.012   0.419   8.122 -1.0152  1.1069 -2.8914
  122OSM   C17F12984   6.115   0.575   8.230 -0.0264 -0.8518 -0.1094
  122OSM   H17F12985   6.042   0.659   8.231  0.8107 -0.1202  0.6554
  122OSM   H17G12986   6.216   0.620   8.221 -0.1192 -0.9299 -2.0358
  122OSM   C18F12987   6.108   0.494   8.361  0.0576  0.6152 -0.0263
  122OSM   H18F12988   6.004   0.460   8.375 -0.0872  0.7666 -0.6921
  122OSM   H18G12989   6.140   0.540   8.457 -0.5114  0.3329  0.2995
  122OSM   H18H12990   6.174   0.405   8.361  1.3344  1.5196 -0.2370
  123OSM      N12991   5.402   3.152   6.643 -0.3467 -0.4629 -0.0529
  123OSM    C1512992   5.336   3.181   6.509  0.0366  0.0707 -0.0704
  123OSM   H15A12993   5.255   3.112   6.489 -1.5680  0.8797  3.0455
  123OSM   H15B12994   5.407   3.186   6.428 -0.3509 -1.8375 -0.5765
  123OSM   H15C12995   5.284   3.275   6.510  0.9910  0.6142 -0.3170
  123OSM    C1412996   5.511   3.043   6.649  0.5987  0.1608  0.6303
  123OSM   H14A12997   5.570   3.039   6.740  0.8129 -2.1322  0.4394
  123OSM   H14B12998   5.582   3.061   6.570  0.0258  0.6419  0.2190
  123OSM   H14C12999   5.463   2.950   6.625 -2.1773  1.5614  0.3348
  123OSM    C1313000   5.470   3.271   6.690 -0.1110  0.0877  0.0366
  123OSM   H13A13001   5.554   3.301   6.629 -0.5463 -1.2022 -1.2583
  123OSM   H13B13002   5.523   3.249   6.782  1.0823  0.5222 -0.5243
  123OSM   H13C13003   5.409   3.358   6.709  1.2623  0.7576  1.7046
  123OSM    C1213004   5.286   3.118   6.743 -0.4864  0.6891 -0.6524
  123OSM   H12A13005   5.332   3.145   6.837  0.6091 -1.2088 -0.5866
  123OSM   H12B13006   5.265   3.014   6.725  0.9004  0.7568 -3.1055
  123OSM    C1113007   5.149   3.193   6.740 -0.0833 -0.2149 -0.2236
  123OSM   H11A13008   5.177   3.298   6.715 -0.2649 -0.5513 -1.9811
  123OSM   H11B13009   5.105   3.177   6.840 -0.0043  1.0889  0.0356
  123OSM      P13010   4.948   3.238   6.563  0.0323 -0.4337  0.2005
  123OSM    O1313011   5.015   3.328   6.467 -0.0752 -0.8705 -0.0758
  123OSM    O1413012   4.837   3.159   6.504 -0.3200  0.2167 -0.3431
  123OSM    O1113013   4.883   3.328   6.682 -0.4553  0.3103 -0.2646
  123OSM    O1213014   5.059   3.148   6.636 -0.0952 -0.2614 -0.2439
  123OSM    C1S13015   4.814   3.259   6.782  0.2853 -0.0144 -0.0975
  123OSM    H1S13016   4.879   3.176   6.817 -0.6681 -0.9570 -0.4714
  123OSM    H1T13017   4.721   3.217   6.735 -0.4083  0.1729  1.0703
  123OSM     NF13018   4.718   3.274   7.009 -0.3110  0.2467  0.0418
  123OSM    HNF13019   4.622   3.252   7.019 -0.6355  0.8969 -1.3504
  123OSM    C2S13020   4.759   3.351   6.892  0.1204 -0.1200  0.1540
  123OSM    H2S13021   4.840   3.423   6.916  0.1404  1.1729 -3.1825
  123OSM    C3S13022   4.644   3.435   6.826 -0.4033 -0.3168 -1.0421
  123OSM    H3S13023   4.561   3.367   6.798  0.5732 -1.1425 -1.9989
  123OSM     O313024   4.677   3.487   6.701  0.3800 -0.0776  0.1435
  123OSM    HO313025   4.760   3.441   6.684  1.0228  0.7288  0.9989
  123OSM    C4S13026   4.598   3.545   6.924  0.7484  0.2277  0.3381
  123OSM    H4S13027   4.547   3.514   7.017 -1.1159  3.8088  0.6880
  123OSM    C5S13028   4.633   3.674   6.915 -0.3973  0.2232  0.2724
  123OSM    H5S13029   4.691   3.723   6.835 -0.3418  2.4288  1.5959
  123OSM    C6S13030   4.586   3.767   7.027  0.1509  0.1199 -0.4052
  123OSM    H6S13031   4.478   3.751   7.047  0.1583  0.1871 -0.3140
  123OSM    H6T13032   4.583   3.870   6.986 -0.0904 -1.1569 -3.9673
  123OSM    C7S13033   4.673   3.770   7.159  0.3194 -0.8207 -0.2394
  123OSM    H7S13034   4.654   3.857   7.225  0.8205 -0.3938 -0.6394
  123OSM    H7T13035   4.782   3.768   7.137  0.4702  0.1597  0.3724
  123OSM    C8S13036   4.655   3.641   7.247 -0.4242  0.1189 -0.0989
  123OSM    H8S13037   4.719   3.661   7.336 -0.0143  1.9586 -0.7645
  123OSM    H8T13038   4.689   3.554   7.187 -1.2724  0.7892 -1.5875
  123OSM    C9S13039   4.510   3.620   7.292 -0.8950 -0.2768  0.0807
  123OSM    H9S13040   4.453   3.561   7.217 -0.1464 -1.9165  0.7388
  123OSM    H9T13041   4.459   3.718   7.300 -0.2058  0.0630  0.4452
  123OSM   C10S13042   4.501   3.541   7.429 -0.0010 -0.0458  0.1270
  123OSM   H10S13043   4.567   3.603   7.494 -0.6004  1.0940 -0.3260
  123OSM   H10T13044   4.544   3.439   7.417  0.8205  0.2454  0.5331
  123OSM   C11S13045   4.364   3.523   7.492  0.0463 -0.9235 -0.1076
  123OSM   H11S13046   4.297   3.475   7.418  0.0263  0.1552 -0.8167
  123OSM   H11T13047   4.324   3.625   7.512  0.6016 -0.8636  0.7288
  123OSM   C12S13048   4.370   3.454   7.633 -0.7012  0.2225  0.2127
  123OSM   H12S13049   4.465   3.486   7.681 -0.6751 -1.6226  1.4668
  123OSM   H12T13050   4.388   3.348   7.607  1.1850  1.0141 -2.0894
  123OSM   C13S13051   4.242   3.469   7.710 -0.3951  0.0295  0.3377
  123OSM   H13S13052   4.150   3.441   7.655  1.0069 -0.1616 -2.0438
  123OSM   H13T13053   4.227   3.574   7.742 -1.0520  0.0179  0.0706
  123OSM   C14S13054   4.243   3.384   7.840 -0.2387 -0.5955  0.4441
  123OSM   H14S13055   4.334   3.422   7.892  0.8307  2.2836 -3.0429
  123OSM   H14T13056   4.245   3.275   7.818  0.2732 -0.6132  0.5607
  123OSM   C15S13057   4.121   3.400   7.935 -0.3115  0.4106 -0.2740
  123OSM   H15S13058   4.030   3.372   7.878 -1.8220  3.1159  0.6670
  123OSM   H15T13059   4.107   3.507   7.959  0.6317  0.4958 -0.0570
  123OSM   C16S13060   4.146   3.308   8.059  0.2259  0.3839  0.1048
  123OSM   H16S13061   4.223   3.357   8.122 -0.9725  0.7496  1.3443
  123OSM   H16T13062   4.169   3.204   8.027  1.7265  0.2549  1.4742
  123OSM   C17S13063   4.016   3.321   8.140  0.2848  0.6006  0.0083
  123OSM   H17S13064   3.942   3.285   8.065  0.3541  2.6801 -1.1382
  123OSM   H17T13065   3.999   3.423   8.180 -0.8329  0.1097  0.8267
  123OSM   C18S13066   4.013   3.237   8.268  0.0776 -0.7607  0.5805
  123OSM   H18S13067   3.916   3.240   8.321  0.1818  1.7185  0.7741
  123OSM   H18T13068   4.085   3.283   8.339 -1.1744 -1.1663  2.1760
  123OSM   H18U13069   4.046   3.131   8.265  0.9814 -0.4739 -0.1795
  123OSM    C1F13070   4.813   3.226   7.083 -1.4129  0.7620 -0.3228
  123OSM     OF13071   4.932   3.240   7.057  0.1984  0.4355 -0.3064
  123OSM    C2F13072   4.773   3.140   7.196  0.7256  0.0726 -0.0323
  123OSM    H2F13073   4.822   3.041   7.186 -0.0932 -0.6509  2.5598
  123OSM    H2G13074   4.665   3.123   7.178  0.3410  2.9170 -0.9381
  123OSM    C3F13075   4.791   3.218   7.331  0.4133 -0.5174  0.0326
  123OSM    H3F13076   4.717   3.300   7.332 -0.9362 -1.6946  0.8942
  123OSM    H3G13077   4.894   3.259   7.334  0.2413 -0.0086 -0.8641
  123OSM    C4F13078   4.774   3.113   7.446  0.3812 -0.2780  1.0173
  123OSM    H4F13079   4.871   3.059   7.454  1.0626  0.7762  0.1183
  123OSM    H4G13080   4.690   3.045   7.420  0.0269 -0.3212  2.2083
  123OSM    C5F13081   4.735   3.168   7.583  0.0285 -0.1383 -0.5835
  123OSM    H5F13082   4.770   3.272   7.599  0.7742 -0.2337 -1.5146
  123OSM    H5G13083   4.791   3.108   7.658 -0.1535  1.0879  0.5836
  123OSM    C6F13084   4.586   3.174   7.623  0.5459 -0.2466  0.2270
  123OSM    H6F13085   4.533   3.217   7.536  1.5736 -1.2805 -0.9497
  123OSM    H6G13086   4.578   3.237   7.714 -1.5508 -1.6800  1.1193
  123OSM    C7F13087   4.511   3.043   7.653 -0.5072 -0.8842 -0.0447
  123OSM    H7F13088   4.543   2.979   7.568  1.7412  1.1160 -0.7968
  123OSM    H7G13089   4.404   3.071   7.648 -0.1485  0.4757 -0.4079
  123OSM    C8F13090   4.550   2.969   7.784  0.4635  0.2541  0.3149
  123OSM    H8F13091   4.654   2.934   7.770  0.1392 -0.8781  0.6244
  123OSM    H8G13092   4.474   2.887   7.780  1.7845 -1.1030  1.5253
  123OSM    C9F13093   4.524   3.056   7.903 -1.3007 -0.4084  0.0053
  123OSM    H9F13094   4.434   3.120   7.905 -0.7516  0.3741 -0.0037
  123OSM   C10F13095   4.583   3.034   8.020 -0.0599  0.3509 -0.6171
  123OSM   H10F13096   4.547   3.080   8.114 -2.0091  0.7583 -1.5250
  123OSM   C11F13097   4.682   2.918   8.044 -0.4890 -0.6877 -0.1957
  123OSM   H11F13098   4.778   2.960   8.081  0.3948 -1.3960 -1.6054
  123OSM   H11G13099   4.706   2.875   7.944  0.3439  1.8939 -1.2108
  123OSM   C12F13100   4.634   2.808   8.142  1.3770 -0.3525  0.3536
  123OSM   H12F13101   4.556   2.755   8.084  1.6424  1.3209 -1.6532
  123OSM   H12G13102   4.588   2.861   8.228  1.2686  1.1178 -0.5782
  123OSM   C13F13103   4.738   2.711   8.198  0.0326 -0.6668  0.1375
  123OSM   H13F13104   4.791   2.689   8.103 -0.5139  3.4057 -1.3001
  123OSM   H13G13105   4.690   2.617   8.234  1.4440 -2.5082 -2.4133
  123OSM   C14F13106   4.822   2.768   8.307 -0.4741 -0.4421  0.1120
  123OSM   H14F13107   4.759   2.783   8.398 -1.8459  2.8628 -1.2294
  123OSM   H14G13108   4.866   2.865   8.277  0.9006 -0.9776  0.3429
  123OSM   C15F13109   4.930   2.669   8.343  0.7094  0.2184  0.0654
  123OSM   H15F13110   4.978   2.661   8.243 -1.5776 -1.2866 -1.0025
  123OSM   H15G13111   4.879   2.572   8.360  2.8486 -0.8318  0.8650
  123OSM   C16F13112   5.017   2.694   8.469 -0.0316  0.4546  0.2677
  123OSM   H16F13113   4.993   2.801   8.490 -0.1427  1.2119 -3.1200
  123OSM   H16G13114   5.124   2.684   8.440 -0.0008  1.0147  0.1709
  123OSM   C17F13115   4.976   2.622   8.603  0.2926 -0.0969  0.6596
  123OSM   H17F13116   4.866   2.608   8.601  0.1179 -0.4786  4.8695
  123OSM   H17G13117   5.010   2.689   8.685 -2.8808  1.4612  0.8301
  123OSM   C18F13118   5.040   2.483   8.618 -0.3921  0.8992 -0.9217
  123OSM   H18F13119   5.150   2.483   8.633 -0.2999 -0.0154 -1.5212
  123OSM   H18G13120   5.024   2.425   8.524  0.9920 -0.8216 -0.1510
  123OSM   H18H13121   4.995   2.422   8.700  1.9172  1.4052  0.8280
  124OSM      N13122   3.283   0.894   6.391  0.1464  0.5027  0.6395
  124OSM    C1513123   3.201   0.852   6.269 -0.3827  0.1423 -0.4313
  124OSM   H15A13124   3.248   0.919   6.198  1.6466 -0.5393  0.1987
  124OSM   H15B13125   3.097   0.877   6.282  0.1394  1.8889  0.7718
  124OSM   H15C13126   3.209   0.747   6.245 -0.9588 -0.2329  0.9678
  124OSM    C1413127   3.248   0.826   6.522  0.6403 -0.8755 -0.5692
  124OSM   H14A13128   3.320   0.832   6.602  0.2490 -2.0547 -0.0934
  124OSM   H14B13129   3.220   0.723   6.508 -0.6141 -0.8216  1.1839
  124OSM   H14C13130   3.154   0.865   6.560  1.5309 -1.8421  3.0210
  124OSM    C1313131   3.431   0.848   6.356  0.2987 -1.1733  0.1143
  124OSM   H13A13132   3.447   0.741   6.362  1.9150 -0.8739  1.7269
  124OSM   H13B13133   3.494   0.893   6.431 -0.2298 -0.1456 -0.0437
  124OSM   H13C13134   3.464   0.878   6.258  2.0999 -2.0713  0.4049
  124OSM    C1213135   3.283   1.046   6.415 -0.9250 -0.1525 -0.2401
  124OSM   H12A13136   3.366   1.063   6.482  0.0993  1.8932 -1.9034
  124OSM   H12B13137   3.192   1.081   6.463  1.6225  3.0855  2.8485
  124OSM    C1113138   3.304   1.135   6.286  0.1502  0.0698 -0.1131
  124OSM   H11A13139   3.397   1.109   6.231 -0.4201  0.0560 -1.0971
  124OSM   H11B13140   3.324   1.235   6.330  0.1598 -0.2732  0.6643
  124OSM      P13141   3.064   1.218   6.223 -0.3452  0.3524 -0.2563
  124OSM    O1313142   3.103   1.351   6.176 -0.4265 -0.2933  0.1289
  124OSM    O1413143   2.954   1.151   6.155  0.0165  0.7126  0.0631
  124OSM    O1113144   3.041   1.228   6.381  0.1698  0.1578 -0.1812
  124OSM    O1213145   3.188   1.130   6.198  0.0318  0.1037 -0.2214
  124OSM    C1S13146   2.949   1.143   6.459 -0.3326 -0.1474  0.0437
  124OSM    H1S13147   2.987   1.039   6.462  2.0768  0.6103 -1.2419
  124OSM    H1T13148   2.851   1.135   6.408 -0.4536 -0.8857  0.3805
  124OSM     NF13149   2.840   1.084   6.664  0.3778  0.5381 -0.0875
  124OSM    HNF13150   2.741   1.086   6.679  0.6407  0.9280  1.9477
  124OSM    C2S13151   2.908   1.196   6.602  0.0288  0.0570  0.3820
  124OSM    H2S13152   3.001   1.197   6.662 -0.1872 -0.0852  0.7208
  124OSM    C3S13153   2.834   1.334   6.592 -0.5014 -0.0817  0.9089
  124OSM    H3S13154   2.731   1.323   6.552 -0.2205 -1.8735  0.5737
  124OSM     O313155   2.882   1.421   6.497  0.4504  0.1761 -0.4104
  124OSM    HO313156   2.933   1.360   6.444 -0.2940  0.5450 -1.5961
  124OSM    C4S13157   2.838   1.412   6.726  1.3134  0.5366  0.3498
  124OSM    H4S13158   2.737   1.402   6.770 -0.1570  0.8127 -2.6771
  124OSM    C5S13159   2.938   1.487   6.775 -0.2542  0.0074  0.3247
  124OSM    H5S13160   3.035   1.486   6.724 -0.7968 -2.6005 -0.8219
  124OSM    C6S13161   2.927   1.571   6.900  0.1969  0.5476 -0.4444
  124OSM    H6S13162   2.820   1.596   6.914 -0.6655 -2.9813  0.2766
  124OSM    H6T13163   2.981   1.669   6.896 -1.5711  1.5794 -0.0748
  124OSM    C7S13164   2.987   1.500   7.029  0.0546  0.2563  0.1400
  124OSM    H7S13165   3.093   1.479   7.004  0.8528  1.8216  1.9790
  124OSM    H7T13166   2.922   1.413   7.051  1.1043  0.1285  3.0386
  124OSM    C8S13167   3.001   1.592   7.146  0.7494  0.1331 -0.1792
  124OSM    H8S13168   2.899   1.635   7.159  0.9493  0.3645  0.6637
  124OSM    H8T13169   3.075   1.674   7.136  3.4302 -1.5156  3.7397
  124OSM    C9S13170   3.048   1.513   7.267  0.0250  0.6950  0.5524
  124OSM    H9S13171   3.153   1.478   7.256 -0.6368 -1.9472  1.8267
  124OSM    H9T13172   2.982   1.424   7.280 -0.3796  0.8322 -0.4196
  124OSM   C10S13173   3.062   1.600   7.401 -0.0007  0.3646  0.4606
  124OSM   H10S13174   2.959   1.622   7.434 -1.1276 -3.0912 -0.2985
  124OSM   H10T13175   3.112   1.698   7.385 -0.6604  0.4808 -1.0806
  124OSM   C11S13176   3.117   1.518   7.520  0.4899  0.5377 -0.4135
  124OSM   H11S13177   3.226   1.539   7.510 -0.0178  2.4900 -3.1962
  124OSM   H11T13178   3.089   1.412   7.502  1.2684  0.3462 -0.5474
  124OSM   C12S13179   3.060   1.572   7.646 -0.0496  0.9411 -0.4706
  124OSM   H12S13180   2.949   1.566   7.644 -0.0014  0.0669 -1.2900
  124OSM   H12T13181   3.087   1.678   7.664  0.6878  0.5508  0.8640
  124OSM   C13S13182   3.105   1.495   7.769  0.1124 -0.2676 -0.7907
  124OSM   H13S13183   3.216   1.497   7.766  0.2087 -2.6423 -0.7947
  124OSM   H13T13184   3.065   1.391   7.762 -2.8624  0.8979 -3.0422
  124OSM   C14S13185   3.047   1.545   7.903  1.0088 -0.1329 -0.1488
  124OSM   H14S13186   3.053   1.656   7.901  0.0783 -0.0708  0.1203
  124OSM   H14T13187   3.124   1.513   7.977  0.7976 -0.9578 -0.2754
  124OSM   C15S13188   2.912   1.481   7.938  0.4033 -0.1893  0.7672
  124OSM   H15S13189   2.919   1.372   7.922 -1.9144 -0.5093  1.4982
  124OSM   H15T13190   2.842   1.515   7.858 -0.4863  0.0354  1.6166
  124OSM   C16S13191   2.848   1.510   8.073 -0.1564 -0.3519 -0.8547
  124OSM   H16S13192   2.831   1.620   8.075 -0.2102 -0.3753  0.5735
  124OSM   H16T13193   2.914   1.498   8.161 -1.2630  0.7284  0.1610
  124OSM   C17S13194   2.714   1.438   8.097 -0.2343  0.0029  0.3068
  124OSM   H17S13195   2.725   1.330   8.119 -0.1435 -0.1185 -0.3088
  124OSM   H17T13196   2.643   1.448   8.013 -2.1352  0.4583  1.9071
  124OSM   C18S13197   2.645   1.501   8.212  0.2459  0.4365 -0.3902
  124OSM   H18S13198   2.609   1.606   8.202  2.1845  1.4355  2.1054
  124OSM   H18T13199   2.711   1.496   8.301  0.6150 -1.3477 -0.7185
  124OSM   H18U13200   2.555   1.440   8.232 -1.5990  3.6025  1.8720
  124OSM    C1F13201   2.899   0.970   6.710 -0.4190 -0.1559  0.1854
  124OSM     OF13202   3.022   0.956   6.705  0.5645 -0.0619  0.1540
  124OSM    C2F13203   2.810   0.855   6.748 -1.0418 -0.3691  0.3589
  124OSM    H2F13204   2.784   0.801   6.655  1.2837  1.7358 -1.6420
  124OSM    H2G13205   2.711   0.890   6.783 -0.7396  0.2249  0.6457
  124OSM    C3F13206   2.882   0.754   6.845 -0.6912  0.3617 -0.8854
  124OSM    H3F13207   2.988   0.733   6.820 -0.2357  0.5536  0.7693
  124OSM    H3G13208   2.836   0.654   6.831 -0.3802  0.1262 -0.2691
  124OSM    C4F13209   2.874   0.790   6.992  0.3511  0.1584 -0.1704
  124OSM    H4F13210   2.769   0.771   7.022  0.4103  0.6466  0.3572
  124OSM    H4G13211   2.904   0.897   7.001  0.8279  0.0564 -0.4929
  124OSM    C5F13212   2.961   0.708   7.085 -0.3355 -0.7271 -0.5292
  124OSM    H5F13213   3.070   0.718   7.064 -0.1976  0.7689  0.7213
  124OSM    H5G13214   2.929   0.602   7.076 -2.3790 -0.1732 -0.1829
  124OSM    C6F13215   2.939   0.736   7.233  0.5407 -0.3040  0.2622
  124OSM    H6F13216   2.842   0.709   7.280  1.4262  1.8372  3.6419
  124OSM    H6G13217   2.926   0.846   7.232  2.7370  0.0360 -2.0857
  124OSM    C7F13218   3.051   0.690   7.323  0.5057  0.5440  0.6707
  124OSM    H7F13219   3.137   0.753   7.292  1.1703  2.2663  5.2674
  124OSM    H7G13220   3.079   0.584   7.304 -1.4989  0.1111 -0.1053
  124OSM    C8F13221   3.032   0.730   7.471 -0.3039  0.6503 -0.6823
  124OSM    H8F13222   2.943   0.669   7.500  1.4433 -0.9271  1.6883
  124OSM    H8G13223   2.998   0.835   7.472  1.0023  1.1241  2.2155
  124OSM    C9F13224   3.156   0.702   7.547  0.1132 -0.4555  0.2148
  124OSM    H9F13225   3.245   0.745   7.499  0.1023 -1.1651 -0.4587
  124OSM   C10F13226   3.157   0.630   7.654  0.6860  0.5475 -0.4818
  124OSM   H10F13227   3.257   0.613   7.698  1.0735 -0.8956 -1.8395
  124OSM   C11F13228   3.041   0.566   7.730  0.5210  0.0163 -0.4807
  124OSM   H11F13229   3.075   0.462   7.749  1.7363  0.5626  0.4215
  124OSM   H11G13230   2.945   0.570   7.674 -0.6099 -0.3060  1.3200
  124OSM   C12F13231   3.022   0.651   7.851 -0.3914  0.0327 -0.0029
  124OSM   H12F13232   2.923   0.628   7.896 -0.9554  3.0450  0.5329
  124OSM   H12G13233   3.011   0.758   7.822 -0.0668  0.7966  2.4279
  124OSM   C13F13234   3.135   0.655   7.961  0.4901  0.8492  0.3101
  124OSM   H13F13235   3.123   0.740   8.031  1.1812  1.2025  0.0157
  124OSM   H13G13236   3.229   0.679   7.906  0.9886  0.6316  1.0453
  124OSM   C14F13237   3.140   0.524   8.053  0.3600 -0.2250  0.0953
  124OSM   H14F13238   3.182   0.441   7.993  2.3777  1.7848 -1.4399
  124OSM   H14G13239   3.042   0.492   8.093  1.4483 -1.1487  2.1847
  124OSM   C15F13240   3.227   0.557   8.175  0.0995 -0.2215  0.2144
  124OSM   H15F13241   3.185   0.654   8.211 -2.8086 -1.0430 -0.6538
  124OSM   H15G13242   3.327   0.575   8.129  0.4980 -0.2259  1.0671
  124OSM   C16F13243   3.246   0.447   8.284  0.8393 -0.0593  0.1684
  124OSM   H16F13244   3.285   0.351   8.245  0.5233  0.7236 -2.2782
  124OSM   H16G13245   3.148   0.419   8.328 -0.0669  0.0630 -1.6850
  124OSM   C17F13246   3.327   0.490   8.402 -0.1513 -0.5881 -0.2602
  124OSM   H17F13247   3.437   0.486   8.392 -0.0944  1.3779 -0.9907
  124OSM   H17G13248   3.314   0.399   8.464  0.1237 -1.1232 -0.9722
  124OSM   C18F13249   3.276   0.618   8.474 -0.5316 -0.1016  0.6595
  124OSM   H18F13250   3.299   0.706   8.410  0.0251 -1.0631 -0.5230
  124OSM   H18G13251   3.338   0.623   8.566  0.8434 -0.4138 -0.2194
  124OSM   H18H13252   3.166   0.620   8.489 -0.6096 -0.2587  0.1495
  125OSM      N13253   1.051   5.079   5.813  0.4394 -0.5671  0.7890
  125OSM    C1513254   1.149   5.133   5.721  0.5792 -0.3167  0.1588
  125OSM   H15A13255   1.191   5.055   5.659  2.7736 -0.5101  1.7790
  125OSM   H15B13256   1.232   5.175   5.776  0.7915  0.7634 -0.9288
  125OSM   H15C13257   1.102   5.209   5.660 -1.5267 -1.9055 -0.2894
  125OSM    C1413258   1.003   5.196   5.895  0.6579  0.1588  0.4318
  125OSM   H14A13259   0.924   5.234   5.831  0.7101  0.2334  0.4118
  125OSM   H14B13260   1.082   5.265   5.920  0.9712  0.0623 -0.2585
  125OSM   H14C13261   0.960   5.150   5.983 -0.3638 -1.2902 -0.7779
  125OSM    C1313262   0.939   5.032   5.730  0.9929 -0.3260 -0.1648
  125OSM   H13A13263   0.973   4.965   5.652 -0.4404 -0.3692 -0.7839
  125OSM   H13B13264   0.900   5.121   5.683  0.7567  0.1440  0.9016
  125OSM   H13C13265   0.867   4.977   5.789  2.4511 -2.7210 -0.4669
  125OSM    C1213266   1.113   4.975   5.903 -1.0214 -0.5898 -0.2911
  125OSM   H12A13267   1.168   4.903   5.844 -0.0492  0.0559 -0.2115
  125OSM   H12B13268   1.041   4.916   5.957 -0.6877  0.2926  1.1848
  125OSM    C1113269   1.226   5.022   6.003 -0.1014  0.1914  0.1157
  125OSM   H11A13270   1.226   4.958   6.094  3.9260  0.3335  0.4085
  125OSM   H11B13271   1.205   5.125   6.041 -0.7423  0.0420  0.1740
  125OSM      P13272   1.432   4.895   5.912  0.5933 -0.4948 -0.1615
  125OSM    O1313273   1.340   4.819   5.823 -0.1962  0.2530  0.4022
  125OSM    O1413274   1.564   4.931   5.865 -0.0452  0.7576  0.5905
  125OSM    O1113275   1.443   4.822   6.048 -0.0285  0.1491 -0.0345
  125OSM    O1213276   1.359   5.028   5.951  0.0754 -0.4321 -0.1467
  125OSM    C1S13277   1.490   4.891   6.170  0.2741 -0.1114  0.6331
  125OSM    H1S13278   1.468   5.000   6.165  0.6961 -0.0528 -0.0679
  125OSM    H1T13279   1.601   4.887   6.166  0.2522 -2.0425  0.7390
  125OSM     NF13280   1.493   4.892   6.424 -0.2844  0.0573  0.2506
  125OSM    HNF13281   1.561   4.855   6.487 -0.6562 -0.4475  0.3652
  125OSM    C2S13282   1.449   4.821   6.312  0.4133 -0.0725  0.6874
  125OSM    H2S13283   1.338   4.815   6.315  0.3024 -1.7807 -2.1972
  125OSM    C3S13284   1.503   4.673   6.304 -0.0655 -0.5175 -0.5729
  125OSM    H3S13285   1.613   4.691   6.296 -0.2815  0.2970 -2.1333
  125OSM     O313286   1.457   4.600   6.190  0.0012 -0.6022  0.1768
  125OSM    HO313287   1.423   4.666   6.129  0.1534 -2.4233 -2.0367
  125OSM    C4S13288   1.475   4.606   6.439  0.4727 -1.0059 -0.3606
  125OSM    H4S13289   1.557   4.631   6.507 -1.1699  2.8623  0.5082
  125OSM    C5S13290   1.372   4.535   6.476  0.4401  0.4037  0.1185
  125OSM    H5S13291   1.302   4.499   6.399  0.5443 -0.2710  0.3323
  125OSM    C6S13292   1.364   4.474   6.614 -0.5098 -0.4374  0.6675
  125OSM    H6S13293   1.375   4.364   6.617  2.3151 -0.2314  3.0483
  125OSM    H6T13294   1.267   4.513   6.651  0.8776  3.3748  0.7862
  125OSM    C7S13295   1.468   4.516   6.724  0.1279 -0.4353  0.5094
  125OSM    H7S13296   1.429   4.512   6.828 -0.2330 -0.5942  0.3701
  125OSM    H7T13297   1.504   4.621   6.714 -1.6612  0.2371  0.7534
  125OSM    C8S13298   1.601   4.439   6.728  0.1575 -0.9357 -0.5333
  125OSM    H8S13299   1.651   4.440   6.629  0.2491  1.6839 -0.5393
  125OSM    H8T13300   1.582   4.338   6.769 -3.5874  0.9140  3.0305
  125OSM    C9S13301   1.702   4.523   6.811  0.6959  0.3183  0.0782
  125OSM    H9S13302   1.697   4.626   6.768 -0.2628 -0.5753 -2.0786
  125OSM    H9T13303   1.800   4.479   6.782  1.0752  0.9689  0.3604
  125OSM   C10S13304   1.681   4.529   6.962  0.1623 -0.9685  0.0407
  125OSM   H10S13305   1.588   4.587   6.979  0.1176 -1.0437  0.0517
  125OSM   H10T13306   1.764   4.590   7.004 -1.0830  2.9920 -2.7397
  125OSM   C11S13307   1.660   4.397   7.033  0.4111  0.3107  0.9624
  125OSM   H11S13308   1.747   4.337   7.002 -0.4034  0.1875 -1.2631
  125OSM   H11T13309   1.567   4.355   6.989  0.8232  2.6315 -2.4570
  125OSM   C12S13310   1.650   4.410   7.188 -0.1414 -0.3737 -0.4675
  125OSM   H12S13311   1.602   4.320   7.233  2.3072 -1.1237  0.8451
  125OSM   H12T13312   1.580   4.493   7.208  0.4127  0.0300 -0.1841
  125OSM   C13S13313   1.778   4.444   7.261  0.3746  0.5920  0.4465
  125OSM   H13S13314   1.796   4.554   7.256  1.7380  0.3423 -1.6605
  125OSM   H13T13315   1.870   4.391   7.228 -0.4367 -1.4961  1.3839
  125OSM   C14S13316   1.758   4.401   7.410  0.1800  0.2187  0.2997
  125OSM   H14S13317   1.769   4.290   7.416 -0.8829  0.0806 -0.1188
  125OSM   H14T13318   1.651   4.420   7.429  0.5713  3.0665  0.0124
  125OSM   C15S13319   1.848   4.466   7.510  0.0372  0.3579  0.0100
  125OSM   H15S13320   1.823   4.574   7.508  0.4051  0.4783  1.3371
  125OSM   H15T13321   1.951   4.455   7.471  0.1221  0.1836  0.2856
  125OSM   C16S13322   1.835   4.416   7.653  0.2808 -0.3074  0.2658
  125OSM   H16S13323   1.729   4.435   7.678  0.0403 -0.0705 -0.8776
  125OSM   H16T13324   1.900   4.493   7.699  2.8471 -1.8908 -0.4384
  125OSM   C17S13325   1.893   4.277   7.694 -0.2633  0.4612 -0.3659
  125OSM   H17S13326   1.995   4.267   7.652 -0.1086  0.5617 -0.0119
  125OSM   H17T13327   1.837   4.201   7.635  0.9869 -0.2437 -0.6831
  125OSM   C18S13328   1.902   4.240   7.837 -0.0970  0.0058  0.1075
  125OSM   H18S13329   1.962   4.147   7.847  1.6013  1.1632  1.3684
  125OSM   H18T13330   1.802   4.225   7.884 -0.2571  2.8046  0.9090
  125OSM   H18U13331   1.952   4.319   7.897  1.3571  0.4283 -1.5791
  125OSM    C1F13332   1.436   5.005   6.461 -0.2677  0.4227 -0.0432
  125OSM     OF13333   1.350   5.055   6.391 -0.2336 -0.0990  0.0187
  125OSM    C2F13334   1.468   5.067   6.601 -0.0009  0.5476  0.1512
  125OSM    H2F13335   1.563   5.022   6.637  1.0372  1.3636 -1.3947
  125OSM    H2G13336   1.384   5.030   6.664 -0.8203  1.6416 -0.2644
  125OSM    C3F13337   1.481   5.226   6.601 -0.3024  0.2973  0.8566
  125OSM    H3F13338   1.391   5.283   6.570 -1.4404 -1.6426  0.4419
  125OSM    H3G13339   1.560   5.237   6.524 -1.1329  0.8365  0.0547
  125OSM    C4F13340   1.526   5.291   6.728 -0.0622 -0.4582 -0.5419
  125OSM    H4F13341   1.551   5.398   6.710  1.5730 -0.4647  1.3092
  125OSM    H4G13342   1.627   5.263   6.766  0.3555  3.6618  2.0195
  125OSM    C5F13343   1.424   5.275   6.841  0.2988  0.5551  0.6782
  125OSM    H5F13344   1.385   5.171   6.843 -1.1885  1.0873  0.7067
  125OSM    H5G13345   1.343   5.349   6.824  1.7212  1.9389 -0.4126
  125OSM    C6F13346   1.496   5.312   6.973  0.0840  0.0640  0.6027
  125OSM    H6F13347   1.529   5.418   6.980 -1.2082  0.4660  0.8790
  125OSM    H6G13348   1.591   5.256   6.982 -0.5719 -1.2176 -0.2439
  125OSM    C7F13349   1.419   5.264   7.099  0.1142 -0.0042  0.2660
  125OSM    H7F13350   1.415   5.153   7.090 -2.1774  0.0948 -0.7130
  125OSM    H7G13351   1.317   5.310   7.096  0.8013  1.5665 -2.6541
  125OSM    C8F13352   1.494   5.300   7.223 -0.1749 -0.1465  0.3515
  125OSM    H8F13353   1.494   5.409   7.244 -1.1675  0.1857 -1.1643
  125OSM    H8G13354   1.599   5.275   7.195 -0.9868 -0.1994 -3.1991
  125OSM    C9F13355   1.449   5.219   7.336 -0.3297 -0.0624 -0.7339
  125OSM    H9F13356   1.465   5.112   7.316 -0.1821 -0.4258  1.1129
  125OSM   C10F13357   1.413   5.264   7.458 -0.0346  0.8723  0.0955
  125OSM   H10F13358   1.391   5.187   7.534 -2.7049  0.9236 -0.5358
  125OSM   C11F13359   1.395   5.409   7.498 -0.0038  0.5594  0.3068
  125OSM   H11F13360   1.287   5.433   7.493 -0.3408 -1.0644 -0.7921
  125OSM   H11G13361   1.434   5.479   7.421 -1.9402  1.1859 -0.1689
  125OSM   C12F13362   1.453   5.451   7.638 -0.1617  0.2789  0.1995
  125OSM   H12F13363   1.564   5.446   7.629 -0.1073 -0.8625  1.2876
  125OSM   H12G13364   1.417   5.391   7.724  2.3182  0.2216  1.3021
  125OSM   C13F13365   1.421   5.598   7.663  0.6057  0.7400 -0.9847
  125OSM   H13F13366   1.332   5.620   7.601 -0.1220 -0.3230 -0.3582
  125OSM   H13G13367   1.510   5.659   7.636  0.8970  1.0516  0.5701
  125OSM   C14F13368   1.391   5.631   7.812  0.4534  0.7298 -0.8619
  125OSM   H14F13369   1.485   5.621   7.870  0.4055  1.8373 -0.5682
  125OSM   H14G13370   1.319   5.560   7.857  1.0621  0.0618 -0.9297
  125OSM   C15F13371   1.342   5.772   7.827  0.1728  0.3776 -0.2759
  125OSM   H15F13372   1.249   5.801   7.774 -0.4546 -0.7226  0.1849
  125OSM   H15G13373   1.421   5.836   7.782  0.3197  0.2357 -0.2182
  125OSM   C16F13374   1.315   5.802   7.977 -0.3618 -0.7581 -0.4013
  125OSM   H16F13375   1.404   5.791   8.042  1.3746  1.6377 -2.1604
  125OSM   H16G13376   1.245   5.719   8.002 -1.5585  0.1957 -0.4955
  125OSM   C17F13377   1.248   5.934   8.014 -0.3510  0.5978  0.1842
  125OSM   H17F13378   1.144   5.944   7.977 -0.2777 -1.3855 -0.6815
  125OSM   H17G13379   1.304   6.016   7.965 -2.3560  1.4583 -0.7861
  125OSM   C18F13380   1.245   5.951   8.163  0.1121  0.0836  0.5068
  125OSM   H18F13381   1.348   5.930   8.198  0.0209  0.8121  1.2442
  125OSM   H18G13382   1.179   5.879   8.216  0.9234 -2.0536 -1.2409
  125OSM   H18H13383   1.219   6.057   8.182  0.7231  0.3898 -0.3208
  126OSM      N13384   4.871   1.392   6.545  0.2231 -0.6534  0.5306
  126OSM    C1513385   4.740   1.459   6.517 -0.0186  0.3438 -0.0098
  126OSM   H15A13386   4.709   1.537   6.585  0.3884  0.5754 -0.0857
  126OSM   H15B13387   4.671   1.378   6.530  0.5416 -0.4296 -1.5869
  126OSM   H15C13388   4.741   1.496   6.415  2.2140  0.5843  0.0463
  126OSM    C1413389   4.862   1.318   6.672  0.1266 -0.6725  0.9027
  126OSM   H14A13390   4.832   1.380   6.755  0.4276  0.8585 -0.0873
  126OSM   H14B13391   4.960   1.284   6.702  0.4847 -1.1081 -0.6840
  126OSM   H14C13392   4.799   1.231   6.659  0.8082 -1.1535  0.7431
  126OSM    C1313393   4.906   1.292   6.427  1.1471  0.2410 -0.1818
  126OSM   H13A13394   4.942   1.343   6.339 -0.8118  0.9525 -0.6090
  126OSM   H13B13395   4.817   1.235   6.405  2.0971 -1.7537  0.8277
  126OSM   H13C13396   4.982   1.220   6.455 -0.0454 -0.8649  0.3096
  126OSM    C1213397   4.981   1.501   6.554  0.0884  0.4089  0.2123
  126OSM   H12A13398   4.963   1.571   6.474 -3.4069  0.3342  0.7795
  126OSM   H12B13399   5.077   1.458   6.529 -0.9671 -2.0487  0.0818
  126OSM    C1113400   4.989   1.587   6.688  0.2914 -0.8162 -0.1762
  126OSM   H11A13401   5.073   1.660   6.690 -0.7459  0.4177 -0.6902
  126OSM   H11B13402   5.019   1.535   6.781  1.4638  1.4067  0.7697
  126OSM      P13403   4.818   1.793   6.650 -0.3207  0.4107 -0.1826
  126OSM    O1313404   4.911   1.825   6.537  0.0857 -0.3522  0.1960
  126OSM    O1413405   4.677   1.790   6.620  0.4018 -0.0591 -0.6758
  126OSM    O1113406   4.850   1.884   6.777 -0.4247  0.0850  0.3630
  126OSM    O1213407   4.858   1.651   6.696 -0.3277  0.5546 -0.5437
  126OSM    C1S13408   4.986   1.933   6.794 -0.1717 -0.0863  0.4587
  126OSM    H1S13409   5.011   2.007   6.715  1.5775  0.7855  1.7694
  126OSM    H1T13410   5.062   1.852   6.783  0.4853  0.6389 -0.5116
  126OSM     NF13411   5.132   2.069   6.938 -0.4783 -0.1518  0.3158
  126OSM    HNF13412   5.213   2.021   6.971 -1.2971 -1.9765 -0.1988
  126OSM    C2S13413   5.008   1.996   6.937 -0.5578  0.5266 -0.1995
  126OSM    H2S13414   4.921   2.065   6.938 -3.9081 -3.3091  2.1387
  126OSM    C3S13415   4.997   1.900   7.052  0.5443  0.0523  0.0113
  126OSM    H3S13416   5.082   1.830   7.041 -0.3215 -1.1840  0.8943
  126OSM     O313417   4.881   1.823   7.040 -0.0721  0.3672  0.2206
  126OSM    HO313418   4.846   1.831   6.951  0.4795 -0.4700 -0.0798
  126OSM    C4S13419   5.007   1.967   7.184 -0.0428 -0.2877 -0.2918
  126OSM    H4S13420   5.110   2.000   7.202  0.0821 -0.4037 -0.7776
  126OSM    C5S13421   4.912   1.989   7.278 -0.5496  0.8345 -0.8671
  126OSM    H5S13422   4.811   1.975   7.236 -0.7956  0.6390 -0.2378
  126OSM    C6S13423   4.926   2.053   7.409 -0.4907 -0.0251 -0.2842
  126OSM    H6S13424   5.034   2.054   7.438 -0.8860  0.2445  1.2676
  126OSM    H6T13425   4.862   1.995   7.478  0.5561 -1.6153 -0.5848
  126OSM    C7S13426   4.887   2.203   7.396 -0.4142 -0.3737 -0.0256
  126OSM    H7S13427   4.776   2.205   7.385 -0.3102 -0.7353 -1.4153
  126OSM    H7T13428   4.932   2.246   7.304  2.4150 -1.2330  0.8788
  126OSM    C8S13429   4.932   2.281   7.523  0.5667  0.4017  0.7267
  126OSM    H8S13430   4.919   2.392   7.520 -0.0344  0.3178 -0.5498
  126OSM    H8T13431   5.043   2.283   7.520  0.5496  0.1628 -1.0784
  126OSM    C9S13432   4.879   2.220   7.651 -0.7685  0.0871  0.3586
  126OSM    H9S13433   4.925   2.120   7.669 -1.8907 -0.4620  0.2340
  126OSM    H9T13434   4.769   2.209   7.649 -0.8177  0.2449 -2.4665
  126OSM   C10S13435   4.923   2.310   7.769 -0.2952  0.0257  0.3945
  126OSM   H10S13436   4.926   2.418   7.742 -0.8063 -0.1912 -0.5372
  126OSM   H10T13437   5.026   2.283   7.802 -0.4133 -1.0863 -0.1207
  126OSM   C11S13438   4.829   2.290   7.891 -0.0584  0.4120 -0.1012
  126OSM   H11S13439   4.837   2.186   7.929 -0.6239 -0.6433 -2.6766
  126OSM   H11T13440   4.724   2.319   7.868 -1.1436 -2.2743  1.0891
  126OSM   C12S13441   4.865   2.396   8.003  0.8393 -0.3910 -0.2830
  126OSM   H12S13442   4.828   2.494   7.968  1.0986 -0.7442 -1.6136
  126OSM   H12T13443   4.976   2.403   8.006  0.8977 -1.0107 -0.6658
  126OSM   C13S13444   4.808   2.355   8.141  0.2847  0.1952  0.3800
  126OSM   H13S13445   4.701   2.325   8.133  0.8374 -1.3623 -2.2712
  126OSM   H13T13446   4.813   2.437   8.216  1.2696  1.4474 -0.9873
  126OSM   C14S13447   4.893   2.236   8.203 -0.3444  0.1156 -0.3939
  126OSM   H14S13448   4.995   2.277   8.215 -1.0954  2.2441 -0.8386
  126OSM   H14T13449   4.894   2.142   8.144  1.2965 -1.4634  1.9637
  126OSM   C15S13450   4.839   2.189   8.340 -0.3959  0.1008  0.1289
  126OSM   H15S13451   4.739   2.144   8.321 -0.8079  1.0898 -0.1511
  126OSM   H15T13452   4.831   2.283   8.398 -0.7812  1.0282 -1.3627
  126OSM   C16S13453   4.936   2.096   8.417  0.7558 -0.1937  0.4337
  126OSM   H16S13454   5.040   2.135   8.417  0.7783 -0.2292  1.7751
  126OSM   H16T13455   4.933   1.999   8.363  2.4209 -0.4188  0.7122
  126OSM   C17S13456   4.886   2.075   8.554  0.1760 -0.0976  0.4181
  126OSM   H17S13457   4.783   2.033   8.543 -0.1194  1.0232 -1.8263
  126OSM   H17T13458   4.874   2.170   8.610  1.8071  1.4734 -1.7360
  126OSM   C18S13459   4.972   1.984   8.644  0.4624 -0.1644 -0.2475
  126OSM   H18S13460   5.027   1.911   8.581 -0.6882  0.4726 -2.0864
  126OSM   H18T13461   4.906   1.922   8.709 -1.3138  0.1780 -1.6278
  126OSM   H18U13462   5.037   2.057   8.697 -0.9260  1.2674 -0.4132
  126OSM    C1F13463   5.144   2.185   6.869  0.3504 -0.7709  0.1243
  126OSM     OF13464   5.048   2.225   6.804  0.0581  0.4021  0.6357
  126OSM    C2F13465   5.278   2.249   6.866 -0.1407 -0.0436 -0.1957
  126OSM    H2F13466   5.300   2.299   6.769  0.3881 -1.6742 -0.9405
  126OSM    H2G13467   5.356   2.172   6.878 -1.6622 -1.6443 -0.1982
  126OSM    C3F13468   5.301   2.359   6.978 -0.3040 -0.4911  0.1921
  126OSM    H3F13469   5.225   2.439   6.968 -0.7558 -1.1457 -2.6848
  126OSM    H3G13470   5.401   2.408   6.975  0.4246 -1.9244  0.0976
  126OSM    C4F13471   5.295   2.316   7.121 -0.0327  0.2521  0.1851
  126OSM    H4F13472   5.371   2.236   7.135  1.5681  1.7826  0.6379
  126OSM    H4G13473   5.194   2.275   7.145  0.2435  0.1667  1.2596
  126OSM    C5F13474   5.316   2.437   7.208  0.1094 -0.1136 -0.3366
  126OSM    H5F13475   5.245   2.517   7.179 -0.3315 -0.1603  0.5821
  126OSM    H5G13476   5.416   2.485   7.203 -0.1840  1.1185  2.9074
  126OSM    C6F13477   5.299   2.408   7.359  0.0783  0.2362 -0.6980
  126OSM    H6F13478   5.375   2.338   7.399  0.3714  1.4664  1.0084
  126OSM    H6G13479   5.199   2.361   7.370 -0.1866  1.0617  0.6901
  126OSM    C7F13480   5.296   2.538   7.440 -0.4614  0.6442  0.0299
  126OSM    H7F13481   5.216   2.609   7.412  0.9233  2.4753  0.5113
  126OSM    H7G13482   5.393   2.591   7.425  0.0604 -0.3421 -0.1957
  126OSM    C8F13483   5.295   2.508   7.585  0.4100  0.6045  0.1756
  126OSM    H8F13484   5.214   2.440   7.619  0.0289  1.6770  1.5407
  126OSM    H8G13485   5.266   2.602   7.638  2.7362  1.0326  0.8045
  126OSM    C9F13486   5.427   2.472   7.647 -0.7082 -0.4514  0.2904
  126OSM    H9F13487   5.518   2.494   7.589 -0.6956 -0.2019  0.4027
  126OSM   C10F13488   5.434   2.415   7.767  0.6012  0.1995 -0.5355
  126OSM   H10F13489   5.535   2.397   7.807  0.2864  1.6426  1.0168
  126OSM   C11F13490   5.322   2.388   7.859  0.2259 -1.0114  0.0432
  126OSM   H11F13491   5.280   2.286   7.850  0.2370 -1.0742  0.6757
  126OSM   H11G13492   5.242   2.463   7.844  1.9219  0.8599 -0.1618
  126OSM   C12F13493   5.373   2.422   8.002 -0.6795  0.3117  0.7743
  126OSM   H12F13494   5.398   2.528   8.020  2.2355  0.1890 -1.9015
  126OSM   H12G13495   5.470   2.370   8.019  0.3231  0.3656 -3.7291
  126OSM   C13F13496   5.263   2.397   8.103  0.4296  0.6788 -0.7658
  126OSM   H13F13497   5.203   2.310   8.069  1.9324 -1.5665  1.9212
  126OSM   H13G13498   5.182   2.472   8.097 -0.2979 -0.1466 -1.5803
  126OSM   C14F13499   5.307   2.381   8.249 -0.1636  0.7542  0.3441
  126OSM   H14F13500   5.233   2.426   8.320 -1.9656  1.9416 -2.1514
  126OSM   H14G13501   5.390   2.454   8.258  0.0171  0.5457  0.3684
  126OSM   C15F13502   5.341   2.237   8.278 -1.1317 -0.2356 -0.4677
  126OSM   H15F13503   5.383   2.176   8.195 -1.3484  0.6661 -1.2552
  126OSM   H15G13504   5.253   2.173   8.302  0.9096 -3.4373 -0.9148
  126OSM   C16F13505   5.436   2.234   8.404  0.6823 -0.0406  0.0409
  126OSM   H16F13506   5.539   2.266   8.379  0.1474  3.5889  1.8639
  126OSM   H16G13507   5.434   2.124   8.423  0.4221 -0.0715 -0.1556
  126OSM   C17F13508   5.371   2.318   8.513 -0.1954  0.0380 -0.3630
  126OSM   H17F13509   5.261   2.311   8.503 -0.1692  0.1216 -0.7525
  126OSM   H17G13510   5.393   2.426   8.496 -0.1030  0.1001  0.1356
  126OSM   C18F13511   5.400   2.288   8.660 -0.5474  0.5559 -0.5035
  126OSM   H18F13512   5.335   2.205   8.696  0.2926  0.3238  0.5371
  126OSM   H18G13513   5.384   2.372   8.731  0.3974  0.5741 -0.2916
  126OSM   H18H13514   5.506   2.258   8.673 -0.5283 -0.1317 -2.0432
  127OSM      N13515   5.740   2.796   6.347  0.1948 -0.2044 -0.4472
  127OSM    C1513516   5.874   2.798   6.274  0.1745  0.2489 -0.4182
  127OSM   H15A13517   5.892   2.904   6.258  1.1142  0.1099 -0.2768
  127OSM   H15B13518   5.871   2.774   6.168  0.3725  0.4375 -0.4687
  127OSM   H15C13519   5.962   2.761   6.323  0.6624  0.7751 -0.8821
  127OSM    C1413520   5.663   2.670   6.326 -0.2118 -0.2609  0.2744
  127OSM   H14A13521   5.721   2.590   6.369  0.0592 -0.2886 -0.1424
  127OSM   H14B13522   5.644   2.647   6.222  1.8361 -0.7648 -0.0279
  127OSM   H14C13523   5.568   2.677   6.377 -0.5643  1.4496 -0.5529
  127OSM    C1313524   5.769   2.801   6.498 -0.7505 -0.1181 -1.1352
  127OSM   H13A13525   5.684   2.771   6.558  1.1939 -2.6262  0.5807
  127OSM   H13B13526   5.801   2.899   6.531 -2.6267  0.5768 -1.2566
  127OSM   H13C13527   5.845   2.725   6.505 -2.0641 -1.4553 -0.8702
  127OSM    C1213528   5.649   2.908   6.307  0.5028 -1.1265 -0.2389
  127OSM   H12A13529   5.562   2.914   6.372  0.8248  1.6248  0.0542
  127OSM   H12B13530   5.609   2.902   6.207  0.0846 -0.3575 -0.1265
  127OSM    C1113531   5.702   3.054   6.310  1.0431  0.5590 -0.5179
  127OSM   H11A13532   5.601   3.097   6.293 -0.7521 -3.1889 -0.4075
  127OSM   H11B13533   5.778   3.078   6.233  0.6389  1.0057 -0.7793
  127OSM      P13534   5.825   3.236   6.459  0.2345  0.0821  0.4479
  127OSM    O1313535   5.942   3.241   6.372  0.6316 -0.3967  0.3967
  127OSM    O1413536   5.731   3.346   6.465 -0.0960  0.1716  0.1994
  127OSM    O1113537   5.877   3.213   6.606 -0.0972  0.5993 -0.3038
  127OSM    O1213538   5.748   3.093   6.441  0.0006  0.1506  0.3372
  127OSM    C1S13539   6.000   3.138   6.620 -0.9073  0.1329  0.1274
  127OSM    H1S13540   6.083   3.199   6.578 -1.1260  0.9666  0.8683
  127OSM    H1T13541   5.995   3.041   6.567  1.1382  0.2047 -0.2747
  127OSM     NF13542   6.159   3.026   6.791 -0.1364  1.0361  0.2382
  127OSM    HNF13543   6.137   2.943   6.842  1.1959  1.5410  1.6992
  127OSM    C2S13544   6.039   3.110   6.769 -0.6247 -0.2071 -0.4101
  127OSM    H2S13545   6.052   3.209   6.817 -1.1732 -0.0619 -0.5477
  127OSM    C3S13546   5.916   3.042   6.846 -0.1078  1.1607 -0.7522
  127OSM    H3S13547   5.909   2.937   6.812  0.3707 -0.3764  3.2939
  127OSM     O313548   5.790   3.097   6.838 -0.1029 -0.0258  0.5130
  127OSM    HO313549   5.796   3.158   6.764 -2.5361 -0.9986 -0.6046
  127OSM    C4S13550   5.945   3.046   6.991 -0.3824  0.1192 -0.9085
  127OSM    H4S13551   5.974   3.146   7.026 -1.1759  0.6839 -1.7963
  127OSM    C5S13552   5.934   2.935   7.072  0.6853 -1.0461  0.4023
  127OSM    H5S13553   5.879   2.848   7.032 -2.4407 -0.0864  2.3171
  127OSM    C6S13554   5.955   2.947   7.218  0.7039 -0.2672  0.1933
  127OSM    H6S13555   5.953   3.053   7.252  1.1353 -0.7500  1.7692
  127OSM    H6T13556   6.049   2.903   7.257  0.8579  1.3466  1.7539
  127OSM    C7S13557   5.836   2.875   7.292  0.6239  0.0732  0.7414
  127OSM    H7S13558   5.817   2.773   7.251  3.7019 -0.8462  1.3733
  127OSM    H7T13559   5.744   2.934   7.277  0.6240  0.8883  3.5541
  127OSM    C8S13560   5.859   2.870   7.441 -0.3227  0.4827  0.6072
  127OSM    H8S13561   5.905   2.966   7.473  0.4714  0.7040 -1.1250
  127OSM    H8T13562   5.933   2.787   7.445 -0.8518  0.0244  1.2526
  127OSM    C9S13563   5.731   2.835   7.527  0.4218  0.0563  0.2287
  127OSM    H9S13564   5.685   2.757   7.462  0.9870  0.5188 -0.7629
  127OSM    H9T13565   5.663   2.923   7.532  1.3693  0.7956  0.5410
  127OSM   C10S13566   5.760   2.786   7.663  0.2900 -0.4368 -0.6778
  127OSM   H10S13567   5.820   2.864   7.716  0.0112  0.6939 -1.9673
  127OSM   H10T13568   5.805   2.686   7.677 -0.1880 -0.3306  2.1981
  127OSM   C11S13569   5.622   2.775   7.736 -0.5756  0.6103 -0.3509
  127OSM   H11S13570   5.542   2.725   7.677 -0.0362 -3.1491  1.7970
  127OSM   H11T13571   5.598   2.882   7.753  0.1109  0.6611  0.3648
  127OSM   C12S13572   5.636   2.702   7.869 -0.5671  0.2215  0.0777
  127OSM   H12S13573   5.667   2.598   7.847  1.1575  0.3340  1.7071
  127OSM   H12T13574   5.538   2.693   7.920 -0.0947 -2.6380  0.6705
  127OSM   C13S13575   5.740   2.762   7.969  0.8707  0.1889  0.1695
  127OSM   H13S13576   5.737   2.873   7.972 -0.1522  0.1587  0.7563
  127OSM   H13T13577   5.834   2.733   7.918 -0.8258  0.0577 -3.1387
  127OSM   C14S13578   5.724   2.716   8.112 -0.3317  0.3084  0.1432
  127OSM   H14S13579   5.813   2.750   8.169 -2.0153  1.9380  1.9569
  127OSM   H14T13580   5.724   2.606   8.125  0.3270  0.5155  2.2624
  127OSM   C15S13581   5.599   2.779   8.186 -0.2846 -0.1283  0.9461
  127OSM   H15S13582   5.505   2.728   8.155  0.2634  0.6307 -2.3831
  127OSM   H15T13583   5.590   2.884   8.149  1.8078 -0.1786  0.1679
  127OSM   C16S13584   5.609   2.774   8.339 -0.1557  0.2573  0.1175
  127OSM   H16S13585   5.705   2.821   8.368 -0.2353  0.9402 -0.6869
  127OSM   H16T13586   5.611   2.663   8.350  2.7584  0.2234 -0.0941
  127OSM   C17S13587   5.479   2.824   8.401  0.6452 -0.2648  0.3474
  127OSM   H17S13588   5.392   2.795   8.338  0.2542 -0.7212  1.0800
  127OSM   H17T13589   5.482   2.935   8.404  0.0361 -0.2309 -0.0586
  127OSM   C18S13590   5.447   2.779   8.542 -0.2854  0.1650  0.2348
  127OSM   H18S13591   5.378   2.853   8.589 -0.8771 -0.4733  0.3880
  127OSM   H18T13592   5.545   2.774   8.595 -0.5417 -0.2205  0.6790
  127OSM   H18U13593   5.400   2.679   8.557  3.2624 -1.3588  2.8077
  127OSM    C1F13594   6.283   3.069   6.771 -0.7621  0.3365  0.3322
  127OSM     OF13595   6.315   3.184   6.740  0.3358  0.1813  0.6989
  127OSM    C2F13596   6.390   2.966   6.800  0.1081 -0.3214 -0.0758
  127OSM    H2F13597   6.459   2.963   6.714 -0.0068 -1.4575 -0.1375
  127OSM    H2G13598   6.330   2.873   6.802  0.3015 -0.4568 -0.6418
  127OSM    C3F13599   6.453   2.990   6.938  0.7433  0.2216  0.8041
  127OSM    H3F13600   6.504   3.089   6.934  1.5216 -0.2049 -2.1608
  127OSM    H3G13601   6.531   2.913   6.955  1.2970  0.2998 -1.0822
  127OSM    C4F13602   6.352   2.986   7.054  0.3292  0.2492 -0.1406
  127OSM    H4F13603   6.294   2.892   7.054 -0.2463  0.5747 -1.6955
  127OSM    H4G13604   6.274   3.064   7.062 -0.8613 -1.0506  1.9758
  127OSM    C5F13605   6.415   3.001   7.186 -0.6283  0.7252 -0.1113
  127OSM    H5F13606   6.516   2.955   7.177 -0.9494  0.1592 -0.9462
  127OSM    H5G13607   6.359   2.934   7.255  1.0042 -0.8333 -0.2275
  127OSM    C6F13608   6.449   3.141   7.233  0.0608 -0.2254  0.2374
  127OSM    H6F13609   6.493   3.191   7.143 -2.3988 -0.5350 -1.2294
  127OSM    H6G13610   6.517   3.135   7.321 -2.4077  0.6814  2.3253
  127OSM    C7F13611   6.326   3.221   7.282  0.1366 -0.1390 -0.5608
  127OSM    H7F13612   6.250   3.205   7.202 -0.3579 -2.8418  0.3525
  127OSM    H7G13613   6.354   3.328   7.291  0.0898 -0.0297 -1.6546
  127OSM    C8F13614   6.254   3.168   7.410  0.2296  0.2210 -0.5266
  127OSM    H8F13615   6.204   3.070   7.397  0.0268  0.3561 -0.7589
  127OSM    H8G13616   6.168   3.236   7.428 -0.6045 -1.2673  1.4901
  127OSM    C9F13617   6.335   3.168   7.537 -0.4548  0.4301 -0.1913
  127OSM    H9F13618   6.419   3.239   7.543  0.6787 -0.8880  0.3299
  127OSM   C10F13619   6.300   3.096   7.643 -0.1939  0.6026  0.4976
  127OSM   H10F13620   6.357   3.102   7.736 -0.6959  0.3446  0.8229
  127OSM   C11F13621   6.177   2.990   7.642  0.2263 -0.3219 -0.7187
  127OSM   H11F13622   6.186   2.915   7.561 -0.9313  0.9424 -2.0539
  127OSM   H11G13623   6.090   3.049   7.607 -1.0373 -1.5144  0.2855
  127OSM   C12F13624   6.156   2.916   7.781 -0.6999  0.9148 -0.5592
  127OSM   H12F13625   6.261   2.889   7.808 -1.2250 -0.8619 -0.1860
  127OSM   H12G13626   6.084   2.833   7.764 -0.4800  0.8818 -1.3736
  127OSM   C13F13627   6.103   3.026   7.880 -0.4394  0.4046 -0.2273
  127OSM   H13F13628   5.993   3.039   7.869 -0.3108  1.3028 -0.5421
  127OSM   H13G13629   6.148   3.125   7.857 -1.3246  0.8727  0.0153
  127OSM   C14F13630   6.149   3.004   8.025 -0.4372 -0.3764 -0.7237
  127OSM   H14F13631   6.126   3.097   8.080  2.3118  0.9040 -1.5442
  127OSM   H14G13632   6.258   2.981   8.020 -0.0233  1.0019  1.0277
  127OSM   C15F13633   6.094   2.882   8.098 -0.6439  0.3374  0.4094
  127OSM   H15F13634   6.061   2.805   8.025 -0.0486 -0.1575  0.6569
  127OSM   H15G13635   6.005   2.913   8.156  0.5555  2.4935  1.2494
  127OSM   C16F13636   6.197   2.827   8.197  0.2324 -0.3199 -0.2830
  127OSM   H16F13637   6.245   2.908   8.255  1.4934 -0.9882 -0.3555
  127OSM   H16G13638   6.276   2.776   8.137 -0.2511 -1.0341 -0.3226
  127OSM   C17F13639   6.141   2.727   8.297  0.3444 -0.0017 -0.1931
  127OSM   H17F13640   6.047   2.770   8.336  0.0406  0.4904 -1.4002
  127OSM   H17G13641   6.217   2.727   8.378  0.5068  0.2688 -0.3451
  127OSM   C18F13642   6.114   2.587   8.236 -0.1308 -0.1133 -0.1892
  127OSM   H18F13643   6.067   2.512   8.302  3.8149 -1.5911  1.2503
  127OSM   H18G13644   6.209   2.534   8.215 -0.4426 -1.4439  1.5093
  127OSM   H18H13645   6.054   2.605   8.144  1.3823 -0.2158 -1.2386
  128OSM      N13646   2.500   1.854   6.181  1.0778  0.3286 -0.1169
  128OSM    C1513647   2.643   1.879   6.209  0.0588  0.6757  0.4488
  128OSM   H15A13648   2.691   1.829   6.125 -2.2059 -0.5928 -0.1806
  128OSM   H15B13649   2.682   1.838   6.301  1.6092  1.3847  0.1469
  128OSM   H15C13650   2.667   1.984   6.217  0.2792  0.7480 -0.8446
  128OSM    C1413651   2.418   1.874   6.300  0.5779  0.1357 -0.7033
  128OSM   H14A13652   2.413   1.981   6.310 -3.3450  0.4027 -3.0929
  128OSM   H14B13653   2.454   1.832   6.392  1.1196  0.2997 -0.8407
  128OSM   H14C13654   2.318   1.834   6.289  0.1275  0.9214  0.3935
  128OSM    C1313655   2.442   1.941   6.075 -0.0512 -0.7695 -0.0700
  128OSM   H13A13656   2.346   1.897   6.056  0.0635 -1.1247  0.1653
  128OSM   H13B13657   2.513   1.952   5.994  0.4435  0.4191  0.4982
  128OSM   H13C13658   2.441   2.040   6.117  0.7916 -1.6493  2.2262
  128OSM    C1213659   2.483   1.711   6.135 -0.4278 -0.1226  0.0564
  128OSM   H12A13660   2.506   1.641   6.213 -0.2951 -1.9985 -1.5901
  128OSM   H12B13661   2.548   1.691   6.052 -0.5085  0.0924 -0.0598
  128OSM    C1113662   2.345   1.663   6.084 -0.6610  0.1388 -0.1004
  128OSM   H11A13663   2.359   1.555   6.061 -1.0979 -0.7417  3.1642
  128OSM   H11B13664   2.335   1.720   5.990 -0.1517  0.8057  0.2407
  128OSM      P13665   2.155   1.561   6.219 -0.2273  0.1596  0.0214
  128OSM    O1313666   2.064   1.595   6.325  0.6002  0.1716  0.7842
  128OSM    O1413667   2.104   1.504   6.090  0.1635  0.4767  0.5809
  128OSM    O1113668   2.263   1.458   6.282  0.3387 -0.3165 -0.0192
  128OSM    O1213669   2.238   1.688   6.173 -0.7470 -0.4025 -0.8637
  128OSM    C1S13670   2.338   1.496   6.395  0.1756  0.0745 -0.2873
  128OSM    H1S13671   2.378   1.600   6.393  2.4659 -0.6652  1.9199
  128OSM    H1T13672   2.426   1.429   6.399  1.8088  1.9556 -2.2139
  128OSM     NF13673   2.360   1.538   6.630 -0.8151  0.0433 -0.8005
  128OSM    HNF13674   2.392   1.480   6.704 -1.8847 -0.8774 -1.0259
  128OSM    C2S13675   2.269   1.488   6.527 -0.3403  0.1564  0.4666
  128OSM    H2S13676   2.185   1.560   6.524  0.1046  0.6425 -1.5425
  128OSM    C3S13677   2.214   1.344   6.548 -0.1660  0.1506 -0.5339
  128OSM    H3S13678   2.302   1.279   6.567 -1.6179 -1.4159  1.1926
  128OSM     O313679   2.158   1.284   6.431 -0.5216 -0.3852 -0.4070
  128OSM    HO313680   2.192   1.340   6.361  0.3835  0.7040  0.8449
  128OSM    C4S13681   2.117   1.333   6.670 -0.1947  0.1970  0.0151
  128OSM    H4S13682   2.167   1.299   6.761 -0.5679  0.3353  0.2755
  128OSM    C5S13683   1.981   1.337   6.683 -0.4864 -0.9757  0.7727
  128OSM    H5S13684   1.927   1.364   6.591 -0.5899 -0.3012  1.0270
  128OSM    C6S13685   1.898   1.302   6.802  0.4803 -0.6152  0.1235
  128OSM    H6S13686   1.847   1.203   6.812 -1.3426  0.3633  1.0762
  128OSM    H6T13687   1.810   1.369   6.806  0.2467 -0.8231 -1.1247
  128OSM    C7S13688   1.955   1.314   6.944 -0.7698 -0.0744  0.0467
  128OSM    H7S13689   2.014   1.407   6.961 -0.6899 -0.4676  2.2701
  128OSM    H7T13690   2.038   1.245   6.973  0.0260  1.0872  0.6452
  128OSM    C8S13691   1.861   1.295   7.059  1.2251 -0.3426 -0.2335
  128OSM    H8S13692   1.819   1.193   7.064 -0.2920  0.2749  0.4223
  128OSM    H8T13693   1.771   1.353   7.029 -0.3695 -2.5655  0.0115
  128OSM    C9S13694   1.914   1.328   7.204 -0.1823  0.0407  0.2823
  128OSM    H9S13695   1.825   1.333   7.270 -0.0003 -0.1268  0.5439
  128OSM    H9T13696   1.935   1.437   7.209  0.1055  0.0043 -0.0455
  128OSM   C10S13697   2.021   1.237   7.279  0.6028  0.3600  0.3747
  128OSM   H10S13698   2.114   1.223   7.220 -0.2075 -0.7109 -0.7051
  128OSM   H10T13699   1.971   1.137   7.277 -0.3508  0.8402 -0.8138
  128OSM   C11S13700   2.039   1.275   7.426 -0.1882 -0.7593 -0.5828
  128OSM   H11S13701   1.936   1.294   7.464  1.0298  2.3582  1.6381
  128OSM   H11T13702   2.105   1.365   7.421 -1.0913 -0.0766 -0.5681
  128OSM   C12S13703   2.120   1.178   7.511  0.5235  0.5925 -0.8408
  128OSM   H12S13704   2.226   1.163   7.481  0.4938 -2.2855  0.2143
  128OSM   H12T13705   2.072   1.078   7.514 -0.6861  1.1699 -0.4344
  128OSM   C13S13706   2.130   1.235   7.654  0.5342 -0.9638  0.6738
  128OSM   H13S13707   2.030   1.256   7.699 -0.1379  0.9902 -1.5599
  128OSM   H13T13708   2.177   1.334   7.637 -0.4249 -0.5012  0.6187
  128OSM   C14S13709   2.216   1.160   7.750 -0.2394  0.6478 -0.2801
  128OSM   H14S13710   2.323   1.180   7.726 -0.0054 -0.8426 -0.5885
  128OSM   H14T13711   2.179   1.056   7.759 -0.2701  0.4448 -2.2955
  128OSM   C15S13712   2.200   1.205   7.900  0.9682 -0.3652 -0.4855
  128OSM   H15S13713   2.090   1.216   7.911  0.8741 -1.2302 -0.4845
  128OSM   H15T13714   2.244   1.302   7.933  1.0434 -1.1804  2.0379
  128OSM   C16S13715   2.256   1.102   7.995  0.4121  0.1654 -0.7693
  128OSM   H16S13716   2.366   1.089   7.988  0.7951  0.1329  3.1220
  128OSM   H16T13717   2.203   1.007   7.969 -1.5759  0.9807  0.0559
  128OSM   C17S13718   2.231   1.129   8.152  0.5040 -0.3903 -0.0254
  128OSM   H17S13719   2.299   1.212   8.182 -0.7814  0.3317  1.0328
  128OSM   H17T13720   2.266   1.033   8.195 -0.2363  0.6538  3.1936
  128OSM   C18S13721   2.081   1.150   8.196  0.0660 -0.0755 -0.3220
  128OSM   H18S13722   2.022   1.074   8.141  0.5393 -0.4642 -0.3042
  128OSM   H18T13723   2.047   1.251   8.165  0.6090  1.0570  2.4182
  128OSM   H18U13724   2.067   1.144   8.306  0.9018  0.2905 -0.1902
  128OSM    C1F13725   2.385   1.666   6.645  0.5242  0.2596  0.2858
  128OSM     OF13726   2.314   1.745   6.582  0.4398 -0.0158 -0.3345
  128OSM    C2F13727   2.483   1.690   6.747  0.2745  0.1709 -1.0612
  128OSM    H2F13728   2.575   1.628   6.742 -0.9046 -1.9496  1.2710
  128OSM    H2G13729   2.441   1.667   6.848 -1.0273 -0.9194 -1.8217
  128OSM    C3F13730   2.510   1.845   6.757 -0.4236  0.5295 -0.4666
  128OSM    H3F13731   2.419   1.901   6.785 -0.9843  0.6305 -2.3337
  128OSM    H3G13732   2.535   1.882   6.656 -0.4809  0.9120 -0.3402
  128OSM    C4F13733   2.628   1.872   6.858 -0.1924 -0.4518 -0.0537
  128OSM    H4F13734   2.668   1.975   6.868  0.5428 -0.8187  0.9590
  128OSM    H4G13735   2.715   1.819   6.813  0.1839 -0.7497  0.9897
  128OSM    C5F13736   2.613   1.809   6.995 -0.2557 -0.0081  0.0016
  128OSM    H5F13737   2.616   1.698   6.992 -0.2617  0.0036 -0.4774
  128OSM    H5G13738   2.514   1.838   7.037 -0.8017  1.0324 -1.9177
  128OSM    C6F13739   2.709   1.857   7.103 -0.8835  0.0224  0.0950
  128OSM    H6F13740   2.709   1.966   7.119 -3.7785 -0.0752  1.3066
  128OSM    H6G13741   2.814   1.823   7.087 -0.2465  1.8630  0.1263
  128OSM    C7F13742   2.668   1.801   7.238  0.1214  0.0232 -0.1165
  128OSM    H7F13743   2.643   1.693   7.231  3.2297 -1.1820  3.7858
  128OSM    H7G13744   2.572   1.845   7.273  0.2471  2.6866 -2.7226
  128OSM    C8F13745   2.784   1.813   7.341  0.9377  0.1535  0.3757
  128OSM    H8F13746   2.878   1.779   7.292 -0.0622  0.7433 -2.0906
  128OSM    H8G13747   2.764   1.746   7.427  1.3789  1.0242  1.1804
  128OSM    C9F13748   2.805   1.951   7.393 -0.5642  0.0805 -0.3675
  128OSM    H9F13749   2.774   2.027   7.319  0.5561  1.0712  0.1399
  128OSM   C10F13750   2.841   1.999   7.516  0.0429 -0.4758  0.7567
  128OSM   H10F13751   2.849   2.109   7.524 -2.7327 -0.0587 -0.7356
  128OSM   C11F13752   2.868   1.924   7.639 -0.8122  0.1610  0.6338
  128OSM   H11F13753   2.978   1.914   7.653 -0.2969  2.4120 -1.1659
  128OSM   H11G13754   2.840   1.818   7.624  0.6445  0.2212 -4.0701
  128OSM   C12F13755   2.806   1.990   7.764 -0.5714 -0.6766  0.1947
  128OSM   H12F13756   2.698   1.964   7.769 -0.2776 -2.2283 -0.6460
  128OSM   H12G13757   2.814   2.099   7.749  1.4299 -0.9624 -1.1560
  128OSM   C13F13758   2.875   1.967   7.900  0.3707  0.6399 -0.0708
  128OSM   H13F13759   2.978   2.007   7.897  0.2350  1.0369  0.4460
  128OSM   H13G13760   2.879   1.856   7.905  3.1842  0.5262 -2.2255
  128OSM   C14F13761   2.796   2.030   8.017  0.5747  0.5229  0.4050
  128OSM   H14F13762   2.696   1.983   8.020  0.6561  0.3153  4.2057
  128OSM   H14G13763   2.783   2.140   8.005 -3.0053  0.2183  0.5622
  128OSM   C15F13764   2.862   2.000   8.151  0.6532 -0.4061 -0.3555
  128OSM   H15F13765   2.970   2.016   8.129  0.0366  0.3941 -3.1253
  128OSM   H15G13766   2.848   1.893   8.179 -1.6303  0.5561  2.8602
  128OSM   C16F13767   2.822   2.094   8.261  0.3995  0.3727 -0.8636
  128OSM   H16F13768   2.711   2.106   8.265  0.1106 -2.0723  1.8413
  128OSM   H16G13769   2.867   2.192   8.235  1.2829 -0.0764 -1.0578
  128OSM   C17F13770   2.845   2.047   8.407 -0.4476  0.5137  0.1464
  128OSM   H17F13771   2.951   2.023   8.429 -0.9251 -4.4498 -1.7223
  128OSM   H17G13772   2.793   1.950   8.415 -1.5752  0.8177 -2.6150
  128OSM   C18F13773   2.796   2.135   8.525 -0.3739  0.5672  0.2564
  128OSM   H18F13774   2.794   2.079   8.621  0.5668  1.7570  1.0079
  128OSM   H18G13775   2.688   2.156   8.509 -1.3876 -2.7442  1.7298
  128OSM   H18H13776   2.847   2.232   8.542 -2.3980  1.3784  2.1055
  129OSM      N13777   6.267   2.334   5.958  0.6085 -0.1683  0.4584
  129OSM    C1513778   6.333   2.212   5.903  0.4448 -0.0228  0.0339
  129OSM   H15A13779   6.257   2.137   5.889 -1.0937  1.4692  0.1274
  129OSM   H15B13780   6.401   2.166   5.973 -1.3078 -1.7937  0.6759
  129OSM   H15C13781   6.378   2.237   5.808 -1.3159  1.1444 -0.5395
  129OSM    C1413782   6.363   2.440   5.991  0.3486  0.0402  1.0046
  129OSM   H14A13783   6.316   2.520   6.046 -1.1821 -0.7759  0.9388
  129OSM   H14B13784   6.418   2.471   5.903 -0.6330  0.8489  0.6523
  129OSM   H14C13785   6.436   2.386   6.050 -1.5873 -3.0635  0.7855
  129OSM    C1313786   6.174   2.389   5.854 -0.4790 -0.4313 -0.2560
  129OSM   H13A13787   6.141   2.485   5.890 -0.3465 -0.6958  0.5774
  129OSM   H13B13788   6.091   2.320   5.857  0.3561 -1.4860  3.2419
  129OSM   H13C13789   6.242   2.386   5.770  0.4837 -2.5467  0.5295
  129OSM    C1213790   6.188   2.302   6.090 -0.2795  0.1668 -0.4348
  129OSM   H12A13791   6.124   2.216   6.074  1.2286 -1.4549  1.7390
  129OSM   H12B13792   6.127   2.389   6.106 -1.6605 -1.0572  1.4230
  129OSM    C1113793   6.265   2.262   6.221  0.2396 -0.2035 -0.2440
  129OSM   H11A13794   6.176   2.246   6.286  1.1530  2.5719  1.9492
  129OSM   H11B13795   6.324   2.351   6.254  0.2026 -0.4586  0.5453
  129OSM      P13796   6.325   2.008   6.262 -0.4464 -0.0803  0.1669
  129OSM    O1313797   6.185   1.973   6.242  0.7865  0.2163  0.6364
  129OSM    O1413798   6.427   1.922   6.195 -0.5190  0.1804 -0.4236
  129OSM    O1113799   6.358   2.025   6.410 -0.2741 -0.0595 -0.4335
  129OSM    O1213800   6.350   2.151   6.198 -0.1939  0.0059  0.0131
  129OSM    C1S13801   6.472   2.102   6.449  0.4580  0.0529  0.4979
  129OSM    H1S13802   6.482   2.196   6.390  1.4770 -0.3066  0.0866
  129OSM    H1T13803   6.563   2.040   6.439  0.1818 -0.3048  0.1445
  129OSM     NF13804   6.586   2.228   6.617  0.1484 -0.1605 -0.3378
  129OSM    HNF13805   6.668   2.201   6.665 -0.4776 -0.3924  0.6322
  129OSM    C2S13806   6.476   2.135   6.591 -0.2978  0.3773 -0.6012
  129OSM    H2S13807   6.383   2.194   6.608  1.1110  2.5511  0.0284
  129OSM    C3S13808   6.493   1.999   6.684  0.5057 -0.6710  0.0170
  129OSM    H3S13809   6.587   1.944   6.663  1.0328 -0.2313  1.1601
  129OSM     O313810   6.395   1.896   6.660 -0.3285  0.6092  0.2322
  129OSM    HO313811   6.323   1.937   6.612  0.5547  1.2020 -0.6371
  129OSM    C4S13812   6.501   2.032   6.832  0.8155 -0.3357  0.2986
  129OSM    H4S13813   6.602   2.050   6.873  1.0876  0.1967 -0.5657
  129OSM    C5S13814   6.393   2.044   6.918 -0.7377  0.7598  0.3108
  129OSM    H5S13815   6.294   2.011   6.883 -0.3691 -0.3618  0.2773
  129OSM    C6S13816   6.414   2.065   7.063 -0.7454  0.0321 -0.0501
  129OSM    H6S13817   6.312   2.091   7.098 -1.4483  0.9931 -2.5759
  129OSM    H6T13818   6.482   2.150   7.083  0.4477 -0.4937 -1.6802
  129OSM    C7S13819   6.480   1.952   7.145  0.4285 -0.9306  0.0316
  129OSM    H7S13820   6.588   1.949   7.120  0.7611  0.8540  1.0303
  129OSM    H7T13821   6.447   1.849   7.121  2.2403 -1.3210 -0.9620
  129OSM    C8S13822   6.479   1.970   7.303 -0.3345 -0.5463  0.0787
  129OSM    H8S13823   6.375   1.997   7.328 -1.6571 -2.5549 -2.6846
  129OSM    H8T13824   6.550   2.045   7.343 -2.0805  0.2947  1.7685
  129OSM    C9S13825   6.513   1.843   7.379  0.3074  0.4901  0.5516
  129OSM    H9S13826   6.622   1.826   7.376  0.1435 -0.4462 -0.3177
  129OSM    H9T13827   6.462   1.765   7.319 -1.9850  2.2382  0.0557
  129OSM   C10S13828   6.460   1.849   7.520  0.3074 -0.0580  0.3752
  129OSM   H10S13829   6.354   1.817   7.524 -0.0365  0.8505 -0.8560
  129OSM   H10T13830   6.466   1.952   7.562 -0.0525 -0.3733  1.2175
  129OSM   C11S13831   6.531   1.748   7.610  0.1208  0.0981 -0.4306
  129OSM   H11S13832   6.626   1.795   7.642 -0.7738  2.4071 -0.9524
  129OSM   H11T13833   6.545   1.653   7.554 -0.6806 -1.8394  2.4999
  129OSM   C12S13834   6.448   1.696   7.731  0.5474 -0.4944 -0.4524
  129OSM   H12S13835   6.521   1.637   7.790  1.0014  1.4681  1.0701
  129OSM   H12T13836   6.372   1.619   7.709  0.4392 -0.3065 -0.7392
  129OSM   C13S13837   6.385   1.803   7.816  0.1909 -0.1089 -1.1025
  129OSM   H13S13838   6.327   1.762   7.901  2.3994  0.0435  0.5735
  129OSM   H13T13839   6.310   1.855   7.752 -2.0288 -1.1005  0.6147
  129OSM   C14S13840   6.475   1.901   7.890  0.2479  0.2354  0.0606
  129OSM   H14S13841   6.413   1.986   7.927 -0.2383  0.4115 -1.1088
  129OSM   H14T13842   6.534   1.949   7.809 -1.3334  1.6340 -0.3344
  129OSM   C15S13843   6.541   1.838   8.018 -0.2590 -0.4331 -0.1675
  129OSM   H15S13844   6.617   1.760   7.994  0.2843 -0.3249  1.1084
  129OSM   H15T13845   6.454   1.787   8.066 -1.2542  0.8490 -0.5562
  129OSM   C16S13846   6.593   1.946   8.119  0.1849 -0.3556  0.1594
  129OSM   H16S13847   6.639   1.892   8.203 -1.8697  0.7146  2.0814
  129OSM   H16T13848   6.510   2.003   8.167 -0.3167 -1.5014  0.6702
  129OSM   C17S13849   6.695   2.043   8.060  0.4748 -0.3429  0.5050
  129OSM   H17S13850   6.636   2.105   7.989  1.3314 -0.9837 -0.7986
  129OSM   H17T13851   6.767   1.984   7.999 -0.9082  0.9111 -2.5895
  129OSM   C18S13852   6.783   2.120   8.156 -0.4040  0.5194 -0.4177
  129OSM   H18S13853   6.860   2.048   8.190 -1.0801 -0.7173 -1.3768
  129OSM   H18T13854   6.733   2.179   8.236  0.1367  0.3348  0.0611
  129OSM   H18U13855   6.837   2.197   8.098 -1.4891  2.3045  0.8166
  129OSM    C1F13856   6.578   2.353   6.571 -0.3944 -0.1335  0.2264
  129OSM     OF13857   6.480   2.399   6.513 -0.2563 -0.1433  0.3357
  129OSM    C2F13858   6.692   2.445   6.619  0.1824 -0.4130  0.6296
  129OSM    H2F13859   6.781   2.424   6.556 -0.2422 -0.5886  0.0791
  129OSM    H2G13860   6.715   2.413   6.723  0.5377 -0.1101  0.6448
  129OSM    C3F13861   6.645   2.594   6.609 -0.4184 -0.1649 -0.4304
  129OSM    H3F13862   6.557   2.608   6.677  0.1438  0.7019  0.1469
  129OSM    H3G13863   6.613   2.616   6.505  1.0291 -1.1962 -1.1257
  129OSM    C4F13864   6.762   2.695   6.621 -0.8296  0.1588  0.2280
  129OSM    H4F13865   6.726   2.799   6.605 -0.8622  0.0231 -0.6665
  129OSM    H4G13866   6.835   2.669   6.541  1.0507 -2.2417  2.5327
  129OSM    C5F13867   6.845   2.680   6.747 -0.5315  0.2738  0.5593
  129OSM    H5F13868   6.921   2.761   6.752  1.0810 -1.2117  1.2686
  129OSM    H5G13869   6.896   2.581   6.741 -2.2272 -0.8168  2.7655
  129OSM    C6F13870   6.757   2.677   6.867  0.9010 -0.3642 -1.0864
  129OSM    H6F13871   6.717   2.574   6.883  1.9564 -0.3537  2.3149
  129OSM    H6G13872   6.673   2.747   6.848 -0.4352 -1.5978  0.0432
  129OSM    C7F13873   6.836   2.703   6.996 -0.1189  0.1316  0.0863
  129OSM    H7F13874   6.864   2.810   6.986  0.2426  0.0357  0.0635
  129OSM    H7G13875   6.927   2.640   6.995 -0.0836  0.0909  1.8184
  129OSM    C8F13876   6.755   2.647   7.122 -0.4695  0.4296  0.9627
  129OSM    H8F13877   6.714   2.550   7.087  0.7509  0.5477 -0.9361
  129OSM    H8G13878   6.666   2.714   7.125 -0.8902  0.2306 -2.4780
  129OSM    C9F13879   6.835   2.619   7.246  0.0634  0.1733 -0.8163
  129OSM    H9F13880   6.885   2.521   7.250  1.0852  0.6184 -2.1302
  129OSM   C10F13881   6.851   2.696   7.348  0.6228  0.7706 -0.8797
  129OSM   H10F13882   6.917   2.668   7.431 -0.4231  0.5618 -0.1025
  129OSM   C11F13883   6.787   2.831   7.373  0.0886 -0.1811  0.5334
  129OSM   H11F13884   6.744   2.859   7.274 -0.0709  0.9611  0.9070
  129OSM   H11G13885   6.861   2.910   7.400  0.9099 -1.3510  1.8355
  129OSM   C12F13886   6.666   2.839   7.462 -0.1546 -0.0796  0.2313
  129OSM   H12F13887   6.600   2.753   7.437  0.4345 -0.6947  0.7520
  129OSM   H12G13888   6.604   2.930   7.447  1.9232  1.5425  1.0205
  129OSM   C13F13889   6.708   2.839   7.613  0.3556 -0.7608 -0.2755
  129OSM   H13F13890   6.797   2.901   7.636  1.3645 -2.2498 -0.0259
  129OSM   H13G13891   6.733   2.733   7.637 -1.4599 -1.4692 -1.3616
  129OSM   C14F13892   6.596   2.883   7.705 -0.0249 -0.1663  0.1732
  129OSM   H14F13893   6.497   2.848   7.669  0.1413  0.1743 -0.6544
  129OSM   H14G13894   6.577   2.992   7.695  1.4613  0.1547  0.5552
  129OSM   C15F13895   6.634   2.850   7.847 -0.3989 -0.1456 -0.1792
  129OSM   H15F13896   6.745   2.857   7.853 -0.3385 -0.1552 -1.1142
  129OSM   H15G13897   6.603   2.747   7.874  0.9576 -0.0839  1.7647
  129OSM   C16F13898   6.578   2.951   7.947 -0.0049 -0.3001  0.8851
  129OSM   H16F13899   6.467   2.948   7.953 -0.2001  0.9249 -1.1435
  129OSM   H16G13900   6.611   3.056   7.931  0.8635 -0.6917  0.0190
  129OSM   C17F13901   6.629   2.926   8.085 -0.2276 -0.5665 -0.2343
  129OSM   H17F13902   6.582   3.000   8.153  0.3120 -2.3504  2.2585
  129OSM   H17G13903   6.740   2.937   8.093 -0.2389 -0.9246  0.5684
  129OSM   C18F13904   6.603   2.784   8.149  0.6714  1.0681  0.0746
  129OSM   H18F13905   6.637   2.767   8.253 -2.6991  1.5203  1.3777
  129OSM   H18G13906   6.650   2.710   8.081  1.7968  0.9021  0.9995
  129OSM   H18H13907   6.498   2.753   8.130  1.3586 -0.5440 -1.3924
  130OSM      N13908   3.825   5.372   6.111 -0.2796 -0.0023  0.4718
  130OSM    C1513909   3.737   5.260   6.056 -0.3693 -0.0655  0.2380
  130OSM   H15A13910   3.749   5.169   6.114 -0.1618  0.5872  1.2438
  130OSM   H15B13911   3.756   5.241   5.951  0.3079  0.0966  0.3323
  130OSM   H15C13912   3.634   5.292   6.064 -0.7611 -1.3955  0.8743
  130OSM    C1413913   3.768   5.504   6.071 -0.2391 -0.9373 -0.4990
  130OSM   H14A13914   3.789   5.514   5.965 -0.5021 -0.2809 -0.4924
  130OSM   H14B13915   3.813   5.588   6.122  1.0137 -2.2995  0.7414
  130OSM   H14C13916   3.663   5.501   6.093 -0.3927 -1.7047 -1.2875
  130OSM    C1313917   3.824   5.353   6.258  0.4561 -0.9305 -0.4123
  130OSM   H13A13918   3.869   5.434   6.313 -1.0170 -1.3043  1.4313
  130OSM   H13B13919   3.880   5.263   6.278  0.5562 -1.7311 -3.7099
  130OSM   H13C13920   3.726   5.346   6.301  0.2641  0.4641 -0.5886
  130OSM    C1213921   3.967   5.348   6.047  0.5139 -0.5946 -0.7041
  130OSM   H12A13922   3.960   5.336   5.940 -2.3481 -2.8900 -0.3643
  130OSM   H12B13923   4.011   5.254   6.075  0.2985 -0.6188 -0.4528
  130OSM    C1113924   4.069   5.459   6.075 -0.5291 -0.5793  0.6551
  130OSM   H11A13925   4.039   5.510   6.169 -3.7934 -0.4862 -0.2857
  130OSM   H11B13926   4.064   5.524   5.985  0.5733  0.0365  1.0355
  130OSM      P13927   4.318   5.516   6.141  0.2622 -0.0306  0.1692
  130OSM    O1313928   4.452   5.475   6.099  0.2069  0.1680  0.1309
  130OSM    O1413929   4.281   5.650   6.094  0.2496 -0.3163  0.1449
  130OSM    O1113930   4.311   5.509   6.302  0.2881 -0.0875  0.2022
  130OSM    O1213931   4.205   5.410   6.088 -0.3179 -0.3751 -0.4201
  130OSM    C1S13932   4.296   5.372   6.353  0.6257  0.3445  0.7048
  130OSM    H1S13933   4.395   5.321   6.354 -0.6430 -2.3192 -1.0919
  130OSM    H1T13934   4.216   5.319   6.298  1.1888  1.3723 -1.1870
  130OSM     NF13935   4.253   5.243   6.554 -0.1212  0.6096 -0.5989
  130OSM    HNF13936   4.167   5.194   6.566 -0.4719  0.7675 -2.2631
  130OSM    C2S13937   4.244   5.374   6.494  0.7109  0.4557 -0.8748
  130OSM    H2S13938   4.310   5.439   6.555  1.6975  0.4841 -1.9283
  130OSM    C3S13939   4.100   5.429   6.494  0.2554 -0.1919 -0.3626
  130OSM    H3S13940   4.051   5.364   6.418  1.1291 -1.3157 -0.0022
  130OSM     O313941   4.084   5.563   6.438 -0.4245 -0.1493  0.0680
  130OSM    HO313942   4.159   5.570   6.379  0.3485 -0.4587  0.9962
  130OSM    C4S13943   4.036   5.415   6.630  0.4474 -0.0186  0.3339
  130OSM    H4S13944   4.024   5.309   6.658  0.9791 -0.2773 -0.3918
  130OSM    C5S13945   4.023   5.508   6.725 -0.1786 -0.6736 -0.2282
  130OSM    H5S13946   4.061   5.609   6.702  0.7665 -1.1902 -0.9909
  130OSM    C6S13947   3.965   5.495   6.861 -0.0859  0.2465 -0.7031
  130OSM    H6S13948   3.965   5.387   6.890 -0.5806  0.7248  1.2282
  130OSM    H6T13949   3.863   5.536   6.870 -0.8427 -1.0486 -2.7009
  130OSM    C7S13950   4.054   5.567   6.964  0.2935  0.4445 -0.5432
  130OSM    H7S13951   4.061   5.678   6.959  1.8472  0.4102  0.2653
  130OSM    H7T13952   4.156   5.523   6.958 -0.8374 -2.2394 -3.7868
  130OSM    C8S13953   3.994   5.551   7.106  0.3021  0.0461 -0.1685
  130OSM    H8S13954   3.981   5.441   7.122  1.9228 -0.1953 -0.4139
  130OSM    H8T13955   3.890   5.590   7.108  0.0279 -0.6373 -0.7344
  130OSM    C9S13956   4.096   5.588   7.216  0.8098  0.3116 -0.8665
  130OSM    H9S13957   4.092   5.699   7.214 -2.5245  0.2994 -0.3445
  130OSM    H9T13958   4.197   5.547   7.195  0.5071 -1.0044  0.1124
  130OSM   C10S13959   4.067   5.531   7.358  0.6518  0.1137  0.9120
  130OSM   H10S13960   4.042   5.423   7.353 -1.4005  0.5326  1.2279
  130OSM   H10T13961   3.966   5.573   7.380 -0.1335  0.2129 -2.3442
  130OSM   C11S13962   4.164   5.583   7.462 -0.0206  0.4731  1.3078
  130OSM   H11S13963   4.188   5.691   7.447  1.0618  0.2021  1.0516
  130OSM   H11T13964   4.263   5.534   7.457 -1.1257 -1.9153  1.5135
  130OSM   C12S13965   4.103   5.555   7.598 -1.0297  0.2490 -0.5241
  130OSM   H12S13966   4.074   5.448   7.593  0.7465 -0.2183 -2.4958
  130OSM   H12T13967   4.016   5.623   7.611 -1.4432 -0.4778  0.6748
  130OSM   C13S13968   4.215   5.582   7.699 -0.1353 -0.2682 -0.1666
  130OSM   H13S13969   4.259   5.683   7.690 -0.1006 -0.2787 -0.1168
  130OSM   H13T13970   4.300   5.510   7.690  0.0423  0.1487 -2.5504
  130OSM   C14S13971   4.163   5.580   7.843  1.0437 -0.3268  0.9224
  130OSM   H14S13972   4.152   5.475   7.878 -0.4866 -0.4046  0.2951
  130OSM   H14T13973   4.062   5.627   7.848  0.3166 -1.4451 -1.4622
  130OSM   C15S13974   4.266   5.646   7.937  0.3323 -0.5752 -0.0392
  130OSM   H15S13975   4.303   5.740   7.892 -0.4359 -0.7739 -1.1215
  130OSM   H15T13976   4.346   5.569   7.936  0.0693 -0.9170  1.7287
  130OSM   C16S13977   4.216   5.654   8.082 -0.0223  0.3915 -0.9959
  130OSM   H16S13978   4.193   5.552   8.119 -1.9026  0.9132 -0.6236
  130OSM   H16T13979   4.121   5.710   8.092  0.2994  0.6340  1.4549
  130OSM   C17S13980   4.329   5.716   8.172  0.2233  0.7734 -0.4437
  130OSM   H17S13981   4.427   5.683   8.130 -0.8394 -1.4415 -1.3155
  130OSM   H17T13982   4.324   5.659   8.266 -0.0704 -0.2624 -1.0774
  130OSM   C18S13983   4.316   5.861   8.187  0.4264 -0.6636  0.1844
  130OSM   H18S13984   4.405   5.899   8.242  2.3064 -0.0443 -3.0198
  130OSM   H18T13985   4.226   5.887   8.246 -0.1249 -0.6859 -0.6275
  130OSM   H18U13986   4.303   5.919   8.093  0.5020  0.5261  0.8871
  130OSM    C1F13987   4.367   5.181   6.586 -0.2268  0.4536  0.1307
  130OSM     OF13988   4.470   5.249   6.580  0.1111 -0.7495  0.1167
  130OSM    C2F13989   4.378   5.038   6.625 -1.0073  0.0051 -0.8733
  130OSM    H2F13990   4.476   5.018   6.673 -1.9236 -2.1478  0.2301
  130OSM    H2G13991   4.365   4.977   6.534 -0.9674 -1.7790  0.2672
  130OSM    C3F13992   4.268   5.014   6.726  0.9200 -1.1155  0.0486
  130OSM    H3F13993   4.264   4.903   6.737 -0.3552 -1.0070  0.8492
  130OSM    H3G13994   4.171   5.045   6.681  1.6709  0.1838 -0.7395
  130OSM    C4F13995   4.285   5.090   6.858 -0.2102 -0.7580  0.0151
  130OSM    H4F13996   4.289   5.197   6.828  0.3472 -0.8272 -0.1631
  130OSM    H4G13997   4.379   5.070   6.914 -2.0497  0.5271  3.8756
  130OSM    C5F13998   4.173   5.049   6.959  1.0261  0.3952 -0.2150
  130OSM    H5F13999   4.207   4.949   6.995  1.0674  0.2825 -0.5625
  130OSM    H5G14000   4.077   5.042   6.903  0.1330  0.8669  1.2240
  130OSM    C6F14001   4.163   5.144   7.079 -0.1746  0.0661  0.2514
  130OSM    H6F14002   4.131   5.242   7.038 -0.5639  0.1383  0.7147
  130OSM    H6G14003   4.259   5.139   7.136 -0.5173 -0.8398  0.7724
  130OSM    C7F14004   4.067   5.094   7.186  0.8225 -0.6066  0.0375
  130OSM    H7F14005   3.966   5.092   7.140  1.2118  0.4054 -0.8922
  130OSM    H7G14006   4.070   5.176   7.261  1.9885  0.4431 -1.1122
  130OSM    C8F14007   4.102   4.956   7.237  0.3531 -0.1126  0.0667
  130OSM    H8F14008   4.206   4.969   7.275 -0.7149  3.4050  2.3463
  130OSM    H8G14009   4.106   4.874   7.163  1.3123 -1.7209  1.8106
  130OSM    C9F14010   4.016   4.905   7.343  0.1478 -0.4385  0.3577
  130OSM    H9F14011   3.921   4.863   7.307  0.1737 -2.0822  2.0342
  130OSM   C10F14012   4.037   4.927   7.472  0.7599 -0.1146  0.7357
  130OSM   H10F14013   3.966   4.888   7.546 -0.8250  0.7855 -0.2753
  130OSM   C11F14014   4.143   5.003   7.555 -0.0626 -0.5762  0.4744
  130OSM   H11F14015   4.225   5.046   7.493 -1.2740  2.1840  0.6325
  130OSM   H11G14016   4.197   4.942   7.631 -0.4034  2.3313  3.2402
  130OSM   C12F14017   4.077   5.119   7.634  0.1025 -0.7500 -0.2707
  130OSM   H12F14018   4.006   5.067   7.702 -0.3867  0.9880  0.6198
  130OSM   H12G14019   4.019   5.189   7.571  0.0905 -1.2999 -0.8762
  130OSM   C13F14020   4.179   5.208   7.708  0.3379 -0.5517  0.8827
  130OSM   H13F14021   4.114   5.278   7.766 -0.8391  0.1079 -1.1248
  130OSM   H13G14022   4.239   5.260   7.631 -1.5862  0.0374 -0.2960
  130OSM   C14F14023   4.277   5.144   7.801 -0.1287  0.0996  0.3819
  130OSM   H14F14024   4.341   5.073   7.744 -1.1485 -0.3008 -0.2823
  130OSM   H14G14025   4.211   5.086   7.869 -0.5651 -1.5875 -1.3981
  130OSM   C15F14026   4.361   5.243   7.882  0.2128 -0.0320 -0.3586
  130OSM   H15F14027   4.281   5.306   7.926  1.0572 -0.7448  2.3587
  130OSM   H15G14028   4.424   5.309   7.819 -1.6105  0.6567 -1.5651
  130OSM   C16F14029   4.451   5.172   7.988  0.4017  0.1840 -0.2385
  130OSM   H16F14030   4.532   5.234   8.032 -0.0187 -0.4367  1.5095
  130OSM   H16G14031   4.501   5.091   7.930 -2.9305 -2.3830  0.1560
  130OSM   C17F14032   4.370   5.122   8.107  0.0753 -0.5731 -1.5938
  130OSM   H17F14033   4.430   5.053   8.170 -0.2084  0.4848 -0.1175
  130OSM   H17G14034   4.284   5.064   8.067  1.0147 -1.0915 -2.9409
  130OSM   C18F14035   4.324   5.241   8.205  0.1533  0.1751  0.1533
  130OSM   H18F14036   4.248   5.293   8.142  1.2256 -1.7976 -2.9990
  130OSM   H18G14037   4.412   5.290   8.250 -0.0787  0.0798  0.7112
  130OSM   H18H14038   4.270   5.193   8.290  2.9108  0.4740  2.1897
  131OSM      N14039   1.702   0.137   6.045  0.0951 -0.2754  0.1498
  131OSM    C1514040   1.838   0.209   6.076 -0.0651  0.4702  0.3757
  131OSM   H15A14041   1.839   0.243   6.179  2.6478 -1.0080  0.9360
  131OSM   H15B14042   1.850   0.287   6.002 -0.9509 -1.8956 -2.4493
  131OSM   H15C14043   1.922   0.142   6.068  0.4404  1.1179  0.1936
  131OSM    C1414044   1.596   0.237   6.055  0.1906 -0.7912 -0.3046
  131OSM   H14A14045   1.620   0.322   5.993 -0.8053 -1.8670 -2.2852
  131OSM   H14B14046   1.585   0.269   6.158  3.4244 -2.0853  0.5377
  131OSM   H14C14047   1.502   0.202   6.015  0.6980 -2.0735 -0.3962
  131OSM    C1314048   1.700   0.084   5.912  0.3976  0.6233 -0.8415
  131OSM   H13A14049   1.605   0.035   5.896  0.4050 -0.2532  1.4635
  131OSM   H13B14050   1.783   0.017   5.895 -0.0652 -0.3955  0.6915
  131OSM   H13C14051   1.712   0.158   5.834  2.7117 -0.1158 -1.2501
  131OSM    C1214052   1.672   0.023   6.144  0.2472 -0.5557 -0.1343
  131OSM   H12A14053   1.594  -0.037   6.099  0.8956 -1.0784 -0.5850
  131OSM   H12B14054   1.635   0.066   6.235  0.8920 -1.7436  0.7161
  131OSM    C1114055   1.793  -0.073   6.170  0.8121  0.3627  0.1454
  131OSM   H11A14056   1.755  -0.161   6.227 -0.1246  0.6317 -0.0432
  131OSM   H11B14057   1.876  -0.031   6.230  1.0012 -1.4405  1.2088
  131OSM      P14058   1.967  -0.213   6.037  0.0784  0.2867  0.2165
  131OSM    O1314059   1.960  -0.291   5.915  0.1025 -0.1049  0.0922
  131OSM    O1414060   2.083  -0.117   6.042 -0.3001  0.3771 -0.1829
  131OSM    O1114061   1.962  -0.293   6.171  0.1456  0.2629  0.3183
  131OSM    O1214062   1.843  -0.124   6.044 -0.5698 -0.2469 -0.0235
  131OSM    C1S14063   2.071  -0.338   6.251 -0.2538  0.0771 -0.0224
  131OSM    H1S14064   2.152  -0.262   6.255  0.1114 -0.3780  1.7612
  131OSM    H1T14065   2.110  -0.429   6.201 -0.2011  0.5984 -0.9726
  131OSM     NF14066   2.162  -0.434   6.450  0.4702  0.6480  0.1169
  131OSM    HNF14067   2.179  -0.532   6.440 -1.1735  0.4670 -1.1819
  131OSM    C2S14068   2.037  -0.380   6.393 -0.4544  1.0194  0.1018
  131OSM    H2S14069   2.003  -0.292   6.452 -3.4435  0.5501 -0.7687
  131OSM    C3S14070   1.920  -0.479   6.386  0.1509  0.2459 -0.0397
  131OSM    H3S14071   1.958  -0.572   6.340 -0.7508  0.5958 -1.5755
  131OSM     O314072   1.800  -0.439   6.308 -0.1544  0.2749  0.7981
  131OSM    HO314073   1.838  -0.378   6.244 -1.7317  0.5680  0.1125
  131OSM    C4S14074   1.868  -0.505   6.521 -0.1024 -0.5034 -0.4437
  131OSM    H4S14075   1.811  -0.425   6.570 -2.0077  0.0595 -3.3270
  131OSM    C5S14076   1.884  -0.622   6.585 -0.2585  0.6841 -0.0176
  131OSM    H5S14077   1.931  -0.708   6.535 -0.8314 -0.0650  0.7096
  131OSM    C6S14078   1.833  -0.661   6.720 -0.2136 -0.2676 -0.3380
  131OSM    H6S14079   1.777  -0.757   6.712 -0.0067 -0.5352  1.1254
  131OSM    H6T14080   1.761  -0.580   6.746  1.2273  0.6903  0.8883
  131OSM    C7S14081   1.943  -0.661   6.833 -0.2995 -0.3287  0.1733
  131OSM    H7S14082   1.996  -0.564   6.830 -0.6685 -0.1417 -1.1571
  131OSM    H7T14083   2.023  -0.734   6.810 -0.1885  0.5384 -2.5964
  131OSM    C8S14084   1.883  -0.689   6.968  0.4110  0.6434  0.0688
  131OSM    H8S14085   1.813  -0.772   6.946  0.1224 -0.0965  3.3012
  131OSM    H8T14086   1.821  -0.610   7.015 -0.0895 -0.8858  2.0882
  131OSM    C9S14087   1.983  -0.747   7.067  0.3038 -0.4550 -0.4519
  131OSM    H9S14088   2.067  -0.674   7.078  0.0510 -0.0035 -1.4341
  131OSM    H9T14089   2.017  -0.843   7.023  0.4991  0.1026 -1.5420
  131OSM   C10S14090   1.933  -0.758   7.213 -0.1538  0.4449  0.4200
  131OSM   H10S14091   2.019  -0.804   7.266  0.2370  0.3048 -0.3164
  131OSM   H10T14092   1.836  -0.812   7.220 -1.6819  3.0145  0.3687
  131OSM   C11S14093   1.919  -0.624   7.279  0.1758  0.3908  0.6764
  131OSM   H11S14094   1.823  -0.575   7.254 -0.0742  0.4283  1.6726
  131OSM   H11T14095   2.007  -0.562   7.250  0.6840 -0.5139  0.2414
  131OSM   C12S14096   1.934  -0.630   7.429 -0.1934 -0.3410 -0.0406
  131OSM   H12S14097   2.015  -0.702   7.453 -0.0130 -0.5147 -1.1389
  131OSM   H12T14098   1.836  -0.671   7.462  0.0244 -0.5090  0.4095
  131OSM   C13S14099   1.954  -0.496   7.501  0.5155 -1.0357 -0.2295
  131OSM   H13S14100   1.884  -0.422   7.457  0.5047 -0.8535  0.0916
  131OSM   H13T14101   2.060  -0.466   7.484 -0.0355  1.1923 -0.0665
  131OSM   C14S14102   1.930  -0.500   7.656  0.1465  0.2521 -1.1121
  131OSM   H14S14103   1.996  -0.576   7.703 -0.1858  0.6992  0.1240
  131OSM   H14T14104   1.825  -0.534   7.669  0.2514 -0.0031 -0.9283
  131OSM   C15S14105   1.960  -0.366   7.729  0.5056 -0.0940 -0.1795
  131OSM   H15S14106   1.918  -0.280   7.672 -1.4657 -0.6413  0.3772
  131OSM   H15T14107   2.070  -0.355   7.732  0.4729  0.0345  0.5189
  131OSM   C16S14108   1.903  -0.366   7.875  0.1770  0.5944 -0.0138
  131OSM   H16S14109   1.941  -0.447   7.941  1.8470  0.6831 -0.8179
  131OSM   H16T14110   1.793  -0.369   7.862  0.1894  0.9209 -0.2031
  131OSM   C17S14111   1.924  -0.228   7.941 -0.2001 -0.2935 -0.3935
  131OSM   H17S14112   2.029  -0.191   7.933 -0.4500  0.3832 -0.6510
  131OSM   H17T14113   1.900  -0.238   8.049 -0.2789  2.9160 -0.0100
  131OSM   C18S14114   1.847  -0.100   7.889 -0.2527  0.1308  0.4706
  131OSM   H18S14115   1.851  -0.083   7.780 -2.6111  0.2063  0.3367
  131OSM   H18T14116   1.863  -0.007   7.947 -1.2411  1.2098 -0.9298
  131OSM   H18U14117   1.739  -0.126   7.891  0.3830 -3.0119 -0.3235
  131OSM    C1F14118   2.260  -0.357   6.490  0.4334  0.1179 -0.1957
  131OSM     OF14119   2.243  -0.236   6.484 -0.3637  0.1270  0.6569
  131OSM    C2F14120   2.395  -0.423   6.518  0.3590 -0.0038 -0.6529
  131OSM    H2F14121   2.468  -0.350   6.558 -0.8517  1.3303 -0.7737
  131OSM    H2G14122   2.434  -0.472   6.427  2.0685  0.2747 -0.1028
  131OSM    C3F14123   2.368  -0.528   6.633 -0.7225 -0.4678 -1.1900
  131OSM    H3F14124   2.467  -0.571   6.662 -0.6800 -0.4688 -1.3354
  131OSM    H3G14125   2.316  -0.618   6.595  0.9346 -1.6160 -0.8730
  131OSM    C4F14126   2.303  -0.474   6.767 -0.9229 -0.1841  0.4657
  131OSM    H4F14127   2.199  -0.444   6.739 -0.5298  0.4318 -0.3885
  131OSM    H4G14128   2.342  -0.371   6.782 -0.6691 -0.0840 -0.7559
  131OSM    C5F14129   2.320  -0.547   6.899  1.0063 -0.1965 -0.5260
  131OSM    H5F14130   2.416  -0.604   6.902  1.4109  0.3574  3.4401
  131OSM    H5G14131   2.239  -0.622   6.911  0.1832  0.6347 -0.8320
  131OSM    C6F14132   2.313  -0.449   7.015 -0.8221  0.0472  0.0985
  131OSM    H6F14133   2.210  -0.408   7.018 -1.4898 -1.3903 -1.6745
  131OSM    H6G14134   2.376  -0.360   6.992 -1.1659 -0.1837 -1.8837
  131OSM    C7F14135   2.363  -0.514   7.142 -0.0486  0.2134 -0.4404
  131OSM    H7F14136   2.464  -0.554   7.116 -0.3237 -0.7688 -0.0538
  131OSM    H7G14137   2.294  -0.600   7.156  0.2370  0.3407  2.4039
  131OSM    C8F14138   2.365  -0.434   7.270  0.1363 -0.2455  0.5215
  131OSM    H8F14139   2.373  -0.502   7.357  1.7906 -1.5342 -0.5591
  131OSM    H8G14140   2.268  -0.382   7.278  0.0970 -0.0981 -0.7152
  131OSM    C9F14141   2.490  -0.347   7.281 -0.3335  0.1877  0.2303
  131OSM    H9F14142   2.499  -0.293   7.186 -4.1481 -2.1564 -1.6773
  131OSM   C10F14143   2.582  -0.339   7.378  0.0080  0.1428  0.0190
  131OSM   H10F14144   2.673  -0.282   7.355 -0.6287  0.8670 -0.7723
  131OSM   C11F14145   2.576  -0.406   7.512  0.4201 -1.0520 -0.2592
  131OSM   H11F14146   2.639  -0.497   7.506 -0.3140 -1.9150  3.0051
  131OSM   H11G14147   2.473  -0.442   7.529  0.5168 -0.2995  2.2734
  131OSM   C12F14148   2.614  -0.319   7.637  0.0321  0.2708 -0.6137
  131OSM   H12F14149   2.560  -0.224   7.658  1.7754  1.1062  0.2358
  131OSM   H12G14150   2.723  -0.303   7.634 -0.0029  0.3884 -1.5887
  131OSM   C13F14151   2.588  -0.403   7.769 -0.6927  0.1372 -0.5443
  131OSM   H13F14152   2.592  -0.510   7.741 -0.4699  0.0825 -0.3080
  131OSM   H13G14153   2.487  -0.394   7.814 -0.3970  1.6263 -0.1235
  131OSM   C14F14154   2.697  -0.398   7.880  0.0515  0.2538  0.4080
  131OSM   H14F14155   2.798  -0.412   7.836 -0.9437 -0.5078 -1.7496
  131OSM   H14G14156   2.666  -0.482   7.945 -3.4673  1.2889  0.3124
  131OSM   C15F14157   2.677  -0.289   7.981  0.0316  0.4154  0.3177
  131OSM   H15F14158   2.571  -0.295   8.014 -0.8577  1.0192 -2.2435
  131OSM   H15G14159   2.695  -0.190   7.935 -1.1089  2.3400  3.6610
  131OSM   C16F14160   2.761  -0.311   8.108 -0.7133 -0.3300  0.0942
  131OSM   H16F14161   2.731  -0.409   8.151 -0.4230 -0.2800  0.4109
  131OSM   H16G14162   2.740  -0.238   8.189  2.0980 -1.4294  1.9479
  131OSM   C17F14163   2.914  -0.316   8.086  0.0450  0.0095  0.4415
  131OSM   H17F14164   2.950  -0.213   8.064  0.4567 -0.7005 -2.4950
  131OSM   H17G14165   2.943  -0.381   8.001  0.7916 -1.1386  1.5407
  131OSM   C18F14166   3.000  -0.355   8.201  0.6719 -0.6034  0.3371
  131OSM   H18F14167   2.999  -0.463   8.224  0.7079 -0.8080 -0.6011
  131OSM   H18G14168   2.954  -0.322   8.296  1.4758  0.5387  0.3501
  131OSM   H18H14169   3.108  -0.329   8.202  1.2799 -2.9095 -0.3074
  132OSM      N14170   4.817   2.281   6.110 -0.1660 -0.3358 -0.3315
  132OSM    C1514171   4.687   2.341   6.132 -0.3957 -0.4394 -0.1535
  132OSM   H15A14172   4.626   2.326   6.044 -1.5077  0.7867  0.3770
  132OSM   H15B14173   4.698   2.448   6.139 -2.2904 -0.2632  0.9028
  132OSM   H15C14174   4.627   2.294   6.209  0.5639  0.0846  0.9462
  132OSM    C1414175   4.792   2.133   6.101 -0.8925 -0.1087 -0.0755
  132OSM   H14A14176   4.887   2.088   6.078 -0.0073  1.4270  0.4005
  132OSM   H14B14177   4.728   2.119   6.015 -2.7678 -0.7263  1.3481
  132OSM   H14C14178   4.742   2.092   6.187  0.6164  0.1959  0.9771
  132OSM    C1314179   4.873   2.334   5.983  0.6353 -0.8055 -0.1085
  132OSM   H13A14180   4.901   2.438   5.995  0.9273 -0.8749 -0.1963
  132OSM   H13B14181   4.812   2.318   5.896  1.1715 -1.5092 -0.3665
  132OSM   H13C14182   4.963   2.284   5.951 -0.2329 -1.3212 -1.8252
  132OSM    C1214183   4.904   2.313   6.231  0.0543  0.3160  0.2247
  132OSM   H12A14184   4.985   2.241   6.230 -0.5601 -0.4310 -2.0676
  132OSM   H12B14185   4.847   2.282   6.317 -0.9441 -0.7304 -0.7761
  132OSM    C1114186   4.957   2.452   6.244 -0.0802 -0.4108 -0.4969
  132OSM   H11A14187   5.021   2.469   6.154 -0.9152 -1.6392 -1.3535
  132OSM   H11B14188   5.014   2.459   6.339 -2.4789 -1.7348  1.1336
  132OSM      P14189   4.801   2.629   6.364  0.4666  0.2744 -0.2034
  132OSM    O1314190   4.914   2.705   6.420 -0.0417  0.2541  0.0746
  132OSM    O1414191   4.679   2.697   6.326 -0.8187 -0.2250  0.9149
  132OSM    O1114192   4.765   2.520   6.466  0.0326 -0.0802  0.0511
  132OSM    O1214193   4.855   2.554   6.238 -0.5719 -0.0563 -0.0509
  132OSM    C1S14194   4.858   2.494   6.576  0.2683 -0.1233  0.6132
  132OSM    H1S14195   4.891   2.589   6.623 -0.3652  0.8716 -0.8627
  132OSM    H1T14196   4.944   2.434   6.542 -0.5898  0.0584 -2.1631
  132OSM     NF14197   4.859   2.425   6.810 -0.7940 -0.6016 -0.4181
  132OSM    HNF14198   4.920   2.348   6.825  0.2305 -0.0873 -1.7343
  132OSM    C2S14199   4.789   2.415   6.689  0.1534 -0.2895  0.4875
  132OSM    H2S14200   4.687   2.457   6.704  0.7564  1.1799  0.6865
  132OSM    C3S14201   4.771   2.262   6.645 -0.1393  0.1182  0.4041
  132OSM    H3S14202   4.867   2.209   6.634  0.2721  0.9004  0.1566
  132OSM     O314203   4.714   2.247   6.516 -0.5514  0.5820  0.3860
  132OSM    HO314204   4.715   2.336   6.480  0.7973  0.2258 -0.5044
  132OSM    C4S14205   4.695   2.180   6.748  0.0121  0.0081  0.4551
  132OSM    H4S14206   4.752   2.114   6.814  0.7381  0.1067 -0.0587
  132OSM    C5S14207   4.561   2.189   6.763  0.4533  0.3972  0.1070
  132OSM    H5S14208   4.499   2.269   6.721  1.3754  1.9615  1.5858
  132OSM    C6S14209   4.477   2.112   6.864  0.0237 -0.1990 -0.8957
  132OSM    H6S14210   4.403   2.065   6.795 -0.1066  0.1116 -0.9702
  132OSM    H6T14211   4.426   2.180   6.935  2.3031 -0.3725  1.0146
  132OSM    C7S14212   4.539   1.990   6.938 -0.2740 -0.4218  0.4163
  132OSM    H7S14213   4.625   2.000   7.007  0.7068  1.4462 -0.9807
  132OSM    H7T14214   4.584   1.929   6.856 -0.1084 -0.2397  0.3696
  132OSM    C8S14215   4.422   1.923   7.002 -0.6870 -0.0462 -0.9686
  132OSM    H8S14216   4.371   1.862   6.924  0.2073 -0.1723 -1.4710
  132OSM    H8T14217   4.355   2.003   7.040  1.9369  0.8165  2.3380
  132OSM    C9S14218   4.460   1.843   7.126  0.4307 -0.2087  0.1027
  132OSM    H9S14219   4.536   1.765   7.105 -1.2398 -1.4512 -1.6483
  132OSM    H9T14220   4.385   1.775   7.172  1.9614 -2.4449 -0.5865
  132OSM   C10S14221   4.502   1.950   7.237 -0.3909  0.4082  0.2437
  132OSM   H10S14222   4.433   2.036   7.231  0.8031  1.3694 -0.1579
  132OSM   H10T14223   4.604   1.993   7.228  0.4771 -1.7082 -0.9444
  132OSM   C11S14224   4.492   1.887   7.382 -0.4011 -0.3607  0.9582
  132OSM   H11S14225   4.564   1.801   7.385 -0.8870 -0.8159  0.0005
  132OSM   H11T14226   4.391   1.846   7.403 -0.4678 -2.3324 -2.4046
  132OSM   C12S14227   4.524   1.980   7.501 -0.2409 -0.3344  0.1074
  132OSM   H12S14228   4.455   2.067   7.497 -2.1445 -1.4750  3.9813
  132OSM   H12T14229   4.627   2.011   7.469 -0.1453 -0.2656  0.4791
  132OSM   C13S14230   4.534   1.902   7.633  0.3553 -0.1714  0.7326
  132OSM   H13S14231   4.614   1.829   7.609  0.4058  0.5724 -1.5321
  132OSM   H13T14232   4.440   1.849   7.661 -1.3537  3.0039  1.5123
  132OSM   C14S14233   4.584   1.985   7.755 -0.2524 -0.4396 -0.5748
  132OSM   H14S14234   4.517   2.072   7.771  1.6511  0.6594  2.1534
  132OSM   H14T14235   4.685   2.026   7.735 -0.4430  0.4894  0.2878
  132OSM   C15S14236   4.592   1.896   7.880 -0.0172 -0.3897  0.3181
  132OSM   H15S14237   4.663   1.811   7.872  0.0690 -0.2686 -0.2308
  132OSM   H15T14238   4.493   1.847   7.884  0.7284 -1.9151  1.4181
  132OSM   C16S14239   4.618   1.967   8.009 -0.5045 -0.8578 -0.5725
  132OSM   H16S14240   4.543   2.050   8.010  0.2616 -0.1527 -0.6893
  132OSM   H16T14241   4.721   2.008   8.003 -1.1229  0.9481  0.3639
  132OSM   C17S14242   4.596   1.879   8.129  0.0897  0.3091 -0.6555
  132OSM   H17S14243   4.515   1.803   8.116  0.6531 -0.4186 -0.0041
  132OSM   H17T14244   4.556   1.935   8.217  2.0455 -0.7161  0.9745
  132OSM   C18S14245   4.725   1.808   8.170  0.2022 -1.2402  0.3976
  132OSM   H18S14246   4.719   1.733   8.252 -1.0684  0.1701  1.6514
  132OSM   H18T14247   4.789   1.894   8.202  0.0447 -1.1147  0.3739
  132OSM   H18U14248   4.786   1.773   8.083  1.9216  1.5255  0.3487
  132OSM    C1F14249   4.862   2.530   6.896 -0.1960 -0.1777 -0.0877
  132OSM     OF14250   4.818   2.636   6.856 -0.1653 -0.2945 -0.0354
  132OSM    C2F14251   4.927   2.505   7.035 -0.0032  0.4805  0.8378
  132OSM    H2F14252   5.032   2.479   7.013 -0.2614  0.2303 -0.1649
  132OSM    H2G14253   4.872   2.419   7.080 -0.0426  0.3613  0.5676
  132OSM    C3F14254   4.914   2.629   7.129  0.4333  0.6259  0.5110
  132OSM    H3F14255   4.820   2.681   7.102 -0.5834 -1.6157 -0.5924
  132OSM    H3G14256   4.996   2.700   7.104 -2.1775  3.0999 -1.8503
  132OSM    C4F14257   4.920   2.597   7.275 -0.0574  0.5363 -0.2887
  132OSM    H4F14258   5.020   2.552   7.292  1.1548  3.2389  0.3229
  132OSM    H4G14259   4.848   2.519   7.307  3.1459 -2.5044  0.1068
  132OSM    C5F14260   4.919   2.730   7.354 -0.3070  0.6001 -0.2525
  132OSM    H5F14261   4.851   2.810   7.316  2.4723  1.9355 -2.7837
  132OSM    H5G14262   5.018   2.773   7.330  0.9077 -0.9960  1.6165
  132OSM    C6F14263   4.912   2.692   7.511  0.4911 -0.2180  0.7034
  132OSM    H6F14264   5.002   2.629   7.529  1.9419  1.5760  0.1493
  132OSM    H6G14265   4.818   2.634   7.510  0.8517 -0.8974 -2.2344
  132OSM    C7F14266   4.899   2.816   7.594  0.0150 -0.1698 -0.5063
  132OSM    H7F14267   4.808   2.877   7.574 -1.0089 -1.1811  0.8622
  132OSM    H7G14268   4.983   2.887   7.580  1.6898 -1.4195  2.3774
  132OSM    C8F14269   4.896   2.783   7.749 -0.0439 -0.6906 -0.1056
  132OSM    H8F14270   4.825   2.706   7.784  0.2905 -0.1112  2.0414
  132OSM    H8G14271   4.870   2.880   7.797  0.4924 -1.8065  2.6129
  132OSM    C9F14272   5.033   2.722   7.793 -0.3355 -0.2151  0.0428
  132OSM    H9F14273   5.058   2.627   7.742 -2.0715 -1.1513  0.8565
  132OSM   C10F14274   5.118   2.775   7.876 -0.5825 -0.9528 -0.1367
  132OSM   H10F14275   5.209   2.719   7.903 -0.7168 -0.5860  1.1447
  132OSM   C11F14276   5.099   2.912   7.949 -0.4944  0.4237  0.0284
  132OSM   H11F14277   4.993   2.946   7.955 -0.3837  0.6610  0.6895
  132OSM   H11G14278   5.149   2.989   7.886  0.4728  0.0225  0.2878
  132OSM   C12F14279   5.177   2.905   8.074  1.0648 -0.0256 -0.3882
  132OSM   H12F14280   5.287   2.908   8.063  1.2488 -0.4084  1.1952
  132OSM   H12G14281   5.164   2.809   8.128 -0.4753 -0.2828 -1.1615
  132OSM   C13F14282   5.142   3.026   8.172 -0.2009 -0.5197  0.9769
  132OSM   H13F14283   5.032   3.018   8.178 -0.8148  2.6333 -2.3494
  132OSM   H13G14284   5.147   3.117   8.109  1.4692 -1.8806 -1.0171
  132OSM   C14F14285   5.221   3.028   8.295  0.5462  0.5156  0.1636
  132OSM   H14F14286   5.327   3.050   8.270  1.1433 -1.2046  1.0251
  132OSM   H14G14287   5.221   2.926   8.338  0.0350  0.3718 -0.1757
  132OSM   C15F14288   5.162   3.123   8.406  0.1276 -0.2075 -0.4292
  132OSM   H15F14289   5.053   3.107   8.423 -0.1733 -0.5485 -2.4464
  132OSM   H15G14290   5.163   3.225   8.363 -3.0733 -0.0841 -0.4411
  132OSM   C16F14291   5.252   3.129   8.530 -0.0999  0.6252 -0.0109
  132OSM   H16F14292   5.356   3.127   8.491 -0.6487  0.3996 -1.5131
  132OSM   H16G14293   5.229   3.045   8.599 -2.3481  1.9420  0.9604
  132OSM   C17F14294   5.246   3.260   8.612 -0.2759 -0.4555 -0.1434
  132OSM   H17F14295   5.251   3.340   8.536  1.9890 -1.1015 -0.7486
  132OSM   H17G14296   5.332   3.269   8.682  0.7877  1.1771 -1.5893
  132OSM   C18F14297   5.116   3.286   8.700 -0.3287  0.0439  0.4990
  132OSM   H18F14298   5.025   3.273   8.639 -0.9193 -1.1037  1.5682
  132OSM   H18G14299   5.136   3.392   8.727  0.5870  0.7939 -2.7302
  132OSM   H18H14300   5.115   3.217   8.788  0.4159 -0.5563  0.0490
  133SAPE     N14301   5.958   5.814  10.727 -0.3332  0.0310  0.5096
  133SAPE   HN114302   6.037   5.748  10.745  0.0515  0.0891 -0.8483
  133SAPE   HN214303   5.985   5.907  10.764 -1.1979 -0.2041  1.7885
  133SAPE   HN314304   5.871   5.784  10.774  0.8085  1.8274  4.1548
  133SAPE   C1214305   5.921   5.814  10.583 -0.4959  0.5213  0.2357
  133SAPE  H12A14306   5.931   5.922  10.556 -1.8217  0.3170 -1.2002
  133SAPE  H12B14307   5.813   5.789  10.579 -0.6464  0.9900  1.1539
  133SAPE   C1114308   6.011   5.716  10.508  0.3827 -0.3391 -0.2180
  133SAPE  H11A14309   6.116   5.746  10.526  0.2724 -0.4059  0.5849
  133SAPE  H11B14310   5.995   5.726  10.398 -0.0299  0.7345 -0.0737
  133SAPE     P14311   6.078   5.465  10.581  0.0533 -0.2114  0.1613
  133SAPE   O1314312   6.192   5.527  10.657  1.1662  0.4626  0.7569
  133SAPE   O1414313   6.014   5.344  10.639  0.4980  0.5186 -0.2444
  133SAPE   O1214314   5.979   5.587  10.556 -0.1553 -0.0526  0.5409
  133SAPE   O1114315   6.125   5.435  10.438 -0.4040  0.7964 -0.0376
  133SAPE    C114316   6.029   5.412  10.332  0.9589 -0.5090 -0.1801
  133SAPE    HA14317   5.955   5.333  10.354 -0.4751  1.1401  1.1818
  133SAPE    HB14318   5.974   5.505  10.306 -0.6539 -1.3887 -0.0587
  133SAPE    C214319   6.116   5.353  10.213  0.7393 -0.1351 -0.2343
  133SAPE    HS14320   6.181   5.268  10.243  1.1158  0.6992  1.3994
  133SAPE   O2114321   6.189   5.469  10.163 -0.4700 -0.4452 -0.2010
  133SAPE   C2114322   6.300   5.424  10.101 -0.7582 -0.1575  0.0366
  133SAPE   O2214323   6.348   5.312  10.108  0.3099 -0.3692  0.2768
  133SAPE   C2214324   6.354   5.534  10.015  0.4078 -0.0512 -0.7075
  133SAPE   H2R14325   6.273   5.603   9.982 -0.1132  0.2990  1.1651
  133SAPE   H2S14326   6.428   5.589  10.078 -0.2876 -2.8303  2.8549
  133SAPE    C314327   6.022   5.300  10.103 -0.7628 -0.2241 -0.0689
  133SAPE    HX14328   5.970   5.393  10.070 -0.1947 -0.1318 -0.7233
  133SAPE    HY14329   5.953   5.221  10.140  0.4432 -3.2811 -3.6981
  133SAPE   O3114330   6.088   5.249   9.990  0.2636 -0.0054  0.0885
  133SAPE   C3114331   6.127   5.122   9.996  0.7612 -0.2052 -0.3742
  133SAPE   O3214332   6.119   5.047  10.089  0.5749  0.2372  0.3400
  133SAPE   C3214333   6.187   5.086   9.859  0.6354  0.3048 -0.4139
  133SAPE   H2X14334   6.260   5.166   9.831  2.8541 -0.6378  2.1909
  133SAPE   H2Y14335   6.106   5.084   9.784 -1.4783  1.0500  1.7224
  133SAPE   C2314336   6.440   5.470   9.900 -0.7517 -0.5961  0.0806
  133SAPE   H3R14337   6.383   5.407   9.828  1.0590 -2.4663  0.1860
  133SAPE   H3S14338   6.521   5.405   9.939  1.5556 -0.2231 -3.6029
  133SAPE   C2414339   6.506   5.585   9.814  0.0235  0.5987 -0.6725
  133SAPE   H4R14340   6.417   5.643   9.784  0.0686  0.3261 -1.3526
  133SAPE   H4S14341   6.554   5.537   9.725  2.9194  2.9330 -0.5599
  133SAPE   C2514342   6.594   5.694   9.880 -0.4079 -0.7245  0.7616
  133SAPE   H5R14343   6.564   5.730   9.980  0.2855  0.9252  0.4032
  133SAPE   C2614344   6.702   5.761   9.826 -0.5873 -0.5577  0.1067
  133SAPE   H6R14345   6.760   5.839   9.877 -2.3525  0.4098  0.7234
  133SAPE   C2714346   6.765   5.730   9.693 -0.4646  0.2373 -0.1008
  133SAPE   H7R14347   6.703   5.656   9.637  0.1587 -0.9654  0.7583
  133SAPE   H7S14348   6.860   5.674   9.709 -0.3698 -0.0251 -1.4307
  133SAPE   C2814349   6.798   5.847   9.599  0.7251 -0.8939 -0.3469
  133SAPE   H8R14350   6.794   5.944   9.651  0.9239 -0.8281 -0.4555
  133SAPE   C2914351   6.848   5.833   9.477 -0.5862 -0.1862 -0.6529
  133SAPE   H9R14352   6.875   5.920   9.415  0.3057 -0.5386 -0.7723
  133SAPE  C21014353   6.869   5.703   9.408  0.0202  0.3730  0.3613
  133SAPE  H10R14354   6.837   5.622   9.476 -0.9045  1.5199  1.3403
  133SAPE  H10S14355   6.978   5.697   9.389  0.4474  1.9803  1.9825
  133SAPE  C21114356   6.795   5.713   9.279 -0.2593 -0.1184 -0.2030
  133SAPE  H11R14357   6.696   5.666   9.271 -0.2126 -0.0053 -1.8548
  133SAPE  C21214358   6.851   5.766   9.166  0.1577  0.4844 -0.0180
  133SAPE  H12R14359   6.780   5.775   9.082  0.4486 -2.6923 -0.7235
  133SAPE  C21314360   6.993   5.814   9.145  0.1804  0.1923 -0.6227
  133SAPE  H13R14361   7.047   5.725   9.106 -0.5794  0.2158 -1.7751
  133SAPE  H13S14362   7.044   5.850   9.237 -0.5910 -0.7874  0.2112
  133SAPE  C21414363   7.002   5.919   9.035 -0.2006 -0.6437 -0.4537
  133SAPE  H14R14364   6.972   6.022   9.058  0.2793 -0.3257 -1.2189
  133SAPE  C21514365   7.032   5.897   8.903  0.2200 -0.4523  0.3021
  133SAPE  H15R14366   7.032   5.986   8.839  1.7727 -0.2987  0.4730
  133SAPE  C21614367   7.061   5.770   8.829 -0.8957  0.3441 -0.3650
  133SAPE  H16R14368   7.003   5.686   8.872  0.8668 -1.5283 -1.4552
  133SAPE  H16S14369   7.169   5.742   8.825 -0.7717  0.7245  0.2156
  133SAPE  C21714370   7.044   5.775   8.676 -0.8861 -0.4277 -0.1923
  133SAPE  H17R14371   7.112   5.853   8.636 -2.4418  0.0095 -2.1419
  133SAPE  H17S14372   6.936   5.798   8.664 -0.6683 -0.1104 -1.7711
  133SAPE  C21814373   7.078   5.643   8.603  1.0045  0.3285  0.9171
  133SAPE  H18R14374   7.009   5.568   8.648 -1.2058  0.6564 -1.6594
  133SAPE  H18S14375   7.187   5.624   8.610  0.9717 -0.6931 -0.8360
  133SAPE  C21914376   7.040   5.641   8.452 -0.0396  0.0093 -0.1691
  133SAPE  H19R14377   6.929   5.646   8.446 -0.0774 -1.1527 -0.7986
  133SAPE  H19S14378   7.070   5.543   8.408 -3.8207 -0.6054 -1.7758
  133SAPE  C22014379   7.087   5.763   8.374 -1.0878  0.2584  0.7092
  133SAPE  H20R14380   7.052   5.862   8.412  1.8679  1.1213  1.5461
  133SAPE  H20S14381   7.056   5.757   8.268 -0.5098  0.8283  0.5008
  133SAPE  H20T14382   7.197   5.779   8.381 -0.9504 -0.5466  0.4210
  133SAPE   C3314383   6.270   4.960   9.857  0.0709 -0.0094 -0.0870
  133SAPE   H3X14384   6.210   4.868   9.836 -0.3085 -0.2425  1.8251
  133SAPE   H3Y14385   6.326   4.950   9.952 -0.0641 -2.0691 -0.1765
  133SAPE   C3414386   6.368   4.951   9.739  0.3386  0.2570 -0.7556
  133SAPE   H4X14387   6.420   4.856   9.763 -1.3835 -0.1733  1.7113
  133SAPE   H4Y14388   6.436   5.038   9.742 -1.1179  1.4429 -0.8652
  133SAPE   C3514389   6.301   4.959   9.600  0.6330  0.9541 -0.6899
  133SAPE   H5X14390   6.241   5.052   9.593 -0.6906  0.0868 -1.1666
  133SAPE   H5Y14391   6.239   4.867   9.595  0.5373  0.8458  1.4434
  133SAPE   C3614392   6.407   4.960   9.488  0.2053  0.5465 -0.7312
  133SAPE   H6X14393   6.461   4.865   9.508 -1.6552 -0.4981 -0.3798
  133SAPE   H6Y14394   6.477   5.044   9.503  1.0252 -0.5375  2.0265
  133SAPE   C3714395   6.350   4.958   9.356 -0.6551  0.1099  0.2963
  133SAPE   H7X14396   6.300   5.054   9.331 -1.9163 -0.8596 -1.0983
  133SAPE   H7Y14397   6.267   4.886   9.343 -2.0800  1.6891  0.3200
  133SAPE   C3814398   6.455   4.931   9.243 -0.4999 -0.2752 -0.3137
  133SAPE   H8X14399   6.513   4.840   9.268 -1.3474 -0.7017  0.1500
  133SAPE   H8Y14400   6.526   5.017   9.243 -0.8174  0.1364  3.0231
  133SAPE   C3914401   6.389   4.920   9.101  0.0091  0.0990  0.2721
  133SAPE   H9X14402   6.285   4.880   9.110  0.1992 -0.6881 -0.8660
  133SAPE   H9Y14403   6.456   4.858   9.038  1.2210  1.9683 -0.3687
  133SAPE  C31014404   6.363   5.063   9.041  0.4045  0.2297  0.2366
  133SAPE  H10X14405   6.453   5.120   9.009  0.2759 -1.2685 -3.3233
  133SAPE  H10Y14406   6.316   5.129   9.117  2.2498  0.7314  1.0184
  133SAPE  C31114407   6.271   5.058   8.921 -0.8143  0.3516  0.5089
  133SAPE  H11X14408   6.166   5.057   8.959 -0.8898 -2.2384  0.4005
  133SAPE  H11Y14409   6.284   4.958   8.874 -1.1866  0.4990  0.0820
  133SAPE  C31214410   6.277   5.162   8.805  0.1338 -0.0209  0.7251
  133SAPE  H12X14411   6.226   5.126   8.714 -1.4392 -2.6358  2.5163
  133SAPE  H12Y14412   6.383   5.184   8.781 -0.5696  0.4420 -2.4223
  133SAPE  C31314413   6.222   5.300   8.846 -0.4784  0.0644  0.6053
  133SAPE  H13X14414   6.304   5.347   8.904 -0.8138 -0.5071  1.5552
  133SAPE  H13Y14415   6.137   5.299   8.918  0.4128 -1.9420  1.7113
  133SAPE  C31414416   6.213   5.395   8.727  0.0718  0.4267  0.9433
  133SAPE  H14X14417   6.170   5.351   8.635 -0.6685 -0.5098  1.7161
  133SAPE  H14Y14418   6.320   5.413   8.703 -0.3911  0.6370 -1.1421
  133SAPE  C31514419   6.146   5.530   8.754 -0.1883 -0.3354  0.0965
  133SAPE  H15X14420   6.183   5.610   8.686 -2.8664  3.2443  2.5057
  133SAPE  H15Y14421   6.179   5.564   8.854  3.2552 -2.7313 -0.0281
  133SAPE  C31614422   5.996   5.524   8.747  0.2541 -0.1283 -0.9535
  133SAPE  H16X14423   5.973   5.630   8.771  0.7300  0.8297 -4.3532
  133SAPE  H16Y14424   5.963   5.456   8.830  0.2726  3.1288  1.9466
  133SAPE  C31714425   5.938   5.483   8.615  0.3764 -0.7121  0.1348
  133SAPE  H17X14426   5.968   5.379   8.589 -0.7079 -1.0404  0.1813
  133SAPE  H17Y14427   5.993   5.545   8.541  1.2649  0.0648  1.3975
  133SAPE  C31814428   5.787   5.506   8.600  0.1820  0.1108 -0.0591
  133SAPE  H18X14429   5.726   5.466   8.685 -1.5803  3.3462  0.3758
  133SAPE  H18Y14430   5.739   5.455   8.514  2.7207 -3.1558  0.2654
  133SAPE  H18Z14431   5.766   5.615   8.601 -2.7412 -0.3462 -0.9086
  134SAPE     N14432   2.825   5.205  10.709 -0.0133 -0.4936  0.1890
  134SAPE   HN114433   2.904   5.147  10.673  0.2025  0.1340 -0.3783
  134SAPE   HN214434   2.758   5.133  10.742  0.5067 -0.6699  0.8672
  134SAPE   HN314435   2.787   5.262  10.630  2.9850  3.4114  1.2372
  134SAPE   C1214436   2.878   5.305  10.807 -0.1579  0.1928 -0.1752
  134SAPE  H12A14437   2.942   5.383  10.761 -0.3429  0.9253  0.7650
  134SAPE  H12B14438   2.951   5.253  10.873  1.7403  3.1140  0.1870
  134SAPE   C1114439   2.751   5.368  10.870  0.6686 -0.5755 -0.1926
  134SAPE  H11A14440   2.780   5.452  10.937 -0.2530 -1.4570  1.3839
  134SAPE  H11B14441   2.686   5.308  10.937 -0.4178  2.2079  1.4334
  134SAPE     P14442   2.654   5.560  10.717 -0.2065 -0.2607 -0.1033
  134SAPE   O1314443   2.585   5.645  10.813  0.1476 -0.1875  0.1211
  134SAPE   O1414444   2.787   5.604  10.682 -0.4924 -0.2668  0.2968
  134SAPE   O1214445   2.663   5.413  10.766  0.6700 -0.3050 -0.1767
  134SAPE   O1114446   2.570   5.546  10.584  0.4822  0.5423  0.4857
  134SAPE    C114447   2.500   5.650  10.516  0.2227  0.2112 -0.0177
  134SAPE    HA14448   2.391   5.641  10.501  0.3190 -0.8839 -0.1652
  134SAPE    HB14449   2.521   5.747  10.567  3.0951 -0.5694  0.5026
  134SAPE    C214450   2.551   5.666  10.366 -0.1435  1.1137 -0.7755
  134SAPE    HS14451   2.524   5.767  10.328  1.5484  2.1691  0.6637
  134SAPE   O2114452   2.484   5.563  10.292 -0.1765  0.1235  0.5448
  134SAPE   C2114453   2.371   5.602  10.220 -0.3089 -0.3730 -0.1730
  134SAPE   O2214454   2.316   5.713  10.226  0.4496  0.2435 -0.4529
  134SAPE   C2214455   2.331   5.487  10.129  0.1493  0.2859  0.0020
  134SAPE   H2R14456   2.419   5.420  10.128 -1.8023 -2.4447  0.4262
  134SAPE   H2S14457   2.244   5.441  10.181 -0.1070  1.1117  0.3240
  134SAPE    C314458   2.703   5.657  10.345  0.0693  0.7814 -0.2951
  134SAPE    HX14459   2.736   5.553  10.366 -1.6167  0.1562 -0.5697
  134SAPE    HY14460   2.755   5.723  10.418 -3.9738  2.6176  1.2181
  134SAPE   O3114461   2.732   5.699  10.214 -0.0867 -0.0710  0.3467
  134SAPE   C3114462   2.856   5.680  10.181  0.2988  0.3276 -0.5123
  134SAPE   O3214463   2.940   5.631  10.257  0.4531  0.1764 -0.1849
  134SAPE   C3214464   2.877   5.724  10.046  0.2362  0.2053  0.2784
  134SAPE   H2X14465   2.982   5.755  10.028  0.0610 -0.3064 -1.9119
  134SAPE   H2Y14466   2.816   5.809  10.006 -0.3450 -0.7224 -0.8703
  134SAPE   C2314467   2.286   5.518   9.986  0.5048 -0.0640 -0.4687
  134SAPE   H3R14468   2.224   5.610   9.977  3.6188  2.0255 -2.7584
  134SAPE   H3S14469   2.224   5.429   9.962 -1.6508  0.8997  1.1250
  134SAPE   C2414470   2.406   5.531   9.894  0.5018 -0.4844 -0.4078
  134SAPE   H4R14471   2.471   5.442   9.907  0.3647 -0.3242  1.7024
  134SAPE   H4S14472   2.461   5.622   9.925 -2.2014  0.6304  1.5588
  134SAPE   C2514473   2.352   5.544   9.753  0.7756 -0.5291 -0.1358
  134SAPE   H5R14474   2.315   5.446   9.721 -0.2307 -0.1590 -0.1541
  134SAPE   C2614475   2.353   5.641   9.664  0.0808 -0.4552 -0.3771
  134SAPE   H6R14476   2.315   5.628   9.562 -1.2406  1.1745 -0.1321
  134SAPE   C2714477   2.417   5.779   9.698 -0.1708  0.1423 -0.8308
  134SAPE   H7R14478   2.528   5.779   9.696  0.0110  2.6066  2.3300
  134SAPE   H7S14479   2.390   5.815   9.799  0.2658 -0.7441 -0.3918
  134SAPE   C2814480   2.350   5.884   9.609  0.7193  0.0624 -0.3442
  134SAPE   H8R14481   2.240   5.877   9.614  0.7160 -0.0285 -0.5254
  134SAPE   C2914482   2.404   5.948   9.501 -0.2432  0.0971 -0.3209
  134SAPE   H9R14483   2.334   6.009   9.441 -2.5900 -0.1411  1.9838
  134SAPE  C21014484   2.542   5.937   9.447 -0.0624  0.3719  0.1967
  134SAPE  H10R14485   2.613   5.928   9.532  0.0488  1.6586  0.2615
  134SAPE  H10S14486   2.564   6.033   9.396 -1.7913  0.8271  0.2601
  134SAPE  C21114487   2.562   5.826   9.348  0.0942 -0.0082  0.1019
  134SAPE  H11R14488   2.648   5.768   9.385 -0.3142 -1.8899 -1.7176
  134SAPE  C21214489   2.494   5.788   9.236  0.0796 -0.0645 -0.4430
  134SAPE  H12R14490   2.529   5.694   9.191  2.0234 -0.2868  1.3504
  134SAPE  C21314491   2.373   5.851   9.164  0.7300  0.1483 -0.7175
  134SAPE  H13R14492   2.406   5.937   9.103 -0.4549 -0.2638 -1.9958
  134SAPE  H13S14493   2.314   5.899   9.245  1.7902 -0.3570  0.3994
  134SAPE  C21414494   2.292   5.758   9.070 -0.8080  0.6598 -0.1250
  134SAPE  H14R14495   2.207   5.706   9.115 -0.1290  1.3929  2.1529
  134SAPE  C21514496   2.314   5.731   8.942  0.1149 -0.6101  0.8766
  134SAPE  H15R14497   2.246   5.659   8.894 -0.6597 -0.2113  1.3569
  134SAPE  C21614498   2.432   5.782   8.862 -0.0132  0.2386 -0.2956
  134SAPE  H16R14499   2.510   5.803   8.939  1.3383 -0.8138 -1.3241
  134SAPE  H16S14500   2.411   5.872   8.801 -0.6960 -0.4177 -1.0443
  134SAPE  C21714501   2.501   5.676   8.770  0.3229  0.1383 -0.3294
  134SAPE  H17R14502   2.501   5.586   8.835  0.6132  0.8835  0.7361
  134SAPE  H17S14503   2.603   5.715   8.748 -0.2276  2.3440  0.7084
  134SAPE  C21814504   2.430   5.654   8.638  0.3316  0.6696  0.6056
  134SAPE  H18R14505   2.444   5.749   8.581  0.5184  0.4727  0.3235
  134SAPE  H18S14506   2.322   5.638   8.659  0.0634 -0.2489 -1.2532
  134SAPE  C21914507   2.470   5.528   8.560 -0.1035 -0.9913 -0.0858
  134SAPE  H19R14508   2.406   5.449   8.606 -1.0178  0.5428  1.3849
  134SAPE  H19S14509   2.574   5.495   8.581  0.2041  0.3109  0.5387
  134SAPE  C22014510   2.427   5.529   8.411 -0.2576 -0.0871  0.0465
  134SAPE  H20R14511   2.317   5.527   8.391 -0.0571 -2.9270 -1.1974
  134SAPE  H20S14512   2.475   5.453   8.347  1.2911  1.2809 -0.4849
  134SAPE  H20T14513   2.452   5.629   8.368 -0.6167  0.1493  0.3692
  134SAPE   C3314514   2.846   5.615   9.946 -0.1747  0.0210 -0.4754
  134SAPE   H3X14515   2.747   5.569   9.969 -0.6136  1.7027  1.2665
  134SAPE   H3Y14516   2.923   5.535   9.947  1.7664  1.7963 -1.8975
  134SAPE   C3414517   2.824   5.666   9.802  0.4574 -0.5913 -0.1352
  134SAPE   H4X14518   2.916   5.719   9.769  2.0589 -2.5579  0.8971
  134SAPE   H4Y14519   2.743   5.741   9.800  0.3135 -0.7284  0.3886
  134SAPE   C3514520   2.794   5.550   9.711  0.2908 -0.6057 -0.2890
  134SAPE   H5X14521   2.703   5.498   9.749  0.8577 -2.3251 -1.1625
  134SAPE   H5Y14522   2.878   5.478   9.706  1.8371  1.1941 -2.2358
  134SAPE   C3614523   2.759   5.588   9.570 -0.3957  0.0864  0.2522
  134SAPE   H6X14524   2.836   5.656   9.528  1.0353 -2.2527 -1.1531
  134SAPE   H6Y14525   2.658   5.627   9.546 -2.4725 -4.0864  1.2673
  134SAPE   C3714526   2.770   5.461   9.473 -0.1440  0.2212 -0.2971
  134SAPE   H7X14527   2.691   5.387   9.500 -0.7204  1.4566  1.5592
  134SAPE   H7Y14528   2.861   5.404   9.499  0.1421  0.8478  0.0882
  134SAPE   C3814529   2.760   5.482   9.322  0.5065 -0.0763 -0.0865
  134SAPE   H8X14530   2.675   5.544   9.286  0.1799 -1.6980 -2.3460
  134SAPE   H8Y14531   2.737   5.385   9.271 -2.1797  0.4213  0.0082
  134SAPE   C3914532   2.890   5.554   9.260  0.9065  0.0744 -0.2953
  134SAPE   H9X14533   2.979   5.492   9.284 -0.1945 -2.4173 -2.2077
  134SAPE   H9Y14534   2.913   5.653   9.306  0.0716 -0.0956  0.5278
  134SAPE  C31014535   2.872   5.587   9.120  0.2768  0.4934  0.4814
  134SAPE  H10X14536   2.782   5.651   9.112  0.7239  1.0519 -0.1622
  134SAPE  H10Y14537   2.838   5.502   9.058 -1.5773  2.0748 -0.7829
  134SAPE  C31114538   2.988   5.658   9.055 -0.7431  0.0434 -0.7888
  134SAPE  H11X14539   3.071   5.585   9.061  1.6946  2.7538  3.0946
  134SAPE  H11Y14540   3.011   5.746   9.120 -1.2406 -0.7428  0.4846
  134SAPE  C31214541   2.968   5.723   8.913  0.0733  0.6102  0.7363
  134SAPE  H12X14542   2.895   5.805   8.928 -0.5596  0.1662  0.1354
  134SAPE  H12Y14543   2.923   5.636   8.859 -0.0513  1.0011  0.1989
  134SAPE  C31314544   3.104   5.766   8.856  0.8185 -0.4015 -0.9125
  134SAPE  H13X14545   3.152   5.839   8.925  0.1814 -0.9799  0.1750
  134SAPE  H13Y14546   3.079   5.807   8.756 -0.6205 -3.4463 -1.9371
  134SAPE  C31414547   3.211   5.660   8.831  0.6239  0.5192  0.6207
  134SAPE  H14X14548   3.166   5.578   8.772  2.7819  0.3132 -0.8856
  134SAPE  H14Y14549   3.250   5.626   8.929 -0.2346 -0.8407  0.5187
  134SAPE  C31514550   3.322   5.705   8.734 -0.5295  0.4243  0.5259
  134SAPE  H15X14551   3.376   5.785   8.788 -0.1723 -0.5648  1.6876
  134SAPE  H15Y14552   3.291   5.746   8.636 -1.1437 -2.2425 -0.4747
  134SAPE  C31614553   3.427   5.592   8.701 -0.4910 -0.0037  0.3049
  134SAPE  H16X14554   3.444   5.533   8.793  2.1676 -0.4632 -0.4007
  134SAPE  H16Y14555   3.526   5.626   8.665  0.2368 -1.5836  0.7447
  134SAPE  C31714556   3.382   5.505   8.586 -0.5546  0.1255 -0.6894
  134SAPE  H17X14557   3.364   5.575   8.502 -2.0793 -1.1785 -1.5037
  134SAPE  H17Y14558   3.283   5.459   8.608 -0.6823  1.3191  1.4295
  134SAPE  C31814559   3.486   5.404   8.544 -0.3768 -0.5336  0.0603
  134SAPE  H18X14560   3.560   5.396   8.627  0.8179 -0.6786 -0.9943
  134SAPE  H18Y14561   3.535   5.428   8.447 -0.5222 -0.0448  0.1054
  134SAPE  H18Z14562   3.453   5.300   8.528 -1.5531 -0.1815  0.1394
  135SAPE     N14563   1.615   6.083  10.388  0.0305  0.3191  0.1626
  135SAPE   HN114564   1.652   6.051  10.480  0.3052 -0.9184 -0.3656
  135SAPE   HN214565   1.672   6.150  10.333  1.3027 -0.2323  0.7748
  135SAPE   HN314566   1.519   6.122  10.395 -0.4530 -0.7168 -0.4794
  135SAPE   C1214567   1.585   5.966  10.307  0.2381 -0.0483 -0.1822
  135SAPE  H12A14568   1.675   5.901  10.313 -0.7034 -1.3129  1.1888
  135SAPE  H12B14569   1.582   6.002  10.202  3.3197  1.1978  0.0548
  135SAPE   C1114570   1.462   5.885  10.347 -0.1098 -0.2529  0.7868
  135SAPE  H11A14571   1.437   5.830  10.254  0.2573 -0.9497  1.0926
  135SAPE  H11B14572   1.378   5.953  10.372  1.3422  2.1166 -0.4397
  135SAPE     P14573   1.556   5.660  10.436  0.1032 -0.1337 -0.1829
  135SAPE   O1314574   1.703   5.674  10.414  0.1434 -0.4869 -0.0798
  135SAPE   O1414575   1.505   5.572  10.542  0.0786 -0.2475 -0.0256
  135SAPE   O1214576   1.485   5.802  10.454 -0.0493  0.7610 -0.7484
  135SAPE   O1114577   1.497   5.602  10.299  0.2509 -0.2929 -0.4687
  135SAPE    C114578   1.568   5.526  10.202 -0.2657 -0.4720 -0.6247
  135SAPE    HA14579   1.645   5.474  10.262 -0.5226  0.8716  0.9498
  135SAPE    HB14580   1.503   5.451  10.151 -0.9023 -0.6479  0.4204
  135SAPE    C214581   1.635   5.619  10.096 -0.1405 -0.6341  0.3715
  135SAPE    HS14582   1.704   5.687  10.150  1.9710 -1.4661 -1.1070
  135SAPE   O2114583   1.528   5.689  10.029  0.0973 -0.3853 -0.0900
  135SAPE   C2114584   1.566   5.811   9.978 -0.1097 -0.0141 -0.5904
  135SAPE   O2214585   1.675   5.864   9.999 -0.0515 -0.3816 -0.1687
  135SAPE   C2214586   1.463   5.872   9.885  0.8414  0.1903  0.1888
  135SAPE   H2R14587   1.445   5.802   9.801 -0.1764  0.5351  0.1116
  135SAPE   H2S14588   1.368   5.878   9.941 -0.0633 -3.7703 -0.6068
  135SAPE    C314589   1.730   5.548   9.989 -0.8903  0.5895 -0.6662
  135SAPE    HX14590   1.783   5.483  10.062 -0.5383  0.7658 -0.7623
  135SAPE    HY14591   1.793   5.625   9.939 -0.5568  0.1220 -0.9692
  135SAPE   O3114592   1.664   5.453   9.904 -0.1314  0.3143  0.3914
  135SAPE   C3114593   1.612   5.510   9.794 -0.9791 -0.0996  0.1729
  135SAPE   O3214594   1.620   5.628   9.765  0.4322  0.1541 -0.3074
  135SAPE   C3214595   1.538   5.403   9.715 -0.1463 -0.0918  0.5514
  135SAPE   H2X14596   1.447   5.380   9.774 -1.1641 -0.0874 -0.9748
  135SAPE   H2Y14597   1.616   5.324   9.715  2.0101  1.8729  1.9934
  135SAPE   C2314598   1.512   6.001   9.823 -0.0508 -0.0123 -0.1027
  135SAPE   H3R14599   1.620   5.986   9.800 -0.1240 -1.8406  0.5836
  135SAPE   H3S14600   1.507   6.086   9.895  0.9162  0.7181 -0.8668
  135SAPE   C2414601   1.414   6.042   9.709 -0.2099  0.0610 -0.0053
  135SAPE   H4R14602   1.305   6.042   9.731 -0.4392 -0.9318 -1.0299
  135SAPE   H4S14603   1.426   5.962   9.633  1.4701  0.6369 -0.3820
  135SAPE   C2514604   1.454   6.179   9.661 -0.7720  0.6893 -0.3439
  135SAPE   H5R14605   1.520   6.232   9.730  1.6298 -1.7948 -0.5654
  135SAPE   C2614606   1.431   6.242   9.545  0.2487  0.5152  0.3283
  135SAPE   H6R14607   1.445   6.351   9.542  0.1982  0.5446  1.0289
  135SAPE   C2714608   1.345   6.181   9.428  0.5182  0.5254 -0.9370
  135SAPE   H7R14609   1.263   6.251   9.401  1.4015  1.9190 -0.0942
  135SAPE   H7S14610   1.292   6.092   9.468 -0.3216  0.2669 -2.5362
  135SAPE   C2814611   1.423   6.132   9.317  0.2802  0.1359 -0.4512
  135SAPE   H8R14612   1.527   6.113   9.344 -0.3755 -1.0574  1.4075
  135SAPE   C2914613   1.378   6.118   9.192  0.2606 -0.2478 -0.4035
  135SAPE   H9R14614   1.449   6.083   9.115  1.7535 -2.0075  1.6487
  135SAPE  C21014615   1.243   6.160   9.151 -0.8906  0.9487 -1.1248
  135SAPE  H10R14616   1.236   6.266   9.186  1.2811  0.3663  1.3731
  135SAPE  H10S14617   1.173   6.094   9.207 -0.9020  1.6721 -0.2642
  135SAPE  C21114618   1.235   6.118   9.000 -0.3906  0.1179  0.9528
  135SAPE  H11R14619   1.194   6.019   8.973  2.0387 -0.6933 -0.0428
  135SAPE  C21214620   1.275   6.202   8.902 -0.3924  0.1615  0.3006
  135SAPE  H12R14621   1.279   6.164   8.799 -2.0969 -1.1869  0.6832
  135SAPE  C21314622   1.326   6.350   8.923  0.4939 -0.0500  0.2053
  135SAPE  H13R14623   1.388   6.382   8.836 -0.7247  0.8469 -0.3663
  135SAPE  H13S14624   1.393   6.351   9.012  1.8736  3.2306 -0.7272
  135SAPE  C21414625   1.218   6.455   8.957 -0.2226  0.0366  0.1737
  135SAPE  H14R14626   1.193   6.454   9.065 -1.2371  0.1460 -0.0441
  135SAPE  C21514627   1.146   6.542   8.881  0.5009 -0.4628 -0.1293
  135SAPE  H15R14628   1.081   6.612   8.935  0.4920 -0.2699 -0.3871
  135SAPE  C21614629   1.144   6.566   8.732 -0.2832 -0.4977 -0.5483
  135SAPE  H16R14630   1.156   6.676   8.729  1.9197 -0.6672  0.5055
  135SAPE  H16S14631   1.041   6.530   8.707 -0.7995 -0.5388  1.4932
  135SAPE  C21714632   1.244   6.498   8.644 -0.4301  0.0805  0.2873
  135SAPE  H17R14633   1.242   6.387   8.649  2.3419 -0.0467 -0.0791
  135SAPE  H17S14634   1.347   6.525   8.673 -0.4159 -1.1553  1.4736
  135SAPE  C21814635   1.235   6.537   8.496  0.8675 -0.1932 -0.4788
  135SAPE  H18R14636   1.254   6.646   8.485  1.3384 -0.2671 -0.4493
  135SAPE  H18S14637   1.131   6.518   8.463  0.7702 -0.3456 -0.0870
  135SAPE  C21914638   1.329   6.456   8.402 -0.7123  0.3148 -0.4206
  135SAPE  H19R14639   1.429   6.463   8.451 -0.6769  0.3200 -0.4943
  135SAPE  H19S14640   1.335   6.504   8.302 -0.7517 -0.2598 -0.7043
  135SAPE  C22014641   1.292   6.311   8.374 -0.5365  0.2220  0.2923
  135SAPE  H20R14642   1.198   6.306   8.316 -0.9102 -1.8291  0.9898
  135SAPE  H20S14643   1.266   6.258   8.468 -1.0504 -0.3387 -0.1571
  135SAPE  H20T14644   1.366   6.250   8.318  0.3554  2.4927 -1.1719
  135SAPE   C3314645   1.518   5.444   9.574 -0.2134  0.1116 -0.0352
  135SAPE   H3X14646   1.618   5.459   9.529 -0.4503 -0.9601 -0.9853
  135SAPE   H3Y14647   1.462   5.540   9.578  0.5553  0.6953 -1.9172
  135SAPE   C3414648   1.441   5.344   9.492 -0.7115  0.4262  0.2006
  135SAPE   H4X14649   1.336   5.332   9.524 -0.6039 -0.0614  0.3868
  135SAPE   H4Y14650   1.487   5.243   9.493 -1.8455 -0.1010  0.4053
  135SAPE   C3514651   1.444   5.367   9.348  0.3173 -0.4047  0.3107
  135SAPE   H5X14652   1.545   5.387   9.307  0.8113  0.8241  1.9880
  135SAPE   H5Y14653   1.388   5.461   9.329  0.7610  0.4610  2.8750
  135SAPE   C3614654   1.388   5.253   9.265 -0.2322  1.0586  0.8756
  135SAPE   H6X14655   1.294   5.208   9.306  1.5777 -0.8510  3.2130
  135SAPE   H6Y14656   1.459   5.168   9.263  1.0133  2.0831  0.0334
  135SAPE   C3714657   1.367   5.283   9.117  0.0820 -0.3105  0.5892
  135SAPE   H7X14658   1.439   5.360   9.081 -0.2790  0.3364  1.2054
  135SAPE   H7Y14659   1.274   5.343   9.106  2.2946  3.1845 -1.0017
  135SAPE   C3814660   1.355   5.154   9.032 -0.1649  0.2826 -0.1103
  135SAPE   H8X14661   1.257   5.106   9.050  0.2922 -0.6389 -0.0455
  135SAPE   H8Y14662   1.426   5.072   9.059  1.0287  0.9334 -1.1565
  135SAPE   C3914663   1.363   5.173   8.880 -0.7937 -0.8478  0.0067
  135SAPE   H9X14664   1.265   5.211   8.843 -0.5717 -1.3962 -1.1923
  135SAPE   H9Y14665   1.371   5.074   8.832  0.9589 -0.6428 -0.1698
  135SAPE  C31014666   1.490   5.251   8.838  0.1346  0.0857  0.9759
  135SAPE  H10X14667   1.578   5.217   8.896  0.8062  1.8375  1.0618
  135SAPE  H10Y14668   1.477   5.358   8.869  0.9206  0.6267 -0.4997
  135SAPE  C31114669   1.515   5.257   8.690  0.0378 -0.3090  1.3672
  135SAPE  H11X14670   1.589   5.337   8.667  1.3590 -1.9630 -0.3744
  135SAPE  H11Y14671   1.426   5.293   8.635  1.6870  0.1294 -1.1550
  135SAPE  C31214672   1.544   5.124   8.623 -0.3959 -0.6096 -1.5537
  135SAPE  H12X14673   1.461   5.052   8.640 -1.0951  0.4687 -0.1805
  135SAPE  H12Y14674   1.639   5.082   8.663 -0.6988  0.4374  0.4072
  135SAPE  C31314675   1.548   5.128   8.474 -0.3453 -0.3764  0.1843
  135SAPE  H13X14676   1.619   5.212   8.459 -0.2605 -0.6920 -1.2963
  135SAPE  H13Y14677   1.449   5.163   8.437  2.1364  2.9235 -4.3665
  135SAPE  C31414678   1.597   5.000   8.410 -0.2247 -0.5412 -0.1463
  135SAPE  H14X14679   1.540   4.909   8.437 -1.4942  0.1565 -0.3938
  135SAPE  H14Y14680   1.702   4.990   8.444 -0.3483  0.1344  0.4499
  135SAPE  C31514681   1.593   5.003   8.260  0.2213 -0.7109  0.1071
  135SAPE  H15X14682   1.637   5.101   8.233  1.5834 -1.2238  0.3514
  135SAPE  H15Y14683   1.488   4.994   8.226  1.0792  0.4038 -3.2068
  135SAPE  C31614684   1.691   4.899   8.207  0.1162 -0.2877  0.1864
  135SAPE  H16X14685   1.794   4.937   8.227  0.4088 -0.6210 -0.6431
  135SAPE  H16Y14686   1.681   4.917   8.098 -3.0283  1.2134  0.6177
  135SAPE  C31714687   1.656   4.754   8.235 -0.0737  0.0510  1.0240
  135SAPE  H17X14688   1.672   4.727   8.342 -2.3727 -2.5797  0.8106
  135SAPE  H17Y14689   1.728   4.686   8.184 -2.6342 -0.8972 -1.5736
  135SAPE  C31814690   1.516   4.707   8.196  0.2838  0.1435 -0.0081
  135SAPE  H18X14691   1.437   4.757   8.255 -0.8529 -2.2396  0.6080
  135SAPE  H18Y14692   1.513   4.596   8.210  2.9846 -0.4648 -3.0627
  135SAPE  H18Z14693   1.488   4.732   8.092  1.5313  1.9576  0.0558
  136SAPE     N14694   5.130   5.360  10.672 -0.1825  0.4658  0.3447
  136SAPE   HN114695   5.162   5.312  10.759 -2.7370 -1.2288  0.4593
  136SAPE   HN214696   5.139   5.296  10.591 -0.6604 -2.3247  2.3127
  136SAPE   HN314697   5.189   5.444  10.655  1.0684 -0.5674 -0.6367
  136SAPE   C1214698   4.985   5.378  10.696  0.4140  0.0180 -0.3250
  136SAPE  H12A14699   4.935   5.446  10.624 -1.0875  0.7417  1.3231
  136SAPE  H12B14700   4.963   5.425  10.794 -1.7322 -2.8172  0.6693
  136SAPE   C1114701   4.924   5.238  10.714  0.1722 -0.0760  1.0989
  136SAPE  H11A14702   4.923   5.187  10.615 -0.6937  0.0546  1.0335
  136SAPE  H11B14703   4.818   5.248  10.745 -0.3712  2.6602 -1.1443
  136SAPE     P14704   5.024   5.009  10.779 -0.2201 -0.1146  0.1081
  136SAPE   O1314705   5.128   4.992  10.676 -0.1299 -0.0647 -0.1820
  136SAPE   O1414706   5.050   4.938  10.906  0.2996  0.2179 -0.4569
  136SAPE   O1214707   4.996   5.161  10.810  0.1010 -0.3043 -0.4944
  136SAPE   O1114708   4.885   4.956  10.718 -0.5897  0.2770 -0.4403
  136SAPE    C114709   4.869   4.816  10.679 -0.1066  0.5259  0.5657
  136SAPE    HA14710   4.932   4.753  10.746 -1.3872 -0.7496  0.6164
  136SAPE    HB14711   4.761   4.794  10.691  0.2741 -1.5954  0.5684
  136SAPE    C214712   4.907   4.786  10.531  0.6415  0.2513  0.2626
  136SAPE    HS14713   5.015   4.806  10.515  0.3652  0.2196 -1.9113
  136SAPE   O2114714   4.818   4.867  10.452 -0.8785  0.5028 -0.3751
  136SAPE   C2114715   4.860   4.974  10.399  0.4283  0.5957 -0.2177
  136SAPE   O2214716   4.963   5.029  10.413  0.5563  0.7771  0.0036
  136SAPE   C2214717   4.752   5.027  10.306 -0.7685 -0.3544 -0.2965
  136SAPE   H2R14718   4.650   4.987  10.326 -1.0990  1.1813  1.3544
  136SAPE   H2S14719   4.740   5.136  10.320  1.1414 -0.1328 -0.0709
  136SAPE    C314720   4.879   4.637  10.501  0.8865 -0.1377 -0.4091
  136SAPE    HX14721   4.773   4.612  10.525  1.0518 -0.9514 -0.4980
  136SAPE    HY14722   4.942   4.580  10.573 -0.5633  1.0910  1.9564
  136SAPE   O3114723   4.912   4.605  10.364  0.2600 -0.3728 -0.0592
  136SAPE   C3114724   4.838   4.502  10.315 -0.4235  0.1680  0.3971
  136SAPE   O3214725   4.770   4.428  10.383 -1.4716 -0.7324 -0.3867
  136SAPE   C3214726   4.866   4.481  10.166  0.3196  0.2857 -0.4717
  136SAPE   H2X14727   4.968   4.519  10.146  1.0835  0.5952  3.2987
  136SAPE   H2Y14728   4.786   4.537  10.112  0.5869  0.8464 -0.2948
  136SAPE   C2314729   4.776   5.022  10.164  0.2137 -0.4372 -0.0045
  136SAPE   H3R14730   4.862   5.087  10.138 -1.0567  0.4521 -2.2860
  136SAPE   H3S14731   4.700   5.071  10.100 -0.8146  1.7581  2.6948
  136SAPE   C2414732   4.793   4.882  10.105  0.8226 -0.7044 -0.4204
  136SAPE   H4R14733   4.880   4.827  10.147  2.7092  0.0857 -2.9684
  136SAPE   H4S14734   4.831   4.880  10.000  0.5532 -0.0179 -0.5351
  136SAPE   C2514735   4.665   4.784  10.108  0.5326 -0.8384 -0.2326
  136SAPE   H5R14736   4.616   4.773  10.206  3.3854  3.2113  1.9317
  136SAPE   C2614737   4.598   4.748   9.993 -0.1941  0.0363  0.4896
  136SAPE   H6R14738   4.510   4.682   9.998 -0.7297  0.7854  1.3384
  136SAPE   C2714739   4.632   4.782   9.848  0.7247  0.5550  0.2628
  136SAPE   H7R14740   4.685   4.689   9.818 -1.5626 -1.2405  1.4213
  136SAPE   H7S14741   4.704   4.866   9.852  2.3386 -0.8278  1.4918
  136SAPE   C2814742   4.507   4.805   9.763  0.4545  0.0582 -0.3669
  136SAPE   H8R14743   4.410   4.793   9.814 -0.8045 -3.8605 -3.1053
  136SAPE   C2914744   4.500   4.838   9.634  0.2388 -0.2130 -0.6724
  136SAPE   H9R14745   4.404   4.867   9.589  1.4146  3.2168 -1.3010
  136SAPE  C21014746   4.617   4.863   9.532  0.8786 -0.0090 -0.1697
  136SAPE  H10R14747   4.607   4.783   9.456  2.2769 -0.3887  0.0203
  136SAPE  H10S14748   4.714   4.857   9.584  1.0412  1.1926 -0.2881
  136SAPE  C21114749   4.609   5.006   9.481 -0.7025 -0.3202 -0.2923
  136SAPE  H11R14750   4.602   5.081   9.560 -0.5904  0.0173 -0.5982
  136SAPE  C21214751   4.603   5.037   9.348 -0.2553 -0.0594 -0.2416
  136SAPE  H12R14752   4.616   5.145   9.329  0.0358  0.0280  0.4239
  136SAPE  C21314753   4.609   4.952   9.221 -0.1543 -0.6330  0.3611
  136SAPE  H13R14754   4.687   4.876   9.239  0.6725  0.5420  1.9461
  136SAPE  H13S14755   4.647   5.023   9.144 -2.4050  1.3528  0.9438
  136SAPE  C21414756   4.480   4.885   9.179  0.6359  0.3192 -0.2156
  136SAPE  H14R14757   4.462   4.797   9.242 -1.5818  0.4715 -0.5798
  136SAPE  C21514758   4.412   4.891   9.069 -0.5620 -0.2005  0.8070
  136SAPE  H15R14759   4.318   4.834   9.071 -1.6203  1.2710 -2.1811
  136SAPE  C21614760   4.430   4.984   8.950  0.6830 -0.2422  0.1005
  136SAPE  H16R14761   4.501   5.065   8.978 -1.1794  1.3896  0.4291
  136SAPE  H16S14762   4.337   5.039   8.922 -0.1251 -2.1369 -1.1312
  136SAPE  C21714763   4.486   4.914   8.826 -0.2847 -0.3661  0.6216
  136SAPE  H17R14764   4.428   4.819   8.821  0.1105 -0.8256  3.3457
  136SAPE  H17S14765   4.595   4.895   8.823 -0.0897 -0.2877  3.6876
  136SAPE  C21814766   4.474   4.996   8.696  0.0840 -0.1863 -0.4990
  136SAPE  H18R14767   4.510   5.101   8.699  0.4537 -0.2988 -0.8616
  136SAPE  H18S14768   4.367   5.006   8.668  0.3499  1.6877 -0.9797
  136SAPE  C21914769   4.542   4.932   8.573 -0.0799  0.6683 -0.0086
  136SAPE  H19R14770   4.651   4.917   8.588 -0.5370 -1.1481  2.0632
  136SAPE  H19S14771   4.529   4.998   8.484 -0.8027  0.5868  0.0339
  136SAPE  C22014772   4.482   4.791   8.537 -0.3914  0.0365 -0.6629
  136SAPE  H20R14773   4.373   4.780   8.557  0.2564 -0.7300  3.4045
  136SAPE  H20S14774   4.510   4.716   8.614  1.6423  0.5254 -0.8540
  136SAPE  H20T14775   4.526   4.748   8.445  0.8208 -1.4472  0.5629
  136SAPE   C3314776   4.872   4.335  10.105 -0.1061 -0.7607 -0.7911
  136SAPE   H3X14777   4.778   4.278  10.122 -0.3165 -0.3038 -0.4133
  136SAPE   H3Y14778   4.952   4.287  10.166 -1.1376 -3.7700 -1.5960
  136SAPE   C3414779   4.911   4.339   9.961 -0.4739  0.0780  0.0131
  136SAPE   H4X14780   4.901   4.436   9.906 -3.5863  0.0883  0.4231
  136SAPE   H4Y14781   4.830   4.276   9.918 -1.6894  1.3922  0.3113
  136SAPE   C3514782   5.049   4.281   9.920 -0.2613 -0.5849  0.5322
  136SAPE   H5X14783   5.057   4.184   9.973 -1.9036 -2.4076 -2.2733
  136SAPE   H5Y14784   5.130   4.352   9.947  0.0334 -0.0454 -1.5551
  136SAPE   C3614785   5.063   4.258   9.766  0.7698 -0.5879 -0.8695
  136SAPE   H6X14786   5.062   4.350   9.703  0.6323 -0.6787 -1.0017
  136SAPE   H6Y14787   4.975   4.195   9.739 -1.1969  0.3155  2.7736
  136SAPE   C3714788   5.198   4.188   9.725  0.2311  0.0527 -0.8818
  136SAPE   H7X14789   5.215   4.099   9.789  1.2822  0.4646 -0.5655
  136SAPE   H7Y14790   5.281   4.262   9.733  0.4511 -0.1675 -1.0914
  136SAPE   C3814791   5.186   4.147   9.575  0.6236  0.3964  0.0926
  136SAPE   H8X14792   5.097   4.080   9.571 -1.0117  2.5045 -0.9764
  136SAPE   H8Y14793   5.279   4.092   9.548 -0.2260 -2.1691  1.9420
  136SAPE   C3914794   5.167   4.265   9.482  0.0962  0.3849  0.0461
  136SAPE   H9X14795   5.266   4.312   9.501 -0.3073  0.6167  1.7470
  136SAPE   H9Y14796   5.082   4.331   9.506 -0.2507 -0.7830  2.3854
  136SAPE  C31014797   5.159   4.235   9.328 -0.1646 -0.8012 -0.6071
  136SAPE  H10X14798   5.085   4.153   9.315 -0.0282 -0.7713 -1.6574
  136SAPE  H10Y14799   5.251   4.204   9.275  0.0386 -0.3738 -0.5140
  136SAPE  C31114800   5.097   4.358   9.257  0.0042 -0.2484 -0.2831
  136SAPE  H11X14801   5.140   4.451   9.299  1.9449 -1.3675  0.3413
  136SAPE  H11Y14802   4.986   4.358   9.268 -0.0918  0.0102 -1.1934
  136SAPE  C31214803   5.117   4.350   9.109  0.2365 -0.6164 -0.0579
  136SAPE  H12X14804   5.045   4.272   9.074  0.5315 -1.0437  0.2860
  136SAPE  H12Y14805   5.219   4.312   9.086  0.6921 -1.1005  2.5037
  136SAPE  C31314806   5.086   4.472   9.025 -0.4042 -0.4578 -0.4467
  136SAPE  H13X14807   5.173   4.541   9.018 -1.2752  0.5960 -1.5102
  136SAPE  H13Y14808   5.009   4.532   9.077  1.9447  2.8605 -0.4505
  136SAPE  C31414809   5.032   4.433   8.888  0.0677 -0.5029 -0.2117
  136SAPE  H14X14810   4.954   4.354   8.894 -0.8615  0.4877  1.6622
  136SAPE  H14Y14811   5.116   4.395   8.825  0.8970 -1.3675  1.3653
  136SAPE  C31514812   4.971   4.551   8.827 -0.3174 -0.2333  0.7822
  136SAPE  H15X14813   5.052   4.626   8.810  0.8073 -1.2748  1.3959
  136SAPE  H15Y14814   4.901   4.595   8.901 -0.5686 -0.3521  0.6188
  136SAPE  C31614815   4.894   4.518   8.692  0.2312  0.3243 -0.6733
  136SAPE  H16X14816   4.800   4.465   8.719  0.1285  0.7168 -0.2451
  136SAPE  H16Y14817   4.959   4.451   8.631 -0.1789  0.5847 -1.3956
  136SAPE  C31714818   4.856   4.640   8.621  0.5020  0.2281 -0.6694
  136SAPE  H17X14819   4.946   4.702   8.601 -0.3636  1.5541 -0.6197
  136SAPE  H17Y14820   4.787   4.710   8.673  1.0183 -0.1145  0.5234
  136SAPE  C31814821   4.776   4.615   8.488  0.3181 -0.6378  0.3217
  136SAPE  H18X14822   4.836   4.542   8.429  0.2603 -0.5671  0.1757
  136SAPE  H18Y14823   4.757   4.710   8.434 -2.3655 -0.9045  0.6699
  136SAPE  H18Z14824   4.679   4.565   8.506 -0.3546  0.9373  1.2615
  137SAPE     N14825   6.523   0.556  10.695  0.0120  0.0985  0.1763
  137SAPE   HN114826   6.470   0.592  10.613  2.7085  1.7623 -0.9609
  137SAPE   HN214827   6.539   0.453  10.686  2.5613  0.4375  0.1197
  137SAPE   HN314828   6.478   0.578  10.787  2.2330  2.5492  0.7940
  137SAPE   C1214829   6.653   0.623  10.702 -0.2635  0.7153  0.1010
  137SAPE  H12A14830   6.719   0.606  10.614  1.9088 -1.9552  2.0541
  137SAPE  H12B14831   6.707   0.587  10.792  2.1006 -1.4621 -1.9862
  137SAPE   C1114832   6.639   0.775  10.703 -0.3473  0.4135  0.2884
  137SAPE  H11A14833   6.589   0.813  10.611 -2.2576  0.7288  1.3999
  137SAPE  H11B14834   6.744   0.812  10.696 -0.2942  0.3569  0.7642
  137SAPE     P14835   6.624   0.940  10.905  0.2010 -0.0692  0.0435
  137SAPE   O1314836   6.515   0.992  10.996 -0.6117  0.4730  0.2619
  137SAPE   O1414837   6.752   0.906  10.965 -0.2686  0.5334 -0.1964
  137SAPE   O1214838   6.564   0.820  10.819 -0.7569  0.6956  0.4776
  137SAPE   O1114839   6.663   1.047  10.799  0.1291 -0.5200  0.3147
  137SAPE    C114840   6.558   1.072  10.698 -0.3878 -0.2362  0.4689
  137SAPE    HA14841   6.477   0.996  10.697 -1.4608  0.8581 -1.3600
  137SAPE    HB14842   6.506   1.166  10.723 -1.6635 -0.9687  0.6557
  137SAPE    C214843   6.609   1.088  10.545  0.4369  0.1278 -0.2893
  137SAPE    HS14844   6.643   0.992  10.500 -0.2099  0.0658 -0.6543
  137SAPE   O2114845   6.721   1.174  10.538  0.8492  0.1634 -0.0034
  137SAPE   C2114846   6.839   1.126  10.550 -0.6045  0.6822  0.0805
  137SAPE   O2214847   6.864   1.006  10.552  0.3340 -0.0974 -0.0723
  137SAPE   C2214848   6.944   1.233  10.568  0.1061  0.1043  0.0692
  137SAPE   H2R14849   6.890   1.325  10.602  2.7069  1.6672  0.2498
  137SAPE   H2S14850   7.004   1.195  10.653 -1.4656 -1.8624  0.3799
  137SAPE    C314851   6.495   1.144  10.454 -0.4055  0.1494  0.5933
  137SAPE    HX14852   6.464   1.246  10.485  0.6959  1.1640 -1.4412
  137SAPE    HY14853   6.405   1.080  10.454  1.4203 -2.6175  1.2359
  137SAPE   O3114854   6.545   1.167  10.320 -0.1857 -0.4369 -0.1216
  137SAPE   C3114855   6.573   1.067  10.230 -0.7525  0.0680  0.1147
  137SAPE   O3214856   6.560   0.948  10.253  0.7554  0.6709 -0.5963
  137SAPE   C3214857   6.624   1.122  10.091 -0.2183  0.3499 -0.1461
  137SAPE   H2X14858   6.732   1.142  10.108 -0.2063 -0.7763  1.3047
  137SAPE   H2Y14859   6.557   1.209  10.074  0.7114  1.1201  0.0452
  137SAPE   C2314860   7.044   1.253  10.448  0.4602 -0.0018 -0.0784
  137SAPE   H3R14861   7.106   1.340  10.479  3.1319 -1.7633 -0.1324
  137SAPE   H3S14862   7.002   1.281  10.349 -1.1259 -0.7792  0.3321
  137SAPE   C2414863   7.141   1.137  10.438  0.3384 -0.0370  0.1936
  137SAPE   H4R14864   7.080   1.044  10.431 -0.3014  0.3652  0.3205
  137SAPE   H4S14865   7.214   1.134  10.522  1.0931  2.5793 -0.2818
  137SAPE   C2514866   7.225   1.156  10.314  1.1242  0.1182  0.0848
  137SAPE   H5R14867   7.325   1.196  10.337  1.0176 -0.0660  0.9161
  137SAPE   C2614868   7.198   1.113  10.190 -0.3773 -0.0639 -0.6121
  137SAPE   H6R14869   7.263   1.148  10.108  0.4413 -1.2275 -0.4803
  137SAPE   C2714870   7.072   1.037  10.148  0.2025  0.7678 -0.7179
  137SAPE   H7R14871   7.008   1.105  10.088 -1.0611  0.2415  0.0026
  137SAPE   H7S14872   7.012   1.017  10.239  2.2566  1.2803  0.7991
  137SAPE   C2814873   7.090   0.908  10.072  0.8817  0.2083  1.0111
  137SAPE   H8R14874   7.116   0.816  10.127  2.8333  0.7176  1.0056
  137SAPE   C2914875   7.078   0.898   9.931  0.6560 -0.0206 -0.0541
  137SAPE   H9R14876   7.093   0.799   9.887 -1.0574 -1.0247  1.4780
  137SAPE  C21014877   7.048   1.012   9.829  0.1462 -0.0139 -0.6591
  137SAPE  H10R14878   6.993   1.097   9.875 -1.5272 -1.0752 -0.6054
  137SAPE  H10S14879   6.966   0.980   9.762 -1.4906  0.2104  1.1573
  137SAPE  C21114880   7.183   1.059   9.763  1.0317 -0.1376 -0.0246
  137SAPE  H11R14881   7.259   1.077   9.841  1.3912  0.6564 -0.5441
  137SAPE  C21214882   7.202   1.072   9.631  0.4690  0.3919  0.2832
  137SAPE  H12R14883   7.293   1.117   9.589 -0.0221  0.8841 -0.2664
  137SAPE  C21314884   7.103   1.033   9.528  0.1208 -0.1223 -0.2843
  137SAPE  H13R14885   7.149   1.058   9.429 -0.1305 -3.4061 -1.3458
  137SAPE  H13S14886   7.006   1.087   9.534 -0.0093  0.0635 -2.8733
  137SAPE  C21414887   7.064   0.887   9.524 -0.0668  0.6141 -0.2793
  137SAPE  H14R14888   6.978   0.859   9.587 -0.1443 -1.2399 -1.1128
  137SAPE  C21514889   7.124   0.788   9.455 -0.4177 -0.1876 -0.1572
  137SAPE  H15R14890   7.070   0.693   9.442 -1.9116  0.6950 -0.8049
  137SAPE  C21614891   7.233   0.816   9.352 -0.4353 -0.3703  0.1336
  137SAPE  H16R14892   7.332   0.776   9.384 -0.4974 -0.8831 -0.3025
  137SAPE  H16S14893   7.253   0.923   9.329  0.4709 -1.0734 -2.7362
  137SAPE  C21714894   7.197   0.752   9.212 -0.0203  0.1252  0.6109
  137SAPE  H17R14895   7.129   0.831   9.174 -0.2296  0.3115  1.3600
  137SAPE  H17S14896   7.139   0.659   9.227 -0.0184  0.3701  2.3461
  137SAPE  C21814897   7.319   0.735   9.120  0.0073  0.2914  0.5064
  137SAPE  H18R14898   7.284   0.676   9.032 -1.7179 -1.0510  2.0177
  137SAPE  H18S14899   7.405   0.692   9.175 -1.4166 -0.6018  2.1293
  137SAPE  C21914900   7.368   0.872   9.056 -0.8267  0.4026  0.2423
  137SAPE  H19R14901   7.467   0.850   9.010 -1.2674  1.6813 -1.4108
  137SAPE  H19S14902   7.378   0.950   9.135  1.0357  0.9692 -0.4776
  137SAPE  C22014903   7.272   0.923   8.944  0.4569 -0.0835  0.1979
  137SAPE  H20R14904   7.284   0.844   8.867  1.7013 -2.2932  2.5279
  137SAPE  H20S14905   7.320   1.015   8.904  2.7054  0.4542  3.6619
  137SAPE  H20T14906   7.172   0.938   8.990  1.4260  0.1019  2.3969
  137SAPE   C3314907   6.599   1.022   9.985 -0.5030 -0.4760 -0.3162
  137SAPE   H3X14908   6.490   1.001   9.975 -0.8385 -1.2812  3.5259
  137SAPE   H3Y14909   6.655   0.931  10.015 -0.7372 -0.3896  0.3895
  137SAPE   C3414910   6.651   1.073   9.845 -0.5736 -0.2086 -0.2374
  137SAPE   H4X14911   6.760   1.092   9.860 -0.7435  0.8788 -0.2840
  137SAPE   H4Y14912   6.585   1.156   9.813 -0.3698  0.0471  0.0009
  137SAPE   C3514913   6.644   0.970   9.730  0.2553 -0.3230 -0.0113
  137SAPE   H5X14914   6.540   0.931   9.730 -0.1761  0.7897 -0.7464
  137SAPE   H5Y14915   6.700   0.876   9.750 -1.0375 -1.0477  0.3322
  137SAPE   C3614916   6.687   1.033   9.599 -0.2362  0.1524  0.1366
  137SAPE   H6X14917   6.781   1.091   9.605 -1.0248  1.5600 -0.3539
  137SAPE   H6Y14918   6.611   1.111   9.574  0.6978  1.0891  0.1504
  137SAPE   C3714919   6.689   0.933   9.479 -0.3282 -0.3245 -0.6058
  137SAPE   H7X14920   6.603   0.862   9.473  0.4341 -1.2830 -0.4388
  137SAPE   H7Y14921   6.778   0.868   9.490 -1.0876 -1.2694  0.0292
  137SAPE   C3814922   6.709   1.009   9.346  1.0489  0.3907  0.6311
  137SAPE   H8X14923   6.801   1.071   9.348  0.1313  1.8638 -0.8410
  137SAPE   H8Y14924   6.620   1.068   9.316 -0.0474 -0.8894  1.2229
  137SAPE   C3914925   6.735   0.905   9.240  0.2063 -0.2622 -0.0124
  137SAPE   H9X14926   6.668   0.817   9.250  1.6683 -1.2807  1.3701
  137SAPE   H9Y14927   6.832   0.865   9.276 -1.6393 -3.4953  1.7155
  137SAPE  C31014928   6.728   0.968   9.104 -1.0325 -0.7438 -0.4284
  137SAPE  H10X14929   6.811   1.040   9.089 -0.6232 -1.5012 -2.0532
  137SAPE  H10Y14930   6.636   1.025   9.082  0.8286  2.0076 -1.5588
  137SAPE  C31114931   6.766   0.859   8.999  0.5743  0.2278 -1.3683
  137SAPE  H11X14932   6.700   0.772   9.018  1.2668  0.3333  2.1052
  137SAPE  H11Y14933   6.867   0.827   9.034  0.6930  1.3516 -0.6347
  137SAPE  C31214934   6.772   0.905   8.850 -0.3728  0.4623  0.0243
  137SAPE  H12X14935   6.772   1.016   8.848 -3.7870  0.5611 -1.4446
  137SAPE  H12Y14936   6.671   0.878   8.811 -0.0825 -0.1571 -0.3281
  137SAPE  C31314937   6.879   0.836   8.770  0.4614  0.4397 -0.3444
  137SAPE  H13X14938   6.857   0.728   8.777 -1.2570  0.8631  1.8725
  137SAPE  H13Y14939   6.973   0.858   8.826 -0.6650  2.8208  0.7440
  137SAPE  C31414940   6.900   0.877   8.622  0.4180  0.1426 -0.4707
  137SAPE  H14X14941   6.997   0.829   8.596  1.1742 -0.1684  2.6272
  137SAPE  H14Y14942   6.907   0.988   8.610 -1.5230  0.4596  0.7813
  137SAPE  C31514943   6.781   0.830   8.537  0.2532  0.3605  0.4684
  137SAPE  H15X14944   6.692   0.864   8.595  0.5414  0.1302  1.0628
  137SAPE  H15Y14945   6.780   0.719   8.545  0.4473  0.4008  1.0955
  137SAPE  C31614946   6.788   0.864   8.391  0.0949  0.5494  0.0207
  137SAPE  H16X14947   6.889   0.850   8.348  0.2799  1.3219  0.1925
  137SAPE  H16Y14948   6.780   0.973   8.374  1.2904  0.2395 -3.1979
  137SAPE  C31714949   6.675   0.801   8.308 -0.1479 -0.2505 -0.3905
  137SAPE  H17X14950   6.576   0.841   8.339 -0.0253 -1.2307  1.3813
  137SAPE  H17Y14951   6.680   0.691   8.316  1.4464 -0.1398  0.8248
  137SAPE  C31814952   6.698   0.844   8.159  0.0555  0.1102 -0.1498
  137SAPE  H18X14953   6.607   0.805   8.110 -1.1312  0.8200  1.4039
  137SAPE  H18Y14954   6.776   0.788   8.104 -1.2137 -1.7199 -0.1427
  137SAPE  H18Z14955   6.714   0.953   8.145  4.0879 -0.4807 -1.4571
  138SAPE     N14956   6.064   2.452  10.445 -0.2396 -0.8314  0.4561
  138SAPE   HN114957   6.011   2.363  10.457 -1.9484 -0.0521 -0.8842
  138SAPE   HN214958   6.021   2.534  10.492  1.0969  0.6874 -0.8496
  138SAPE   HN314959   6.057   2.465  10.342 -0.0773  0.3486  0.5795
  138SAPE   C1214960   6.205   2.428  10.495  0.4630 -0.0296  0.3345
  138SAPE  H12A14961   6.277   2.500  10.451  0.2618 -0.0994 -0.1079
  138SAPE  H12B14962   6.239   2.329  10.460  0.3225  0.0844 -0.1275
  138SAPE   C1114963   6.215   2.441  10.649 -0.2142 -0.5056 -0.0906
  138SAPE  H11A14964   6.194   2.540  10.695  1.8257  0.9391 -2.0476
  138SAPE  H11B14965   6.320   2.424  10.680 -0.5376 -1.9287  0.3138
  138SAPE     P14966   6.186   2.191  10.751 -0.0640  0.0943 -0.2685
  138SAPE   O1314967   6.152   2.170  10.893  0.4666 -0.2748  0.0944
  138SAPE   O1414968   6.134   2.083  10.652 -0.3242  0.1606 -0.2432
  138SAPE   O1214969   6.134   2.331  10.707 -0.0097 -0.3829  0.1024
  138SAPE   O1114970   6.338   2.195  10.748 -0.6054 -0.2575 -0.2484
  138SAPE    C114971   6.408   2.097  10.673  0.0727 -0.0189 -0.7297
  138SAPE    HA14972   6.424   2.017  10.749  0.5396 -2.1411 -2.9414
  138SAPE    HB14973   6.362   2.058  10.581  0.7202  0.2347 -1.1730
  138SAPE    C214974   6.549   2.148  10.648  0.7939 -0.6290 -0.1613
  138SAPE    HS14975   6.593   2.166  10.748  0.9456 -1.0692 -0.1511
  138SAPE   O2114976   6.545   2.272  10.571  0.1261  0.5506  0.2468
  138SAPE   C2114977   6.654   2.346  10.583 -0.9596  0.1102  0.4739
  138SAPE   O2214978   6.743   2.332  10.668  0.7365  0.7404  0.3070
  138SAPE   C2214979   6.655   2.452  10.472 -0.0645  0.4070  0.2146
  138SAPE   H2R14980   6.696   2.400  10.382  0.4362  1.5129 -0.2179
  138SAPE   H2S14981   6.554   2.489  10.445 -1.1143 -0.3672  2.8874
  138SAPE    C314982   6.635   2.031  10.587  0.0795  0.2598  0.3046
  138SAPE    HX14983   6.614   1.962  10.671  0.5191 -1.2993 -0.8154
  138SAPE    HY14984   6.744   2.052  10.585  0.0247  0.5782  0.8019
  138SAPE   O3114985   6.574   1.973  10.471 -0.2994 -0.5185  0.6604
  138SAPE   C3114986   6.613   2.037  10.358  0.2732 -0.7476 -0.9532
  138SAPE   O3214987   6.711   2.108  10.345 -0.4743 -0.3729  0.1247
  138SAPE   C3214988   6.515   2.014  10.247  0.1291  0.2721 -0.1109
  138SAPE   H2X14989   6.478   1.910  10.259 -1.9818  0.9849  0.0430
  138SAPE   H2Y14990   6.570   2.017  10.150 -0.6375 -2.5708 -0.7351
  138SAPE   C2314991   6.768   2.562  10.496 -0.3125 -0.1698 -0.0694
  138SAPE   H3R14992   6.860   2.513  10.535 -0.2140 -0.1459 -0.2722
  138SAPE   H3S14993   6.735   2.630  10.577  0.8952 -2.1598  2.2748
  138SAPE   C2414994   6.814   2.633  10.371 -0.1940  0.2635  0.3325
  138SAPE   H4R14995   6.730   2.701  10.345 -0.2824 -0.6748 -2.1441
  138SAPE   H4S14996   6.819   2.550  10.297  2.0147 -0.8308  1.5943
  138SAPE   C2514997   6.948   2.714  10.379  0.3862 -0.5451 -0.1111
  138SAPE   H5R14998   7.002   2.705  10.474 -0.4103  0.4652  0.4554
  138SAPE   C2614999   6.998   2.789  10.282  0.6182  0.4504  0.3813
  138SAPE   H6R15000   7.093   2.841  10.301  0.0095  2.0842 -0.7951
  138SAPE   C2715001   6.931   2.795  10.140  0.2768  0.4014 -0.4495
  138SAPE   H7R15002   6.926   2.905  10.122  1.2200  0.6101  0.4260
  138SAPE   H7S15003   6.833   2.744  10.141  0.4570  0.0498 -0.4440
  138SAPE   C2815004   7.001   2.747  10.015 -0.2438 -0.8664 -0.2062
  138SAPE   H8R15005   7.091   2.685  10.025 -0.2310 -0.4482  3.5661
  138SAPE   C2915006   6.957   2.769   9.890 -0.4858  0.7112  0.0364
  138SAPE   H9R15007   7.023   2.740   9.806 -1.4870 -2.5313  0.2188
  138SAPE  C21015008   6.827   2.833   9.854 -0.7293 -0.1495 -0.0729
  138SAPE  H10R15009   6.774   2.868   9.945  0.2606  0.8657  0.1318
  138SAPE  H10S15010   6.763   2.749   9.820  0.3790 -1.3928  0.8366
  138SAPE  C21115011   6.826   2.952   9.766 -0.3578  0.0225  0.5689
  138SAPE  H11R15012   6.834   3.044   9.826  0.8458  0.7554 -0.6484
  138SAPE  C21215013   6.778   2.963   9.637  0.0122  0.0907 -0.5390
  138SAPE  H12R15014   6.777   3.061   9.587  0.5006 -0.0345 -0.8045
  138SAPE  C21315015   6.710   2.852   9.555  0.1177 -0.3542  0.4301
  138SAPE  H13R15016   6.611   2.886   9.519  0.2606 -0.8026 -0.4050
  138SAPE  H13S15017   6.694   2.774   9.632  2.0461 -1.0795  0.1633
  138SAPE  C21415018   6.795   2.769   9.456 -1.1190 -0.9471  0.3284
  138SAPE  H14R15019   6.803   2.660   9.475  0.5269 -0.8603  0.2817
  138SAPE  C21515020   6.844   2.819   9.343  0.0265  0.1602 -0.2427
  138SAPE  H15R15021   6.915   2.763   9.281  1.4761  1.6375  0.0221
  138SAPE  C21615022   6.832   2.970   9.313  0.1409 -1.1976 -0.0736
  138SAPE  H16R15023   6.928   3.019   9.339 -0.7223  0.3642  0.2729
  138SAPE  H16S15024   6.751   3.029   9.361  1.7242 -0.0699  1.3577
  138SAPE  C21715025   6.806   2.973   9.161 -0.5726  0.1915 -0.2994
  138SAPE  H17R15026   6.781   3.077   9.130 -0.2033  0.0500 -1.1117
  138SAPE  H17S15027   6.721   2.909   9.130  1.8642 -3.8969  0.7397
  138SAPE  C21815028   6.935   2.939   9.082 -0.0631 -0.3046 -0.8651
  138SAPE  H18R15029   6.942   2.828   9.078  1.0873 -0.3597  1.5874
  138SAPE  H18S15030   7.031   2.970   9.127 -0.6293 -2.3120  2.0120
  138SAPE  C21915031   6.932   2.992   8.936 -0.2890 -0.1089 -0.4678
  138SAPE  H19R15032   7.015   2.954   8.874 -0.2281  3.3217 -2.7460
  138SAPE  H19S15033   6.955   3.100   8.939 -1.9988  0.2967 -0.5896
  138SAPE  C22015034   6.796   2.968   8.864  0.3092 -0.3890  0.5344
  138SAPE  H20R15035   6.770   2.860   8.875  2.0745 -0.7102  2.1945
  138SAPE  H20S15036   6.812   3.008   8.762 -1.4005  0.0647  0.4113
  138SAPE  H20T15037   6.718   3.024   8.920  0.7133 -0.8486  1.5869
  138SAPE   C3315038   6.402   2.112  10.269 -0.1807  0.1672 -0.3008
  138SAPE   H3X15039   6.375   2.121  10.376  0.9170  0.1388 -0.0133
  138SAPE   H3Y15040   6.320   2.086  10.199 -0.7716  0.0135  0.4292
  138SAPE   C3415041   6.426   2.258  10.225  0.3576 -0.0088  0.1436
  138SAPE   H4X15042   6.486   2.303  10.307 -0.8669  1.4056  0.3036
  138SAPE   H4Y15043   6.336   2.320  10.205  1.5255  0.9989 -2.6190
  138SAPE   C3515044   6.497   2.275  10.088 -0.0764 -0.7304 -0.2886
  138SAPE   H5X15045   6.430   2.226  10.014  0.1229 -0.3038 -0.7609
  138SAPE   H5Y15046   6.590   2.213  10.088 -0.0909 -0.7797 -1.2578
  138SAPE   C3615047   6.547   2.416  10.060  0.1158 -0.8434  0.7198
  138SAPE   H6X15048   6.620   2.455  10.133  1.1102 -3.2314  1.0812
  138SAPE   H6Y15049   6.456   2.480  10.068  1.7252  1.4589  1.8092
  138SAPE   C3715050   6.618   2.433   9.926  0.0495 -0.3511 -0.0315
  138SAPE   H7X15051   6.687   2.349   9.905 -0.2334 -0.6335  0.1662
  138SAPE   H7Y15052   6.679   2.526   9.918 -0.0443 -0.2251  0.6634
  138SAPE   C3815053   6.528   2.453   9.800  0.6410  0.0281 -0.0107
  138SAPE   H8X15054   6.461   2.537   9.829  0.7448  0.0406  0.1913
  138SAPE   H8Y15055   6.468   2.360   9.787 -1.5403  1.0859  1.7726
  138SAPE   C3915056   6.608   2.481   9.674 -0.1849 -0.6367  0.0339
  138SAPE   H9X15057   6.684   2.401   9.663  0.2227 -0.1576 -0.7529
  138SAPE   H9Y15058   6.681   2.565   9.673  1.2550 -1.8231  1.0597
  138SAPE  C31015059   6.522   2.470   9.548 -0.9745 -0.8419 -0.7461
  138SAPE  H10X15060   6.473   2.370   9.545 -0.4477 -1.2140  1.6082
  138SAPE  H10Y15061   6.594   2.472   9.463  0.9083 -2.7040  0.7208
  138SAPE  C31115062   6.426   2.591   9.523 -0.2461  0.4316 -0.2235
  138SAPE  H11X15063   6.477   2.688   9.535  2.6434 -0.7599 -1.8691
  138SAPE  H11Y15064   6.334   2.587   9.586  1.6544 -0.2921  2.6704
  138SAPE  C31215065   6.376   2.603   9.374 -0.5344  0.6866 -0.5061
  138SAPE  H12X15066   6.270   2.635   9.364 -0.2446  1.8402 -0.0153
  138SAPE  H12Y15067   6.362   2.497   9.345 -0.4742  0.8736 -1.2357
  138SAPE  C31315068   6.467   2.671   9.263 -0.3302  0.0103  0.4796
  138SAPE  H13X15069   6.573   2.644   9.248  0.5867  2.0804  2.5691
  138SAPE  H13Y15070   6.487   2.779   9.283  1.3686 -0.3278  0.7102
  138SAPE  C31415071   6.399   2.649   9.126  0.0378 -0.3323  0.5481
  138SAPE  H14X15072   6.288   2.646   9.128 -0.1314  1.8841 -0.8689
  138SAPE  H14Y15073   6.429   2.548   9.091 -1.6096 -0.2379 -1.3379
  138SAPE  C31515074   6.444   2.753   9.020  0.4626 -0.1098 -0.5523
  138SAPE  H15X15075   6.555   2.761   9.020  0.3594  1.9019 -0.7380
  138SAPE  H15Y15076   6.409   2.856   9.043 -1.5717 -0.9070  0.1296
  138SAPE  C31615077   6.404   2.716   8.882  0.3040  0.1438  0.9465
  138SAPE  H16X15078   6.293   2.706   8.882  0.1867  1.1302  2.1449
  138SAPE  H16Y15079   6.450   2.620   8.853  1.4899  0.6272  1.1736
  138SAPE  C31715080   6.447   2.822   8.772  0.3426 -0.0747 -0.9751
  138SAPE  H17X15081   6.554   2.852   8.779  0.0628  1.2034 -1.9534
  138SAPE  H17Y15082   6.390   2.912   8.802  1.5698  0.4077  0.0276
  138SAPE  C31815083   6.406   2.780   8.635  0.2187  0.4542 -0.0710
  138SAPE  H18X15084   6.372   2.851   8.557  0.2840 -2.8772 -3.4216
  138SAPE  H18Y15085   6.319   2.712   8.646  1.0405 -0.4616  0.9627
  138SAPE  H18Z15086   6.493   2.721   8.599  0.6227  0.6431  0.5698
  139SAPE     N15087   6.644   6.417  10.249  0.1468 -0.7039  0.1044
  139SAPE   HN115088   6.658   6.325  10.295 -1.8345 -0.3641  1.5213
  139SAPE   HN215089   6.584   6.461  10.322  1.0227 -0.5770  0.7682
  139SAPE   HN315090   6.604   6.390  10.157  2.6200  0.4040 -1.4253
  139SAPE   C1215091   6.783   6.476  10.234 -0.6927 -0.4668 -0.9756
  139SAPE  H12A15092   6.779   6.579  10.192 -0.5825  0.4898  1.2188
  139SAPE  H12B15093   6.837   6.408  10.165 -1.5787  0.8217 -3.0413
  139SAPE   C1115094   6.852   6.486  10.370  0.1168  0.8590 -0.7663
  139SAPE  H11A15095   6.806   6.566  10.431 -0.1961  1.3039 -1.5671
  139SAPE  H11B15096   6.957   6.520  10.354 -0.8843  4.5209 -0.4268
  139SAPE     P15097   6.952   6.315  10.539 -0.9239  0.1614 -0.2276
  139SAPE   O1315098   6.980   6.432  10.626 -0.7873  0.2126 -0.4992
  139SAPE   O1415099   6.929   6.180  10.595 -0.0600  0.6027 -0.1796
  139SAPE   O1215100   6.838   6.357  10.436  0.4895 -0.6497  0.2209
  139SAPE   O1115101   7.068   6.303  10.432  0.2944  0.2261  0.1501
  139SAPE    C115102   7.067   6.196  10.340  0.2084 -0.4279  0.0293
  139SAPE    HA15103   7.088   6.101  10.394 -1.1188  0.0833  1.5160
  139SAPE    HB15104   6.972   6.199  10.283  0.5547  1.1602 -0.5217
  139SAPE    C215105   7.187   6.214  10.238  0.7929 -0.5527 -0.3556
  139SAPE    HS15106   7.278   6.238  10.299  0.6586  1.4998 -0.8726
  139SAPE   O2115107   7.143   6.318  10.149 -0.2924 -0.1881 -0.3917
  139SAPE   C2115108   7.238   6.397  10.116  0.1735  0.1847  0.2359
  139SAPE   O2215109   7.346   6.419  10.166 -0.1000  0.8461 -0.0053
  139SAPE   C2215110   7.186   6.470   9.987  0.4733  0.3095 -0.5106
  139SAPE   H2R15111   7.138   6.565  10.019 -1.9601 -0.6402 -1.1653
  139SAPE   H2S15112   7.266   6.503   9.917 -1.0580  3.1927 -1.0601
  139SAPE    C315113   7.202   6.084  10.161  0.0029  0.4570 -0.6702
  139SAPE    HX15114   7.105   6.076  10.106  0.5565  1.5923 -1.8647
  139SAPE    HY15115   7.212   5.998  10.230 -0.4130 -0.4243 -1.6700
  139SAPE   O3115116   7.311   6.092  10.066 -0.2495  0.0105  0.0995
  139SAPE   C3115117   7.415   6.029  10.086  0.6347  0.1353 -0.0596
  139SAPE   O3215118   7.442   5.947  10.173  0.0867  0.2661  0.0183
  139SAPE   C3215119   7.513   6.054   9.970 -0.1286 -0.3011 -0.9441
  139SAPE   H2X15120   7.466   6.014   9.878  1.3278 -1.7185 -1.1180
  139SAPE   H2Y15121   7.605   5.994   9.987  1.0142  1.3297 -1.1774
  139SAPE   C2315122   7.075   6.386   9.908 -0.9640  0.2292 -0.1940
  139SAPE   H3R15123   7.040   6.454   9.828 -0.1932 -0.2709 -0.9756
  139SAPE   H3S15124   6.993   6.373   9.982  0.4257  0.7979  1.5244
  139SAPE   C2415125   7.122   6.257   9.835  0.9041  0.1629  0.2659
  139SAPE   H4R15126   7.036   6.193   9.805  0.9632  0.4559 -0.5489
  139SAPE   H4S15127   7.165   6.189   9.912  2.6815 -0.1872 -0.9890
  139SAPE   C2515128   7.220   6.276   9.725 -0.0414 -0.2414  0.4100
  139SAPE   H5R15129   7.321   6.264   9.765 -0.3316 -1.5444  0.7827
  139SAPE   C2615130   7.196   6.284   9.600  0.5106 -0.1245  0.9011
  139SAPE   H6R15131   7.275   6.313   9.529  0.2918 -3.3096 -0.8291
  139SAPE   C2715132   7.063   6.277   9.532 -0.2163  0.4145  0.0989
  139SAPE   H7R15133   7.058   6.368   9.469  2.3233 -0.2813 -1.2011
  139SAPE   H7S15134   6.979   6.271   9.606  0.1053  0.6346  0.4866
  139SAPE   C2815135   7.042   6.166   9.432 -0.0167  0.4101  0.6489
  139SAPE   H8R15136   6.984   6.077   9.460 -0.3143 -0.3010 -1.9785
  139SAPE   C2915137   7.104   6.149   9.313 -0.9701  0.2764  0.5143
  139SAPE   H9R15138   7.079   6.058   9.257 -2.2586  1.1013 -0.2626
  139SAPE  C21015139   7.200   6.247   9.239 -0.0912  0.0382  0.6003
  139SAPE  H10R15140   7.300   6.244   9.287  2.9113  2.1054 -4.6652
  139SAPE  H10S15141   7.161   6.350   9.250 -0.2414  0.4981 -2.9355
  139SAPE  C21115142   7.225   6.210   9.094 -0.5191 -0.2030  0.2776
  139SAPE  H11R15143   7.308   6.145   9.061  1.1153  2.3755 -1.0729
  139SAPE  C21215144   7.143   6.245   8.995  0.5742 -0.1634 -0.1354
  139SAPE  H12R15145   7.165   6.224   8.889 -0.1669  2.6237 -0.9154
  139SAPE  C21315146   7.018   6.325   9.013  1.0130  0.6142 -0.0225
  139SAPE  H13R15147   7.043   6.428   8.980 -1.6123  1.0283 -0.9127
  139SAPE  H13S15148   6.970   6.332   9.113 -0.6185  2.1806 -0.8542
  139SAPE  C21415149   6.911   6.281   8.917  0.6271  0.0491  0.1011
  139SAPE  H14R15150   6.893   6.173   8.908 -0.1447  0.3661 -3.4918
  139SAPE  C21515151   6.820   6.359   8.862  0.6651 -0.1709 -0.1407
  139SAPE  H15R15152   6.752   6.312   8.790 -0.6931  0.8274  0.4413
  139SAPE  C21615153   6.816   6.509   8.874 -1.0272 -0.6810  0.1381
  139SAPE  H16R15154   6.839   6.532   8.980 -0.3786  0.9433 -0.3157
  139SAPE  H16S15155   6.716   6.558   8.864 -0.6779 -0.2935 -2.0457
  139SAPE  C21715156   6.921   6.578   8.780  0.0454 -0.2336 -0.1437
  139SAPE  H17R15157   7.017   6.522   8.784  1.9203  2.8262  1.8816
  139SAPE  H17S15158   6.938   6.678   8.824 -1.9078  0.2166 -0.3476
  139SAPE  C21815159   6.873   6.600   8.633  0.0218  0.3052 -0.2429
  139SAPE  H18R15160   6.768   6.638   8.637  0.3634  1.6336 -2.4019
  139SAPE  H18S15161   6.877   6.498   8.591  4.1424 -0.5683  1.7235
  139SAPE  C21915162   6.954   6.709   8.557 -0.5560 -0.3688  0.2885
  139SAPE  H19R15163   6.934   6.806   8.607  0.4313 -0.4286  0.8083
  139SAPE  H19S15164   6.920   6.712   8.451  0.5405 -0.5870 -0.0881
  139SAPE  C22015165   7.100   6.684   8.563  0.1971  0.3387  0.0254
  139SAPE  H20R15166   7.132   6.688   8.669  1.5214 -0.9715 -0.2920
  139SAPE  H20S15167   7.152   6.766   8.510  0.2475  1.2362  1.4100
  139SAPE  H20T15168   7.120   6.588   8.511 -2.0641  0.2296 -0.7729
  139SAPE   C3315169   7.562   6.205   9.952  0.1596  1.5480 -0.7643
  139SAPE   H3X15170   7.626   6.239  10.036  2.2432 -0.7235 -1.3199
  139SAPE   H3Y15171   7.470   6.267   9.947 -0.2813  1.0438  0.5989
  139SAPE   C3415172   7.652   6.217   9.826  0.5266  0.0284 -0.1406
  139SAPE   H4X15173   7.689   6.322   9.827  0.8920 -0.0857 -0.8154
  139SAPE   H4Y15174   7.587   6.206   9.736  1.2753 -1.0063 -0.5736
  139SAPE   C3515175   7.780   6.123   9.814  0.0564 -0.9597  0.3820
  139SAPE   H5X15176   7.750   6.016   9.803  2.1875 -1.9172  2.7107
  139SAPE   H5Y15177   7.831   6.129   9.913  0.2189  1.1186  0.2209
  139SAPE   C3615178   7.883   6.152   9.707  0.2121 -0.8548 -0.1131
  139SAPE   H6X15179   7.964   6.076   9.715  1.1553  0.1897  0.7124
  139SAPE   H6Y15180   7.915   6.254   9.739  0.3311 -0.7762 -0.4833
  139SAPE   C3715181   7.832   6.147   9.569 -0.4020 -0.0729 -0.3873
  139SAPE   H7X15182   7.906   6.122   9.490  0.0842 -0.6114  0.2312
  139SAPE   H7Y15183   7.786   6.243   9.534 -1.2929 -1.2608 -2.7061
  139SAPE   C3815184   7.721   6.051   9.542 -0.1952 -0.4316 -0.1735
  139SAPE   H8X15185   7.639   6.053   9.618  1.1716 -0.6499  1.3646
  139SAPE   H8Y15186   7.759   5.946   9.540 -1.8706 -1.1418  1.5287
  139SAPE   C3915187   7.654   6.072   9.399  0.5326 -0.2087 -0.1812
  139SAPE   H9X15188   7.583   6.157   9.408  2.2384  1.4159 -1.2445
  139SAPE   H9Y15189   7.588   5.983   9.393 -0.7565  0.6103  1.2676
  139SAPE  C31015190   7.736   6.093   9.280  0.3006 -0.7366  0.4029
  139SAPE  H10X15191   7.808   6.009   9.270 -1.7675 -2.5037 -0.3965
  139SAPE  H10Y15192   7.787   6.191   9.268 -1.6583  0.2345 -0.3698
  139SAPE  C31115193   7.643   6.084   9.154 -0.1998  0.0203 -0.3955
  139SAPE  H11X15194   7.562   6.161   9.161 -0.7570 -0.6182  0.3523
  139SAPE  H11Y15195   7.581   5.992   9.161 -4.4149  2.6400  0.5469
  139SAPE  C31215196   7.715   6.086   9.016 -0.0332  0.4712 -0.0397
  139SAPE  H12X15197   7.795   6.011   9.032 -0.3540 -0.0888 -0.9918
  139SAPE  H12Y15198   7.778   6.174   8.991  1.8873 -1.2088 -1.4313
  139SAPE  C31315199   7.628   6.039   8.894 -0.2476  0.5114  0.1464
  139SAPE  H13X15200   7.559   5.958   8.928  1.2323 -1.0100 -0.2948
  139SAPE  H13Y15201   7.688   5.987   8.816  2.5748  0.5830  2.0925
  139SAPE  C31415202   7.541   6.151   8.835 -0.1261  0.6522  0.2420
  139SAPE  H14X15203   7.602   6.240   8.808  0.1879  0.4870  0.3901
  139SAPE  H14Y15204   7.462   6.172   8.910 -0.8756 -1.5874  0.1400
  139SAPE  C31515205   7.462   6.100   8.708  0.0034 -0.4824 -1.5188
  139SAPE  H15X15206   7.385   6.039   8.760  1.1531 -1.0740 -0.4439
  139SAPE  H15Y15207   7.532   6.039   8.646  2.3089  1.6555 -1.2029
  139SAPE  C31615208   7.399   6.205   8.622 -0.1107 -0.6266  0.6144
  139SAPE  H16X15209   7.330   6.268   8.684  0.8436  3.2443 -1.8985
  139SAPE  H16Y15210   7.476   6.275   8.583 -0.7747  0.7142  1.6153
  139SAPE  C31715211   7.323   6.141   8.507  0.1952 -0.0857  0.5227
  139SAPE  H17X15212   7.251   6.070   8.554  0.3528 -0.4863  0.1669
  139SAPE  H17Y15213   7.397   6.076   8.455  1.6979  0.6488  1.6690
  139SAPE  C31815214   7.253   6.243   8.415 -0.4726  0.3033 -0.4773
  139SAPE  H18X15215   7.316   6.331   8.392 -2.0212  1.8915  1.0327
  139SAPE  H18Y15216   7.163   6.272   8.474 -0.7642  1.0898 -1.2950
  139SAPE  H18Z15217   7.216   6.193   8.323  1.5481 -1.2788 -0.4916
  140SAPE     N15218   4.116   3.614  10.942 -0.2652 -0.7030 -0.2073
  140SAPE   HN115219   4.082   3.653  10.852  2.5368 -1.4988 -1.7454
  140SAPE   HN215220   4.047   3.648  11.012 -1.5684 -1.4120 -1.0899
  140SAPE   HN315221   4.213   3.639  10.970 -0.7087  1.1265 -0.1729
  140SAPE   C1215222   4.124   3.465  10.955  0.4833  0.7990 -0.8142
  140SAPE  H12A15223   4.157   3.440  11.058 -0.4961  0.8332 -0.4780
  140SAPE  H12B15224   4.203   3.425  10.889  1.9390 -0.5990  1.6080
  140SAPE   C1115225   3.991   3.389  10.910  0.0820  0.6858 -0.6023
  140SAPE  H11A15226   3.944   3.437  10.821  0.5057 -1.4051 -2.0193
  140SAPE  H11B15227   3.913   3.401  10.989  0.7248  2.0054 -0.1389
  140SAPE     P15228   3.923   3.169  10.787  0.1187  0.0378 -0.3749
  140SAPE   O1315229   3.995   3.044  10.759 -0.4284  0.2117 -0.1276
  140SAPE   O1415230   3.793   3.139  10.855 -0.4008 -0.2373  0.1742
  140SAPE   O1215231   4.016   3.253  10.884 -0.0534 -0.4098 -0.1384
  140SAPE   O1115232   3.908   3.259  10.657 -0.2368 -0.6656  0.1482
  140SAPE    C115233   4.019   3.254  10.564  0.0572  0.0437 -0.0342
  140SAPE    HA15234   4.073   3.350  10.559 -0.9040  0.5381 -1.6208
  140SAPE    HB15235   4.097   3.179  10.586 -1.7028 -1.1945  2.6230
  140SAPE    C215236   3.973   3.227  10.412 -0.5367  0.4339 -0.5068
  140SAPE    HS15237   3.968   3.116  10.407 -0.2511  0.2864  1.5767
  140SAPE   O2115238   4.062   3.281  10.314  0.3020  0.2561 -1.1662
  140SAPE   C2115239   4.185   3.219  10.318 -0.4607  0.3357  0.4630
  140SAPE   O2215240   4.201   3.106  10.359  0.6027  0.3046 -0.2395
  140SAPE   C2215241   4.297   3.298  10.253  0.2749 -0.0709  0.2634
  140SAPE   H2R15242   4.320   3.390  10.311 -1.0687 -0.4120  1.4000
  140SAPE   H2S15243   4.391   3.239  10.259 -0.7520 -1.9008 -0.7292
  140SAPE    C315244   3.825   3.270  10.388 -0.1287  0.0915 -0.5822
  140SAPE    HX15245   3.811   3.380  10.401  1.5041  0.1865  0.7251
  140SAPE    HY15246   3.757   3.206  10.448 -0.7318 -1.7334 -3.0317
  140SAPE   O3115247   3.795   3.233  10.250  0.0296 -0.0978 -0.1747
  140SAPE   C3115248   3.776   3.323  10.150 -0.5846 -0.0531  0.2806
  140SAPE   O3215249   3.795   3.442  10.163  0.1606 -1.1768 -0.4720
  140SAPE   C3215250   3.727   3.247  10.035  0.0251  0.3947 -0.0816
  140SAPE   H2X15251   3.662   3.158  10.051 -0.2232  0.5965  0.0375
  140SAPE   H2Y15252   3.809   3.194   9.982 -0.5801 -0.9675  0.2988
  140SAPE   C2315253   4.262   3.341  10.103  0.2496  0.0691  0.3976
  140SAPE   H3R15254   4.324   3.427  10.069  0.9467  0.0531  1.5585
  140SAPE   H3S15255   4.158   3.379  10.104 -0.1818 -1.0540  0.0187
  140SAPE   C2415256   4.257   3.239   9.993 -0.6316 -0.2562 -0.2495
  140SAPE   H4R15257   4.179   3.162  10.012  0.3721 -1.1606  0.2957
  140SAPE   H4S15258   4.360   3.203   9.974  0.8924  3.3390  0.4680
  140SAPE   C2515259   4.221   3.289   9.856  0.6770 -0.2023  0.0882
  140SAPE   H5R15260   4.131   3.352   9.857 -0.4324 -1.7653  0.6093
  140SAPE   C2615261   4.279   3.263   9.740 -0.3599  0.5289  0.5693
  140SAPE   H6R15262   4.243   3.323   9.656 -1.1003  0.1731  0.6205
  140SAPE   C2715263   4.403   3.187   9.705  0.3721 -0.7430  0.8412
  140SAPE   H7R15264   4.475   3.195   9.788  0.3815  2.4447  0.6608
  140SAPE   H7S15265   4.455   3.223   9.613  0.1557 -1.9622  0.2190
  140SAPE   C2815266   4.359   3.047   9.679  0.4048  0.0537  0.6838
  140SAPE   H8R15267   4.304   3.004   9.764 -0.0948  1.3500  1.0492
  140SAPE   C2915268   4.358   2.975   9.566 -0.0479  0.3125  0.3490
  140SAPE   H9R15269   4.332   2.868   9.578 -0.7864  0.3173 -0.9960
  140SAPE  C21015270   4.392   3.008   9.427 -0.5786 -0.2091  0.4276
  140SAPE  H10R15271   4.403   2.914   9.369  3.2965  0.7844 -0.7017
  140SAPE  H10S15272   4.494   3.049   9.416 -0.1557 -0.9750  1.4561
  140SAPE  C21115273   4.301   3.118   9.373 -0.1335  1.2176  0.0927
  140SAPE  H11R15274   4.205   3.134   9.425 -0.9725 -1.2120 -0.5664
  140SAPE  C21215275   4.336   3.197   9.269  0.5420 -0.1006 -0.3406
  140SAPE  H12R15276   4.268   3.277   9.237 -0.4287 -0.2716  1.1813
  140SAPE  C21315277   4.464   3.180   9.184  0.0942  0.2658  0.3495
  140SAPE  H13R15278   4.481   3.083   9.132 -0.4372 -0.3415  1.2804
  140SAPE  H13S15279   4.549   3.191   9.255 -0.0558  0.7588  0.4589
  140SAPE  C21415280   4.470   3.297   9.091  0.3946 -0.2521 -0.4201
  140SAPE  H14R15281   4.493   3.392   9.142  2.3108 -0.2137 -1.2798
  140SAPE  C21515282   4.426   3.298   8.961  0.1827 -0.3294  0.2775
  140SAPE  H15R15283   4.441   3.385   8.896 -0.9932  0.3610  0.9016
  140SAPE  C21615284   4.375   3.189   8.871 -0.2161  0.7381 -0.0900
  140SAPE  H16R15285   4.313   3.115   8.926 -1.6313  0.5718 -1.8001
  140SAPE  H16S15286   4.449   3.120   8.825 -3.1087 -3.3804  0.9024
  140SAPE  C21715287   4.288   3.234   8.757 -0.8651  0.1930  0.2502
  140SAPE  H17R15288   4.273   3.140   8.699 -1.8438 -0.4100  1.4298
  140SAPE  H17S15289   4.339   3.308   8.692  1.3606 -1.3066  0.1664
  140SAPE  C21815290   4.155   3.278   8.815  0.0277 -0.4922 -0.0065
  140SAPE  H18R15291   4.171   3.377   8.864  1.2117 -1.8806  2.6018
  140SAPE  H18S15292   4.113   3.206   8.888  1.6597 -1.8595 -0.3531
  140SAPE  C21915293   4.056   3.284   8.700 -0.2829 -0.2433  0.4719
  140SAPE  H19R15294   3.956   3.295   8.747 -0.1339  0.2036  0.6881
  140SAPE  H19S15295   4.061   3.189   8.642 -3.2382  0.0832 -0.4906
  140SAPE  C22015296   4.079   3.404   8.609  0.1702 -0.3012 -0.0302
  140SAPE  H20R15297   4.047   3.499   8.656  0.7881 -0.2425  0.2811
  140SAPE  H20S15298   4.012   3.377   8.524 -0.2574 -0.4448  0.3480
  140SAPE  H20T15299   4.184   3.410   8.575  0.8744 -2.1451  1.6307
  140SAPE   C3315300   3.659   3.348   9.940  0.3311  0.5256  0.0469
  140SAPE   H3X15301   3.726   3.430   9.906  0.6274  0.5412  0.6603
  140SAPE   H3Y15302   3.568   3.392   9.985  1.2225  2.3731  0.1606
  140SAPE   C3415303   3.616   3.275   9.812 -0.9691 -0.4070 -0.4624
  140SAPE   H4X15304   3.549   3.187   9.826 -3.1966  0.8558 -2.3525
  140SAPE   H4Y15305   3.708   3.239   9.762 -1.2153 -2.0522  0.2013
  140SAPE   C3515306   3.544   3.374   9.715 -0.4874  0.4488  0.2097
  140SAPE   H5X15307   3.596   3.470   9.695 -0.2131  0.7611  2.1786
  140SAPE   H5Y15308   3.455   3.401   9.774 -0.1629 -0.6934  1.2659
  140SAPE   C3615309   3.498   3.311   9.581  0.3129 -0.4682  0.3504
  140SAPE   H6X15310   3.447   3.213   9.597  3.0673 -2.3955 -1.7246
  140SAPE   H6Y15311   3.585   3.282   9.518 -0.2560 -2.8742  0.5795
  140SAPE   C3715312   3.392   3.399   9.513  0.1726  0.2279  0.0697
  140SAPE   H7X15313   3.319   3.419   9.593 -1.3071 -3.1654 -0.2498
  140SAPE   H7Y15314   3.360   3.347   9.420  1.3441  2.0063 -1.4098
  140SAPE   C3815315   3.449   3.529   9.453 -0.5085 -0.9305  0.7158
  140SAPE   H8X15316   3.553   3.511   9.417 -1.4544 -1.1975 -2.1587
  140SAPE   H8Y15317   3.467   3.590   9.544  0.6674  1.2565 -0.8868
  140SAPE   C3915318   3.366   3.598   9.344  0.7061  0.4850 -0.4988
  140SAPE   H9X15319   3.393   3.706   9.339 -2.5386  1.5663  1.9924
  140SAPE   H9Y15320   3.260   3.607   9.376  0.6488  3.3700 -1.1914
  140SAPE  C31015321   3.386   3.525   9.207  0.1529  0.1936  0.8258
  140SAPE  H10X15322   3.364   3.418   9.227  0.0154  0.4198  1.9283
  140SAPE  H10Y15323   3.495   3.533   9.184 -0.4239  2.9849 -1.5177
  140SAPE  C31115324   3.296   3.567   9.092 -0.5619  0.1203  0.0098
  140SAPE  H11X15325   3.312   3.676   9.075  1.2227  0.1565  1.5568
  140SAPE  H11Y15326   3.189   3.551   9.115 -0.2798  1.1196  2.3126
  140SAPE  C31215327   3.334   3.484   8.969  0.9590 -1.0150  0.9243
  140SAPE  H12X15328   3.290   3.383   8.985 -3.3773  0.7073  1.4413
  140SAPE  H12Y15329   3.443   3.486   8.950  0.8682 -1.5394  0.3233
  140SAPE  C31315330   3.259   3.526   8.840 -0.4756 -1.1281  0.6770
  140SAPE  H13X15331   3.313   3.618   8.808  1.2472 -2.1421  0.5517
  140SAPE  H13Y15332   3.157   3.560   8.868 -0.5446  0.7479 -1.5498
  140SAPE  C31415333   3.270   3.423   8.729  0.1401 -0.6821  0.2651
  140SAPE  H14X15334   3.198   3.342   8.753  0.8680 -0.4535  3.8881
  140SAPE  H14Y15335   3.372   3.379   8.718  0.1530 -0.5261 -0.2662
  140SAPE  C31515336   3.231   3.485   8.595  0.1265 -0.3147 -0.4149
  140SAPE  H15X15337   3.284   3.583   8.583 -1.1161  0.4592  0.1672
  140SAPE  H15Y15338   3.126   3.520   8.604  0.6538  0.8887  4.1914
  140SAPE  C31615339   3.256   3.397   8.474  0.4918  0.1146 -0.6034
  140SAPE  H16X15340   3.361   3.363   8.487  0.3218 -0.6361 -1.1628
  140SAPE  H16Y15341   3.251   3.464   8.386 -2.6351 -0.4668 -0.9884
  140SAPE  C31715342   3.155   3.284   8.455  0.2452 -0.5163 -0.6042
  140SAPE  H17X15343   3.052   3.324   8.455  0.2120 -0.5874 -0.0415
  140SAPE  H17Y15344   3.147   3.225   8.549 -0.4420 -0.1604 -0.4325
  140SAPE  C31815345   3.181   3.200   8.335 -0.2436  0.2487 -0.0313
  140SAPE  H18X15346   3.184   3.259   8.241 -0.5351  1.2297  0.5479
  140SAPE  H18Y15347   3.101   3.124   8.325 -2.3059  2.1504  0.8556
  140SAPE  H18Z15348   3.275   3.142   8.348  0.9665  2.0792 -0.2570
  141SAPE     N15349   2.015   4.590  10.589 -0.4968 -0.0381  0.9525
  141SAPE   HN115350   2.000   4.650  10.506 -1.5320  0.3066  1.3708
  141SAPE   HN215351   1.979   4.496  10.565  0.0724  0.5791 -2.8754
  141SAPE   HN315352   1.955   4.633  10.662 -1.5010 -0.0864  0.1740
  141SAPE   C1215353   2.164   4.590  10.624 -0.1025  0.4625  0.1358
  141SAPE  H12A15354   2.170   4.555  10.729  0.8244 -1.4247 -0.5022
  141SAPE  H12B15355   2.201   4.695  10.620  0.6064  0.1988 -0.4436
  141SAPE   C1115356   2.247   4.512  10.524 -1.1763  0.2533  0.3183
  141SAPE  H11A15357   2.354   4.521  10.552 -0.7257 -1.7400 -0.6000
  141SAPE  H11B15358   2.240   4.537  10.416  0.5458 -0.6144 -0.0319
  141SAPE     P15359   2.274   4.281  10.636  0.1119 -0.2143  0.0410
  141SAPE   O1315360   2.342   4.357  10.741  0.4871  0.0708  0.5814
  141SAPE   O1415361   2.160   4.195  10.676 -0.2263 -0.2702  0.6023
  141SAPE   O1215362   2.216   4.377  10.527  0.9049  0.4846  0.6017
  141SAPE   O1115363   2.384   4.194  10.562  0.0570  0.4601 -0.2751
  141SAPE    C115364   2.455   4.243  10.445 -0.2104 -1.2527  0.3187
  141SAPE    HA15365   2.434   4.349  10.421 -1.2242 -0.7969  2.8952
  141SAPE    HB15366   2.564   4.235  10.466 -0.1355 -0.4332  0.2726
  141SAPE    C215367   2.423   4.149  10.324 -0.1957  0.2993  0.1482
  141SAPE    HS15368   2.502   4.164  10.247 -0.9273 -2.2909 -1.2429
  141SAPE   O2115369   2.297   4.185  10.265  0.0843 -0.0643 -0.4545
  141SAPE   C2115370   2.287   4.301  10.196 -0.2456 -0.3576 -0.2711
  141SAPE   O2215371   2.379   4.379  10.179  0.2407  0.0947  0.1844
  141SAPE   C2215372   2.150   4.321  10.139  0.1377 -1.0463 -0.1748
  141SAPE   H2R15373   2.078   4.340  10.221 -0.2070 -1.8996 -0.2663
  141SAPE   H2S15374   2.150   4.416  10.082 -0.1795 -0.3084  1.0207
  141SAPE    C315375   2.416   3.998  10.353  0.3806 -0.0827 -0.7981
  141SAPE    HX15376   2.334   3.995  10.428 -0.2180 -1.0030 -1.4686
  141SAPE    HY15377   2.506   3.960  10.406  0.0845  0.4226  0.0947
  141SAPE   O3115378   2.384   3.909  10.252  0.2863 -0.3440  0.4982
  141SAPE   C3115379   2.467   3.889  10.153 -0.4854 -0.7253 -0.3107
  141SAPE   O3215380   2.574   3.945  10.144 -0.1744  0.2826  0.7717
  141SAPE   C3215381   2.403   3.788  10.062 -0.7235 -0.0524  0.4520
  141SAPE   H2X15382   2.307   3.830  10.024 -1.1916  0.1226  1.7667
  141SAPE   H2Y15383   2.372   3.708  10.133 -2.0989 -0.1335 -0.2129
  141SAPE   C2315384   2.098   4.201  10.045  0.0060  0.2619  0.0197
  141SAPE   H3R15385   1.990   4.226  10.035 -0.5890 -2.0227  0.2033
  141SAPE   H3S15386   2.098   4.099  10.088 -2.6830  0.4588  0.6635
  141SAPE   C2415387   2.153   4.214   9.901  0.6297  0.4686 -0.1790
  141SAPE   H4R15388   2.128   4.316   9.862 -0.4490  0.5130  0.5751
  141SAPE   H4S15389   2.085   4.157   9.833 -0.6137  0.1278  1.3084
  141SAPE   C2515390   2.293   4.176   9.865 -0.5832 -0.6072  0.2296
  141SAPE   H5R15391   2.362   4.178   9.951 -2.0494  4.1226  1.6121
  141SAPE   C2615392   2.345   4.146   9.745 -0.2341  0.8582  0.3667
  141SAPE   H6R15393   2.452   4.119   9.749  0.4143  3.3244  1.9174
  141SAPE   C2715394   2.269   4.142   9.609  0.1186  0.4139 -0.8078
  141SAPE   H7R15395   2.307   4.223   9.544  2.7188 -0.3987 -0.4032
  141SAPE   H7S15396   2.160   4.146   9.631  0.3139 -0.6255  0.5103
  141SAPE   C2815397   2.299   4.023   9.527  1.2387  0.4942 -0.3920
  141SAPE   H8R15398   2.308   3.924   9.576 -2.8397 -0.2134 -0.7045
  141SAPE   C2915399   2.288   4.014   9.391  0.0029 -0.0041 -0.0744
  141SAPE   H9R15400   2.293   3.913   9.347  0.7582  0.9861 -2.4134
  141SAPE  C21015401   2.267   4.135   9.288 -0.3171  0.8648  0.0798
  141SAPE  H10R15402   2.252   4.229   9.345 -1.5506  1.5520 -1.3135
  141SAPE  H10S15403   2.172   4.126   9.230  0.5414  1.9073 -1.5730
  141SAPE  C21115404   2.386   4.151   9.198 -0.0406  0.0285  0.7076
  141SAPE  H11R15405   2.391   4.095   9.103 -0.8313 -1.4675  1.4988
  141SAPE  C21215406   2.498   4.220   9.223  0.0510 -0.1732  0.6788
  141SAPE  H12R15407   2.579   4.216   9.148 -0.2502  1.9119  0.2013
  141SAPE  C21315408   2.531   4.285   9.354 -0.2248 -0.4277 -0.2834
  141SAPE  H13R15409   2.438   4.321   9.402 -0.4662 -0.1860 -0.9177
  141SAPE  H13S15410   2.583   4.381   9.335 -0.2503 -0.0859  1.2391
  141SAPE  C21415411   2.616   4.204   9.454  0.1880 -1.3737 -0.3653
  141SAPE  H14R15412   2.561   4.161   9.538  3.9031 -1.5797  2.2198
  141SAPE  C21515413   2.754   4.211   9.459  0.0912 -0.3072 -0.0204
  141SAPE  H15R15414   2.816   4.159   9.533  0.0239  0.6975  0.7629
  141SAPE  C21615415   2.836   4.281   9.357 -0.0071 -0.9806  0.3613
  141SAPE  H16R15416   2.906   4.347   9.412  1.6918 -1.9955 -0.4767
  141SAPE  H16S15417   2.775   4.346   9.292  0.9515  0.3089  0.7047
  141SAPE  C21715418   2.921   4.190   9.271 -0.3880 -0.2357  0.4723
  141SAPE  H17R15419   2.865   4.105   9.226 -0.8556 -0.0362  0.6718
  141SAPE  H17S15420   3.008   4.156   9.331 -0.9021  1.1581  2.0827
  141SAPE  C21815421   2.975   4.262   9.145  0.8929  0.2836  0.0887
  141SAPE  H18R15422   3.042   4.207   9.076 -2.7614 -0.9439 -2.8224
  141SAPE  H18S15423   3.031   4.356   9.165  1.1001  0.6672 -2.0652
  141SAPE  C21915424   2.853   4.302   9.043 -0.6122  0.5446  0.5202
  141SAPE  H19R15425   2.780   4.379   9.077 -0.1109  0.7507  1.1664
  141SAPE  H19S15426   2.809   4.202   9.021 -2.0294  1.4658 -1.0123
  141SAPE  C22015427   2.911   4.349   8.911 -0.5603 -0.4682  0.5131
  141SAPE  H20R15428   2.830   4.369   8.837 -0.0743 -3.0218 -0.8301
  141SAPE  H20S15429   2.981   4.273   8.870 -0.6363 -1.1361  1.5691
  141SAPE  H20T15430   2.959   4.447   8.927  0.2453 -0.6595 -0.6273
  141SAPE   C3315431   2.507   3.734   9.959 -0.0738  0.7558 -0.3030
  141SAPE   H3X15432   2.451   3.651   9.911 -1.7344  0.3227  2.1736
  141SAPE   H3Y15433   2.591   3.676  10.001  0.0099  2.0463  1.4278
  141SAPE   C3415434   2.534   3.833   9.840  0.3200 -0.0337 -0.0763
  141SAPE   H4X15435   2.607   3.909   9.875 -1.4282  0.6800  2.2938
  141SAPE   H4Y15436   2.447   3.886   9.795 -0.4652 -3.0532 -2.4840
  141SAPE   C3515437   2.606   3.755   9.727 -0.2782  0.0871 -0.1931
  141SAPE   H5X15438   2.543   3.668   9.701  0.1573  0.5149 -2.9796
  141SAPE   H5Y15439   2.707   3.722   9.760 -1.0317  0.5893  2.9019
  141SAPE   C3615440   2.605   3.823   9.590  0.2275  0.4715 -0.0362
  141SAPE   H6X15441   2.674   3.909   9.602  0.0933  0.4619  0.9435
  141SAPE   H6Y15442   2.500   3.851   9.564 -0.7908 -3.3447 -0.7085
  141SAPE   C3715443   2.663   3.728   9.478 -0.8414 -0.5919  0.4532
  141SAPE   H7X15444   2.603   3.635   9.483  0.6366 -1.6187 -0.3951
  141SAPE   H7Y15445   2.770   3.706   9.493 -0.1966  1.0995 -1.2106
  141SAPE   C3815446   2.658   3.785   9.333  0.4180  0.0852  0.4927
  141SAPE   H8X15447   2.711   3.882   9.324  0.6718 -0.2087 -1.8486
  141SAPE   H8Y15448   2.552   3.805   9.309  1.3144  1.3105 -2.9763
  141SAPE   C3915449   2.717   3.681   9.245 -0.1031  0.6160 -0.8069
  141SAPE   H9X15450   2.664   3.586   9.266 -1.3543  1.4247 -0.1861
  141SAPE   H9Y15451   2.825   3.673   9.269  0.0831  0.7887 -1.5500
  141SAPE  C31015452   2.700   3.726   9.102  0.0670 -0.8635 -0.5907
  141SAPE  H10X15453   2.730   3.830   9.078 -3.3693 -0.0916 -2.1693
  141SAPE  H10Y15454   2.590   3.733   9.091  0.0728  2.1001  0.2030
  141SAPE  C31115455   2.754   3.628   9.004  0.5228  0.6019  0.1906
  141SAPE  H11X15456   2.749   3.523   9.040  1.1256  0.5903  0.2395
  141SAPE  H11Y15457   2.864   3.638   8.992  0.8837 -3.3751 -1.1414
  141SAPE  C31215458   2.696   3.616   8.865 -0.0033  0.2968  0.4816
  141SAPE  H12X15459   2.682   3.714   8.814 -0.3320  0.1149  0.2206
  141SAPE  H12Y15460   2.594   3.574   8.880  0.4551 -1.1412 -0.2799
  141SAPE  C31315461   2.765   3.511   8.764  0.1633  0.0306  0.3732
  141SAPE  H13X15462   2.768   3.416   8.821  0.2002  0.5807  1.3294
  141SAPE  H13Y15463   2.873   3.534   8.750  0.5680 -2.3092 -0.7441
  141SAPE  C31415464   2.706   3.497   8.625  0.0469 -0.0983  0.3639
  141SAPE  H14X15465   2.785   3.457   8.557 -0.8689 -0.1570 -0.7022
  141SAPE  H14Y15466   2.665   3.595   8.592  2.0489  1.2255  1.5734
  141SAPE  C31515467   2.589   3.393   8.627  0.1448 -0.0147 -0.5550
  141SAPE  H15X15468   2.509   3.426   8.697  0.7434  1.1243 -0.3795
  141SAPE  H15Y15469   2.627   3.294   8.662  2.5210  1.0229 -0.0055
  141SAPE  C31615470   2.532   3.384   8.487 -0.4298  0.0029 -0.2910
  141SAPE  H16X15471   2.602   3.331   8.418 -1.5366 -1.0802 -0.6337
  141SAPE  H16Y15472   2.523   3.491   8.460 -2.2277  0.4113  1.6666
  141SAPE  C31715473   2.402   3.316   8.477  0.4746  0.3582 -0.4871
  141SAPE  H17X15474   2.324   3.389   8.508  1.5171  1.1128  0.4441
  141SAPE  H17Y15475   2.401   3.233   8.551  1.8884  2.4918  2.0805
  141SAPE  C31815476   2.357   3.269   8.336  0.0029  0.9189  0.1133
  141SAPE  H18X15477   2.269   3.202   8.342  0.7866  0.0022  2.2198
  141SAPE  H18Y15478   2.435   3.207   8.288  0.3759  1.9626 -0.6751
  141SAPE  H18Z15479   2.345   3.364   8.279  1.8605  1.2663  0.2283
  142SAPE     N15480   3.377   1.634  10.769  1.0029  0.0434  0.6433
  142SAPE   HN115481   3.428   1.544  10.781  0.7300 -0.7191 -2.9704
  142SAPE   HN215482   3.275   1.617  10.778  1.2880 -1.5557  1.2086
  142SAPE   HN315483   3.386   1.663  10.670 -1.0784 -0.9483  0.0945
  142SAPE   C1215484   3.403   1.739  10.874 -0.5346 -0.4731  0.6961
  142SAPE  H12A15485   3.509   1.731  10.906 -0.7908 -2.3304  1.2288
  142SAPE  H12B15486   3.342   1.711  10.963 -0.2021 -0.3325  0.9713
  142SAPE   C1115487   3.378   1.882  10.824 -0.1497  1.1863 -0.6227
  142SAPE  H11A15488   3.269   1.895  10.806 -0.2188 -0.4433 -1.5647
  142SAPE  H11B15489   3.419   1.884  10.721  1.0416 -0.3545 -0.2055
  142SAPE     P15490   3.401   2.128  10.862  0.1351  0.1799 -0.1059
  142SAPE   O1315491   3.258   2.146  10.828 -0.7470 -0.2627 -0.2657
  142SAPE   O1415492   3.445   2.216  10.970 -0.6649  0.7649  0.4296
  142SAPE   O1215493   3.426   1.986  10.912  0.1047 -0.0168 -0.6080
  142SAPE   O1115494   3.501   2.146  10.741 -0.2450  0.5872  0.1434
  142SAPE    C115495   3.636   2.181  10.777 -0.4511  0.2732 -0.0741
  142SAPE    HA15496   3.648   2.291  10.787  1.4001 -0.0294  1.6992
  142SAPE    HB15497   3.672   2.142  10.875 -2.2795 -0.3637  0.3974
  142SAPE    C215498   3.736   2.136  10.664  0.1795 -0.4761 -0.3561
  142SAPE    HS15499   3.829   2.188  10.695 -1.5463  1.4994  1.9774
  142SAPE   O2115500   3.688   2.178  10.529 -0.6810  0.2491 -0.3932
  142SAPE   C2115501   3.789   2.213  10.453  0.0537  0.9463 -0.6019
  142SAPE   O2215502   3.902   2.228  10.488 -0.1285  0.7920  0.2998
  142SAPE   C2215503   3.742   2.239  10.307 -0.2355 -0.2173 -0.2212
  142SAPE   H2R15504   3.749   2.147  10.246 -0.0227 -0.6744  0.4772
  142SAPE   H2S15505   3.634   2.260  10.321  0.2938  1.4175  1.9348
  142SAPE    C315506   3.750   1.980  10.675 -0.2496 -0.5740 -0.7588
  142SAPE    HX15507   3.648   1.939  10.686 -1.5247  2.3368 -0.7595
  142SAPE    HY15508   3.805   1.957  10.769 -2.2553 -2.0706  0.1106
  142SAPE   O3115509   3.816   1.928  10.556 -0.1830  0.0518 -0.1709
  142SAPE   C3115510   3.794   1.795  10.550  0.8134 -0.0791 -0.1459
  142SAPE   O3215511   3.715   1.736  10.624 -0.0947 -0.0644  0.6604
  142SAPE   C3215512   3.896   1.717  10.458 -0.0115 -0.6091 -0.3975
  142SAPE   H2X15513   3.860   1.613  10.445 -0.7754 -0.5603  1.0595
  142SAPE   H2Y15514   3.989   1.699  10.517 -0.6174  2.3864  1.7093
  142SAPE   C2315515   3.815   2.367  10.243  0.1521  0.8299 -0.4636
  142SAPE   H3R15516   3.813   2.447  10.320  1.9046  1.7011 -1.2609
  142SAPE   H3S15517   3.744   2.417  10.174 -3.2333 -0.8282  1.5134
  142SAPE   C2415518   3.950   2.349  10.170 -0.7273  0.5188 -0.4334
  142SAPE   H4R15519   4.020   2.329  10.255 -2.7307 -0.3818  1.1040
  142SAPE   H4S15520   3.972   2.455  10.143 -0.3198 -0.0253 -2.3688
  142SAPE   C2515521   3.954   2.245  10.061  0.2010 -0.0885 -0.0253
  142SAPE   H5R15522   3.916   2.144  10.085  0.6926  0.1632  1.9233
  142SAPE   C2615523   3.987   2.273   9.930 -0.2663  0.5096  0.8931
  142SAPE   H6R15524   3.995   2.191   9.857  0.7256  0.9335  0.5196
  142SAPE   C2715525   4.031   2.400   9.871  0.1112 -0.4358 -0.4225
  142SAPE   H7R15526   4.053   2.486   9.938  0.5689 -0.3982 -0.6154
  142SAPE   H7S15527   3.953   2.440   9.803  1.0036 -0.7600 -1.6642
  142SAPE   C2815528   4.155   2.379   9.784  0.2820 -0.3713  0.0782
  142SAPE   H8R15529   4.254   2.372   9.833  0.6576  1.6159 -0.3101
  142SAPE   C2915530   4.156   2.372   9.652 -0.2545  0.3159  0.3393
  142SAPE   H9R15531   4.255   2.378   9.604 -0.1973  0.4997  0.4806
  142SAPE  C21015532   4.042   2.383   9.559  0.2512  0.2820  0.3388
  142SAPE  H10R15533   3.998   2.485   9.566 -2.4248 -0.8015  0.6122
  142SAPE  H10S15534   3.957   2.319   9.592 -0.6380  1.7560  1.0085
  142SAPE  C21115535   4.075   2.354   9.413 -0.0959 -0.2890 -1.2237
  142SAPE  H11R15536   4.079   2.249   9.379  0.8069 -0.0933 -1.7789
  142SAPE  C21215537   4.141   2.442   9.332  0.5519  0.3318 -0.9780
  142SAPE  H12R15538   4.143   2.426   9.224 -4.3586  1.4502 -1.4418
  142SAPE  C21315539   4.182   2.577   9.392 -0.3799  0.3839 -0.2809
  142SAPE  H13R15540   4.292   2.574   9.412 -0.5849  1.1490  1.0392
  142SAPE  H13S15541   4.146   2.599   9.494 -1.0360  2.7362 -0.9520
  142SAPE  C21415542   4.133   2.698   9.315 -0.1753 -0.0639 -0.4235
  142SAPE  H14R15543   4.036   2.745   9.338  0.7388  0.8460  1.7944
  142SAPE  C21515544   4.195   2.748   9.210 -0.4408  0.3631  0.3488
  142SAPE  H15R15545   4.157   2.842   9.165 -2.0021 -1.0115 -1.3576
  142SAPE  C21615546   4.327   2.708   9.138  0.1388  0.2711  1.0926
  142SAPE  H16R15547   4.362   2.606   9.163 -1.6451 -0.5039  0.5306
  142SAPE  H16S15548   4.404   2.787   9.157  1.8705 -0.9001 -0.6897
  142SAPE  C21715549   4.309   2.714   8.982 -0.3318 -1.2626 -0.4053
  142SAPE  H17R15550   4.294   2.823   8.970 -1.1604 -1.1733  1.1602
  142SAPE  H17S15551   4.214   2.671   8.945 -1.0398  1.1293 -1.5698
  142SAPE  C21815552   4.430   2.665   8.906  0.2123  0.7296  0.2756
  142SAPE  H18R15553   4.398   2.651   8.800  0.2713  0.2817  0.3154
  142SAPE  H18S15554   4.481   2.573   8.942  0.3273  0.3040 -0.9101
  142SAPE  C21915555   4.543   2.761   8.898 -0.1224  0.5711 -0.3153
  142SAPE  H19R15556   4.568   2.793   9.002  1.8932 -1.9949  0.0823
  142SAPE  H19S15557   4.497   2.851   8.852 -1.7331 -0.4960 -0.8632
  142SAPE  C22015558   4.663   2.713   8.815 -1.1865 -0.7257 -0.4533
  142SAPE  H20R15559   4.634   2.656   8.724 -0.7981 -0.3641 -0.8067
  142SAPE  H20S15560   4.723   2.652   8.886  2.4527  2.6355 -0.2698
  142SAPE  H20T15561   4.741   2.791   8.800 -0.5353 -1.3956 -0.6080
  142SAPE   C3315562   3.935   1.787  10.326 -0.8442 -0.0365  0.7607
  142SAPE   H3X15563   3.971   1.892  10.331  0.5206 -0.5168  1.5935
  142SAPE   H3Y15564   3.844   1.791  10.262 -1.3559  0.4866  1.5028
  142SAPE   C3415565   4.052   1.710  10.256  0.1084 -0.5016  0.2570
  142SAPE   H4X15566   4.006   1.611  10.235  0.7267 -1.5092  3.2283
  142SAPE   H4Y15567   4.129   1.707  10.336  0.9279 -1.8029 -0.5514
  142SAPE   C3515568   4.108   1.797  10.137  0.7435  0.4650 -0.2013
  142SAPE   H5X15569   4.214   1.764  10.132  0.8900  0.4314  1.9326
  142SAPE   H5Y15570   4.113   1.907  10.154 -0.1870  0.7855 -1.8340
  142SAPE   C3615571   4.016   1.774  10.017  0.4118  0.9297  0.5111
  142SAPE   H6X15572   3.906   1.766  10.026  0.0118 -0.9476 -3.3970
  142SAPE   H6Y15573   4.046   1.668   9.997 -0.7557  0.8263 -0.8654
  142SAPE   C3715574   4.043   1.860   9.892 -0.7307 -0.0541 -0.3392
  142SAPE   H7X15575   4.148   1.849   9.858 -0.5340  0.3839  0.1106
  142SAPE   H7Y15576   4.029   1.965   9.925 -0.1041 -0.8333  2.7363
  142SAPE   C3815577   3.953   1.824   9.775 -0.1376  0.7761  0.2163
  142SAPE   H8X15578   3.853   1.805   9.819  0.1996  0.6108  0.9184
  142SAPE   H8Y15579   3.987   1.731   9.724 -0.0864 -0.9040  3.1345
  142SAPE   C3915580   3.950   1.929   9.662  0.4177  0.4923 -0.0593
  142SAPE   H9X15581   4.058   1.944   9.640  0.7481 -1.5054  0.0030
  142SAPE   H9Y15582   3.903   2.022   9.701 -3.1242 -1.5518  1.0392
  142SAPE  C31015583   3.886   1.873   9.534 -0.0124  0.1085 -0.6874
  142SAPE  H10X15584   3.778   1.858   9.557 -0.1202  0.2623 -1.0833
  142SAPE  H10Y15585   3.924   1.771   9.510  1.6778  0.7716 -0.9406
  142SAPE  C31115586   3.905   1.962   9.411 -0.5009  0.1961  0.1242
  142SAPE  H11X15587   4.013   1.991   9.415 -0.7285  1.1184  0.0014
  142SAPE  H11Y15588   3.852   2.059   9.424 -1.2958 -0.4761  2.3514
  142SAPE  C31215589   3.868   1.904   9.276 -0.4897 -0.7007  0.7455
  142SAPE  H12X15590   3.765   1.863   9.270 -0.4293 -0.6344 -3.6469
  142SAPE  H12Y15591   3.940   1.824   9.247 -0.6830 -1.1598  1.5094
  142SAPE  C31315592   3.870   2.011   9.162 -0.6000 -0.0911  0.0771
  142SAPE  H13X15593   3.970   2.060   9.166  0.4389 -2.0792 -0.3882
  142SAPE  H13Y15594   3.788   2.082   9.186 -0.9683  0.2328 -1.9750
  142SAPE  C31415595   3.853   1.942   9.019  0.5476 -0.3023 -0.1947
  142SAPE  H14X15596   3.805   2.008   8.944  2.1434 -0.3989 -1.3311
  142SAPE  H14Y15597   3.777   1.861   9.028 -0.1785  0.4559  0.7309
  142SAPE  C31515598   3.981   1.891   8.961  0.2628 -0.1525  0.1644
  142SAPE  H15X15599   4.031   1.843   9.048  1.4899 -0.1047 -0.4951
  142SAPE  H15Y15600   4.042   1.981   8.938  0.0657 -0.0765 -0.0616
  142SAPE  C31615601   3.974   1.801   8.841 -0.6345 -0.6375  0.4942
  142SAPE  H16X15602   3.942   1.696   8.860 -1.0912 -0.9876 -1.8621
  142SAPE  H16Y15603   4.077   1.790   8.802 -0.4537  0.1294  0.7436
  142SAPE  C31715604   3.897   1.860   8.720  0.6322 -0.5914  0.2792
  142SAPE  H17X15605   3.932   1.965   8.706 -1.8931  0.4868  1.3004
  142SAPE  H17Y15606   3.788   1.848   8.737 -0.2181  0.5549 -3.4778
  142SAPE  C31815607   3.930   1.786   8.592 -0.1132  0.1786  0.4770
  142SAPE  H18X15608   3.844   1.781   8.523 -2.1215  3.1947  2.5369
  142SAPE  H18Y15609   3.960   1.682   8.615  1.4024  1.1328  3.3475
  142SAPE  H18Z15610   4.014   1.838   8.540  0.5670 -1.0012  0.3407
  143SAPE     N15611   4.637   3.637  10.759  0.1801  0.0074  0.3049
  143SAPE   HN115612   4.708   3.692  10.707  0.0091 -1.0662 -1.1160
  143SAPE   HN215613   4.656   3.542  10.722  0.0069 -0.4819  1.4323
  143SAPE   HN315614   4.542   3.659  10.722  1.8935  1.7360 -3.6540
  143SAPE   C1215615   4.646   3.645  10.907 -0.2282  0.7221 -0.9463
  143SAPE  H12A15616   4.541   3.632  10.941  0.6466 -0.1786  1.6817
  143SAPE  H12B15617   4.686   3.744  10.935  0.5425 -0.0071  0.6838
  143SAPE   C1115618   4.746   3.531  10.964 -0.1256  0.5030  0.4613
  143SAPE  H11A15619   4.695   3.434  10.942  1.7646 -0.4779  0.2087
  143SAPE  H11B15620   4.751   3.525  11.075 -0.3028 -3.5366  0.3964
  143SAPE     P15621   4.985   3.433  10.923 -0.0773  0.2311 -0.1065
  143SAPE   O1315622   5.100   3.498  10.988  0.6179 -0.2774 -0.1190
  143SAPE   O1415623   4.932   3.319  10.996 -0.3068 -0.0357  0.1368
  143SAPE   O1215624   4.873   3.537  10.898 -0.9059  0.2142  0.4274
  143SAPE   O1115625   5.009   3.386  10.769 -0.5077  0.1456 -0.0529
  143SAPE    C115626   5.134   3.409  10.712  0.1378 -0.8291  0.1315
  143SAPE    HA15627   5.218   3.425  10.783 -0.1895  0.3109  0.2884
  143SAPE    HB15628   5.163   3.329  10.641 -0.4679 -0.7082 -0.2640
  143SAPE    C215629   5.126   3.535  10.620  0.7010  0.1867 -0.4324
  143SAPE    HS15630   5.092   3.618  10.686  0.7562 -1.2690  1.4956
  143SAPE   O2115631   5.038   3.518  10.511  0.6634 -0.0599 -0.1017
  143SAPE   C2115632   4.961   3.614  10.462  0.7230  0.1396  0.7090
  143SAPE   O2215633   4.932   3.719  10.513  0.3834  0.5552 -0.6149
  143SAPE   C2215634   4.906   3.565  10.329 -0.2483 -0.4054 -0.0082
  143SAPE   H2R15635   4.983   3.500  10.282  0.2745  1.8844 -2.6090
  143SAPE   H2S15636   4.809   3.513  10.346 -0.3314 -0.3245 -0.2283
  143SAPE    C315637   5.275   3.570  10.569 -0.5420 -0.2863  0.3192
  143SAPE    HX15638   5.304   3.472  10.525 -0.4097  0.0609 -0.3771
  143SAPE    HY15639   5.341   3.590  10.656  1.7807 -1.2749 -1.1166
  143SAPE   O3115640   5.269   3.667  10.466 -0.3449 -0.1894 -1.1571
  143SAPE   C3115641   5.385   3.691  10.404  0.3444  0.7758 -0.1814
  143SAPE   O3215642   5.488   3.629  10.425 -0.0927 -0.1169 -0.3616
  143SAPE   C3215643   5.373   3.803  10.300 -0.1108  0.2521 -0.1636
  143SAPE   H2X15644   5.393   3.897  10.355  1.9273  0.6826 -1.5169
  143SAPE   H2Y15645   5.269   3.807  10.261  0.0356  0.4912 -0.5364
  143SAPE   C2315646   4.890   3.678  10.230 -0.3667 -0.7742  0.2315
  143SAPE   H3R15647   4.993   3.701  10.194 -1.0052  0.1398 -1.1151
  143SAPE   H3S15648   4.845   3.771  10.272  0.5350 -0.7778  1.2517
  143SAPE   C2415649   4.813   3.627  10.098 -0.2219  0.1044 -0.1346
  143SAPE   H4R15650   4.711   3.599  10.132 -0.9649  2.5017 -0.1734
  143SAPE   H4S15651   4.863   3.539  10.054  0.5478  1.1161 -1.3855
  143SAPE   C2515652   4.821   3.745  10.004 -0.0671  0.2049 -0.2734
  143SAPE   H5R15653   4.831   3.843  10.055  1.1708  0.6576 -1.3175
  143SAPE   C2615654   4.812   3.736   9.873 -0.0020 -0.1109  0.1906
  143SAPE   H6R15655   4.829   3.828   9.816  0.0420 -0.6023 -0.6073
  143SAPE   C2715656   4.789   3.620   9.778 -0.2865  0.1796 -0.4031
  143SAPE   H7R15657   4.849   3.535   9.819 -1.1411  0.0842  0.6685
  143SAPE   H7S15658   4.809   3.632   9.669 -0.7311 -2.0690 -0.7780
  143SAPE   C2815659   4.640   3.587   9.775 -0.1883 -0.0933  0.8231
  143SAPE   H8R15660   4.594   3.609   9.872  0.2193 -0.0098  0.9991
  143SAPE   C2915661   4.567   3.547   9.668  0.9988  0.3765 -0.0758
  143SAPE   H9R15662   4.458   3.533   9.680  1.2638  0.3172  3.3992
  143SAPE  C21015663   4.608   3.529   9.528 -0.3319  0.4281 -0.8314
  143SAPE  H10R15664   4.579   3.430   9.488  1.4945 -0.4683 -0.0607
  143SAPE  H10S15665   4.719   3.526   9.528 -0.3479 -0.4334  0.1035
  143SAPE  C21115666   4.567   3.639   9.434  0.0626 -0.1168 -0.6653
  143SAPE  H11R15667   4.645   3.716   9.432 -0.0135 -0.0208 -0.0562
  143SAPE  C21215668   4.442   3.663   9.380  0.1341  0.7332 -0.3066
  143SAPE  H12R15669   4.436   3.740   9.302 -1.0700  0.3126 -0.6642
  143SAPE  C21315670   4.329   3.572   9.396  0.3966  0.1771  0.4424
  143SAPE  H13R15671   4.317   3.527   9.497 -1.1394 -1.8638 -0.5650
  143SAPE  H13S15672   4.364   3.498   9.322  0.3726  2.5236 -2.1024
  143SAPE  C21415673   4.195   3.623   9.343  0.7729  0.2748 -0.0173
  143SAPE  H14R15674   4.131   3.663   9.424  0.5499 -0.0727 -0.0215
  143SAPE  C21515675   4.140   3.623   9.219  0.5845 -0.2996 -0.0014
  143SAPE  H15R15676   4.044   3.673   9.202  0.7030 -0.4690 -1.2566
  143SAPE  C21615677   4.210   3.569   9.095 -0.5137 -0.2857 -0.4873
  143SAPE  H16R15678   4.132   3.519   9.034 -0.8917 -0.5628  0.2133
  143SAPE  H16S15679   4.286   3.493   9.123 -0.5400  0.4883  1.9461
  143SAPE  C21715680   4.291   3.675   9.028 -0.2096 -0.2802  0.2296
  143SAPE  H17R15681   4.367   3.716   9.096 -1.1804 -0.9302  1.7610
  143SAPE  H17S15682   4.219   3.758   9.013 -0.5783 -0.4932  0.7765
  143SAPE  C21815683   4.348   3.633   8.897  0.0433  0.1235  0.0543
  143SAPE  H18R15684   4.280   3.560   8.849  0.6277  0.4009 -1.2440
  143SAPE  H18S15685   4.448   3.587   8.911  1.1185  1.8746 -1.4118
  143SAPE  C21915686   4.388   3.754   8.821  0.4836 -0.3449  0.1132
  143SAPE  H19R15687   4.499   3.764   8.823  0.4616 -0.2154  0.8169
  143SAPE  H19S15688   4.341   3.848   8.855 -0.9736 -0.9793 -0.0865
  143SAPE  C22015689   4.343   3.746   8.673 -0.0260 -0.3301 -0.1977
  143SAPE  H20R15690   4.405   3.678   8.610 -0.3111 -2.2350  1.4727
  143SAPE  H20S15691   4.345   3.846   8.624  0.6241 -0.2402  0.0020
  143SAPE  H20T15692   4.239   3.707   8.663 -0.8100  1.1967  1.5570
  143SAPE   C3315693   5.491   3.807  10.198  0.5321 -0.2796 -0.9745
  143SAPE   H3X15694   5.489   3.714  10.138 -1.9431 -0.8540 -0.1100
  143SAPE   H3Y15695   5.594   3.804  10.241  0.2710  0.6102 -0.2516
  143SAPE   C3415696   5.482   3.930  10.106  0.5389  0.0674 -0.3832
  143SAPE   H4X15697   5.548   4.008  10.149  0.6809 -0.1742 -0.1567
  143SAPE   H4Y15698   5.384   3.980  10.099  0.6864  1.1115  3.0928
  143SAPE   C3515699   5.533   3.902   9.962  0.8623  0.0023 -0.6681
  143SAPE   H5X15700   5.475   3.823   9.910 -0.8850  0.9252 -0.1654
  143SAPE   H5Y15701   5.638   3.864   9.970 -0.1278 -2.7188  0.6763
  143SAPE   C3615702   5.536   4.012   9.861 -0.2272 -0.6961  0.3142
  143SAPE   H6X15703   5.631   4.063   9.886  0.4825 -1.7379 -0.1729
  143SAPE   H6Y15704   5.443   4.074   9.862  0.9614  1.1585  0.0801
  143SAPE   C3715705   5.565   3.965   9.719  0.2305 -0.0000  0.1469
  143SAPE   H7X15706   5.484   3.893   9.695 -1.2262  0.9219  2.0003
  143SAPE   H7Y15707   5.659   3.907   9.707  1.2303  1.7181 -0.5750
  143SAPE   C3815708   5.568   4.080   9.619  0.3846 -0.2049  0.4214
  143SAPE   H8X15709   5.651   4.149   9.644  0.8501 -0.7815  0.4847
  143SAPE   H8Y15710   5.473   4.138   9.617 -0.0094 -0.8721 -1.1870
  143SAPE   C3915711   5.599   4.039   9.474  0.1014 -0.2124  0.1616
  143SAPE   H9X15712   5.530   3.962   9.433  0.9945 -1.1929  0.4516
  143SAPE   H9Y15713   5.697   3.988   9.475  0.1645 -0.2204  2.8357
  143SAPE  C31015714   5.611   4.160   9.377  0.1998 -0.8414  0.4377
  143SAPE  H10X15715   5.701   4.219   9.402 -0.2964 -0.3992  1.2213
  143SAPE  H10Y15716   5.517   4.219   9.368 -1.0870 -2.9836 -1.0609
  143SAPE  C31115717   5.651   4.101   9.237  0.5696  0.7370  0.2805
  143SAPE  H11X15718   5.575   4.030   9.199  0.9117 -0.3792  1.5944
  143SAPE  H11Y15719   5.748   4.047   9.235 -0.8819 -1.9992 -0.1888
  143SAPE  C31215720   5.649   4.212   9.125  0.2774  0.1380 -0.7771
  143SAPE  H12X15721   5.656   4.163   9.026 -0.1972  0.5641 -1.0310
  143SAPE  H12Y15722   5.737   4.279   9.137  0.6455 -0.2857 -1.0593
  143SAPE  C31315723   5.520   4.301   9.118 -0.1297  0.3524 -0.4337
  143SAPE  H13X15724   5.526   4.356   9.214 -0.7699  1.4870 -1.0248
  143SAPE  H13Y15725   5.436   4.229   9.121  1.0248 -1.0197  0.0496
  143SAPE  C31415726   5.523   4.412   9.012  0.0998  0.6334  0.4232
  143SAPE  H14X15727   5.609   4.479   9.034  0.0787 -0.0347  2.8110
  143SAPE  H14Y15728   5.429   4.467   9.038 -0.8548 -1.2666  1.1484
  143SAPE  C31515729   5.508   4.352   8.869 -0.3332 -0.2311  0.0717
  143SAPE  H15X15730   5.402   4.324   8.853 -0.5249 -0.0602  0.9756
  143SAPE  H15Y15731   5.570   4.259   8.864  0.9351  0.5945 -0.0870
  143SAPE  C31615732   5.571   4.444   8.766 -0.4042 -0.7506  0.0876
  143SAPE  H16X15733   5.546   4.401   8.667 -2.6746 -0.2699  0.3967
  143SAPE  H16Y15734   5.681   4.437   8.785 -0.3530 -1.2259 -0.3693
  143SAPE  C31715735   5.527   4.599   8.767  0.1199 -0.5442  0.3291
  143SAPE  H17X15736   5.568   4.651   8.678  0.0128  1.7359  1.5486
  143SAPE  H17Y15737   5.576   4.643   8.856 -0.5183  1.9821 -0.4936
  143SAPE  C31815738   5.379   4.631   8.779  0.2143 -0.0635  0.6009
  143SAPE  H18X15739   5.366   4.741   8.790 -2.7123 -0.3256  0.4443
  143SAPE  H18Y15740   5.330   4.584   8.867 -0.5441 -0.9143 -0.2612
  143SAPE  H18Z15741   5.320   4.591   8.694 -2.0172  2.0177  1.0538
  144SAPE     N15742   0.255   1.233  10.923 -0.4873 -0.1322  0.2559
  144SAPE   HN115743   0.154   1.233  10.899 -0.4800  1.5054  0.1228
  144SAPE   HN215744   0.280   1.297  11.001  0.5659  0.1842 -0.3185
  144SAPE   HN315745   0.308   1.256  10.837  2.7444  1.2320  2.3924
  144SAPE   C1215746   0.290   1.076  10.943 -0.0907 -0.3188  0.0846
  144SAPE  H12A15747   0.217   1.047  11.022 -0.4161  1.1498  0.3568
  144SAPE  H12B15748   0.393   1.066  10.983  0.3368  0.5093 -0.7617
  144SAPE   C1115749   0.263   0.990  10.815 -0.0587  0.4365  0.6228
  144SAPE  H11A15750   0.320   1.026  10.727 -2.1221 -1.0784 -1.4592
  144SAPE  H11B15751   0.154   0.989  10.791  0.3952  1.8441 -1.9004
  144SAPE     P15752   0.439   0.791  10.810  0.2536  0.5946  0.6583
  144SAPE   O1315753   0.545   0.865  10.869 -0.6719 -0.0505 -0.8001
  144SAPE   O1415754   0.429   0.652  10.851  0.4297 -0.0172  0.2670
  144SAPE   O1215755   0.304   0.859  10.848  0.1970  0.1091  0.2960
  144SAPE   O1115756   0.450   0.794  10.655  0.1873 -0.0282 -0.0289
  144SAPE    C115757   0.346   0.746  10.566  0.1336 -0.0741  0.2281
  144SAPE    HA15758   0.312   0.646  10.599 -0.4455 -0.0017 -0.1326
  144SAPE    HB15759   0.257   0.812  10.571 -0.5325 -0.8131 -1.3268
  144SAPE    C215760   0.382   0.759  10.412  0.5389 -0.9121  0.4232
  144SAPE    HS15761   0.296   0.811  10.367  1.3833  0.4323  0.2993
  144SAPE   O2115762   0.401   0.633  10.352 -0.2820 -0.7558  0.5254
  144SAPE   C2115763   0.295   0.557  10.351 -0.5792  0.2441  0.9432
  144SAPE   O2215764   0.185   0.586  10.388 -0.1940  0.4335  0.2645
  144SAPE   C2215765   0.334   0.428  10.283  0.2943 -0.1868  1.3808
  144SAPE   H2R15766   0.437   0.434  10.242  0.8392  1.8523  2.8721
  144SAPE   H2S15767   0.341   0.343  10.355  0.0642 -2.0231 -0.6832
  144SAPE    C315768   0.512   0.847  10.395 -0.0068  0.7187  0.1845
  144SAPE    HX15769   0.594   0.798  10.452  1.4040  0.4531 -1.9610
  144SAPE    HY15770   0.481   0.944  10.439 -0.6746  0.0626  1.1944
  144SAPE   O3115771   0.552   0.860  10.254 -0.3578 -0.0656 -0.0587
  144SAPE   C3115772   0.662   0.941  10.239 -0.5499  0.3465  0.3140
  144SAPE   O3215773   0.716   1.009  10.325  0.3272 -0.0599  0.3947
  144SAPE   C3215774   0.731   0.929  10.094  0.2493  0.4665 -0.4545
  144SAPE   H2X15775   0.833   0.890  10.115  0.3227  0.7720 -0.2399
  144SAPE   H2Y15776   0.735   1.036  10.066 -2.1467  0.7032 -0.1114
  144SAPE   C2315777   0.240   0.378  10.170 -0.3665 -0.2438 -0.3123
  144SAPE   H3R15778   0.138   0.375  10.215 -0.6165  1.8596 -0.6551
  144SAPE   H3S15779   0.268   0.272  10.152  2.6800  0.3890  0.1585
  144SAPE   C2415780   0.242   0.455  10.042  0.2353  0.4029  0.0215
  144SAPE   H4R15781   0.201   0.557  10.057  2.1700  1.4398 -1.3548
  144SAPE   H4S15782   0.177   0.398   9.971 -0.4951 -1.3592  2.0090
  144SAPE   C2515783   0.380   0.453   9.981  0.0107  0.4464  0.5321
  144SAPE   H5R15784   0.462   0.427  10.050  0.9335  0.4074 -0.5397
  144SAPE   C2615785   0.405   0.475   9.850  0.4089 -0.0282 -0.6697
  144SAPE   H6R15786   0.511   0.473   9.820  1.3017 -1.5519  2.1372
  144SAPE   C2715787   0.307   0.513   9.742 -0.7173  0.0820 -0.1112
  144SAPE   H7R15788   0.369   0.565   9.666 -0.1867 -0.0237  0.2434
  144SAPE   H7S15789   0.225   0.575   9.784 -0.9793  0.4731 -1.1631
  144SAPE   C2815790   0.251   0.387   9.685 -0.2671 -0.2913 -0.4622
  144SAPE   H8R15791   0.202   0.329   9.764  0.9174  0.2718  0.7190
  144SAPE   C2915792   0.271   0.342   9.562  0.9937  0.3951 -0.8611
  144SAPE   H9R15793   0.215   0.248   9.553  1.7348 -0.5015  2.4654
  144SAPE  C21015794   0.351   0.404   9.452 -0.7705  0.1716  0.2928
  144SAPE  H10R15795   0.311   0.507   9.440  1.7010  0.9903 -1.9417
  144SAPE  H10S15796   0.335   0.361   9.351  0.7835  0.3594 -0.0735
  144SAPE  C21115797   0.499   0.411   9.479 -0.3580  0.1918  0.7298
  144SAPE  H11R15798   0.529   0.407   9.585  1.3331 -1.4974  0.2486
  144SAPE  C21215799   0.597   0.411   9.390 -0.2401 -0.1455  0.5092
  144SAPE  H12R15800   0.702   0.408   9.425 -0.0775  0.3928  0.0866
  144SAPE  C21315801   0.582   0.398   9.234 -0.6856  0.1990 -0.4751
  144SAPE  H13R15802   0.485   0.440   9.200 -0.6195 -0.3665 -1.4102
  144SAPE  H13S15803   0.578   0.288   9.216  1.2277  0.2746 -1.7306
  144SAPE  C21415804   0.703   0.449   9.166  0.2001  0.1247 -0.6312
  144SAPE  H14R15805   0.770   0.504   9.233 -2.9642  0.0160  2.9314
  144SAPE  C21515806   0.734   0.450   9.039  0.5232 -0.0551  0.1066
  144SAPE  H15R15807   0.831   0.496   9.015 -0.3657  1.2920 -1.0513
  144SAPE  C21615808   0.664   0.385   8.917  0.1462 -0.0143  0.0017
  144SAPE  H16R15809   0.579   0.318   8.944  0.4292  0.3794  2.0211
  144SAPE  H16S15810   0.748   0.337   8.864 -0.4870  0.4438 -1.4568
  144SAPE  C21715811   0.598   0.488   8.813 -0.4195  0.0935 -0.2176
  144SAPE  H17R15812   0.669   0.568   8.783 -0.6774  0.3658 -0.1164
  144SAPE  H17S15813   0.514   0.536   8.868 -0.8487  0.5189 -1.2266
  144SAPE  C21815814   0.551   0.419   8.685  0.5336 -0.2345  0.2608
  144SAPE  H18R15815   0.482   0.479   8.621  1.0814 -2.8693 -3.0828
  144SAPE  H18S15816   0.495   0.325   8.705  0.7270 -0.3880  0.0839
  144SAPE  C21915817   0.669   0.382   8.593  0.4251 -0.1495  0.4698
  144SAPE  H19R15818   0.740   0.311   8.641 -1.5134 -1.7618  1.1044
  144SAPE  H19S15819   0.726   0.474   8.570  0.2140 -0.6300 -2.4230
  144SAPE  C22015820   0.620   0.326   8.466 -0.9090 -0.1619  0.0806
  144SAPE  H20R15821   0.705   0.303   8.397 -1.5594 -2.4455 -0.0430
  144SAPE  H20S15822   0.548   0.391   8.412  1.8749  0.1405 -3.7083
  144SAPE  H20T15823   0.575   0.225   8.479  2.0011 -1.7746 -1.2246
  144SAPE   C3315824   0.649   0.838   9.992  0.4373 -0.5651  0.9894
  144SAPE   H3X15825   0.548   0.885   9.987  1.1656  0.9852 -0.0026
  144SAPE   H3Y15826   0.639   0.733  10.026 -0.7664 -1.5710 -2.0683
  144SAPE   C3415827   0.711   0.847   9.851  0.3273 -0.1608  0.0621
  144SAPE   H4X15828   0.817   0.815   9.851  0.1485 -0.8888 -1.8941
  144SAPE   H4Y15829   0.712   0.955   9.826 -1.1472  0.1107  1.0118
  144SAPE   C3515830   0.640   0.755   9.751  0.1807 -0.2809 -0.0213
  144SAPE   H5X15831   0.547   0.810   9.726 -0.4533 -0.7510  1.2257
  144SAPE   H5Y15832   0.614   0.664   9.809 -2.1448  0.0875 -0.3843
  144SAPE   C3615833   0.709   0.719   9.614 -0.0037 -0.2992  0.6022
  144SAPE   H6X15834   0.634   0.657   9.559 -0.1867  1.1553 -0.8540
  144SAPE   H6Y15835   0.801   0.660   9.634 -1.0742 -2.4858 -0.4801
  144SAPE   C3715836   0.747   0.839   9.526  0.0878  0.2596  0.2827
  144SAPE   H7X15837   0.825   0.890   9.585 -0.7264  1.0925  0.6713
  144SAPE   H7Y15838   0.664   0.914   9.517  0.8258  0.9461 -1.3133
  144SAPE   C3815839   0.798   0.795   9.388 -0.4221 -0.6388  0.4472
  144SAPE   H8X15840   0.727   0.720   9.348  0.2457 -1.1340  0.1727
  144SAPE   H8Y15841   0.895   0.744   9.408 -0.1179  0.0286  0.7266
  144SAPE   C3915842   0.832   0.900   9.283  0.3034 -0.4390  0.2839
  144SAPE   H9X15843   0.909   0.960   9.336 -1.6807  0.9732  1.6656
  144SAPE   H9Y15844   0.746   0.968   9.266 -0.6098 -1.4674  0.7036
  144SAPE  C31015845   0.886   0.831   9.156 -0.2991 -0.2274 -0.3010
  144SAPE  H10X15846   0.804   0.765   9.122  0.7642 -0.4386 -2.6931
  144SAPE  H10Y15847   0.972   0.766   9.185 -0.1804 -0.1074 -0.3802
  144SAPE  C31115848   0.911   0.939   9.051 -0.6690  0.2171 -0.0547
  144SAPE  H11X15849   0.983   1.014   9.091 -0.1368  0.0119 -0.6184
  144SAPE  H11Y15850   0.820   0.998   9.024  0.7428  1.7090 -1.8524
  144SAPE  C31215851   0.977   0.875   8.924  0.1189 -0.1518 -0.5635
  144SAPE  H12X15852   1.070   0.830   8.966 -0.5582  0.6948  2.0469
  144SAPE  H12Y15853   1.015   0.950   8.851 -2.0961  0.3408 -1.2723
  144SAPE  C31315854   0.892   0.773   8.842  0.6232 -0.4741  0.3870
  144SAPE  H13X15855   0.810   0.834   8.798  1.7053 -0.3991 -1.6768
  144SAPE  H13Y15856   0.835   0.697   8.898 -0.1706 -0.4463 -0.3628
  144SAPE  C31415857   0.969   0.713   8.726 -1.0179  0.0583 -0.3179
  144SAPE  H14X15858   1.037   0.783   8.673 -0.2489 -0.1038  0.4395
  144SAPE  H14Y15859   0.896   0.670   8.654 -1.2414 -1.3165  0.6976
  144SAPE  C31515860   1.071   0.612   8.776  0.2709  0.2981 -0.3635
  144SAPE  H15X15861   1.018   0.531   8.830  0.9560  1.4556  2.2091
  144SAPE  H15Y15862   1.136   0.655   8.855 -0.0102  0.7373 -0.3685
  144SAPE  C31615863   1.157   0.555   8.659 -0.4009 -0.0348  0.4602
  144SAPE  H16X15864   1.229   0.481   8.698  1.2194  1.4570  0.4378
  144SAPE  H16Y15865   1.209   0.636   8.603 -0.5317  0.1755  0.6387
  144SAPE  C31715866   1.074   0.469   8.555  0.1752 -0.2155  0.7724
  144SAPE  H17X15867   1.018   0.534   8.485  0.2791  0.3106  1.1746
  144SAPE  H17Y15868   0.992   0.410   8.603 -0.3956  0.5568  0.7620
  144SAPE  C31815869   1.160   0.368   8.481 -0.3036 -0.5812 -0.8236
  144SAPE  H18X15870   1.231   0.420   8.413  0.3437  1.8994  1.5693
  144SAPE  H18Y15871   1.096   0.293   8.430  0.9131 -2.3311  0.1152
  144SAPE  H18Z15872   1.229   0.306   8.543 -0.1320 -0.1306 -0.5595
  145SAPE     N15873   4.573   1.678  11.050 -0.3447  0.2896  0.0775
  145SAPE   HN115874   4.550   1.763  11.106  1.6115  0.6239  0.4501
  145SAPE   HN215875   4.482   1.658  11.004  0.0712  2.0752 -1.6545
  145SAPE   HN315876   4.582   1.593  11.108  0.0179  0.0872 -0.2680
  145SAPE   C1215877   4.669   1.701  10.939  0.6663  0.4842  0.0470
  145SAPE  H12A15878   4.644   1.797  10.889  0.7774 -0.4767 -1.9952
  145SAPE  H12B15879   4.656   1.626  10.858  2.4399  0.0940  0.0945
  145SAPE   C1115880   4.812   1.695  10.982  0.7044  0.6395  0.4156
  145SAPE  H11A15881   4.826   1.788  11.040  3.4650  1.7760 -1.8393
  145SAPE  H11B15882   4.882   1.697  10.895 -0.0157  0.4732 -0.1764
  145SAPE     P15883   4.962   1.496  11.054 -0.4584  0.0712  0.0838
  145SAPE   O1315884   5.078   1.567  11.108 -0.3679  0.0584  0.4035
  145SAPE   O1415885   4.928   1.364  11.115 -0.7683 -0.0076 -0.2263
  145SAPE   O1215886   4.833   1.582  11.066 -0.1361 -0.8423 -1.1225
  145SAPE   O1115887   4.978   1.474  10.899 -0.2634 -0.7286 -0.6658
  145SAPE    C115888   4.889   1.397  10.818 -0.1152  0.0728 -0.1136
  145SAPE    HA15889   4.786   1.393  10.859 -0.5468 -1.3317 -1.2539
  145SAPE    HB15890   4.884   1.450  10.720  0.6777  0.4938  0.0620
  145SAPE    C215891   4.950   1.255  10.790  0.1543  0.2256  0.4595
  145SAPE    HS15892   4.976   1.216  10.891  0.4188  0.5505  0.5154
  145SAPE   O2115893   5.063   1.265  10.712  0.5398  0.3680 -0.4736
  145SAPE   C2115894   5.152   1.167  10.727  0.0055  0.0287 -0.1843
  145SAPE   O2215895   5.149   1.081  10.812 -0.8669 -0.0475 -0.1575
  145SAPE   C2215896   5.268   1.196  10.629 -0.1767 -0.1709 -0.0658
  145SAPE   H2R15897   5.326   1.285  10.663  2.5484 -1.9904  0.3530
  145SAPE   H2S15898   5.334   1.107  10.623  0.0746  0.0199 -0.1894
  145SAPE    C315899   4.849   1.159  10.724 -0.0117 -0.5465  0.2823
  145SAPE    HX15900   4.753   1.169  10.780  0.4129  0.7969  0.8301
  145SAPE    HY15901   4.884   1.054  10.724  1.1515 -0.1822 -1.0710
  145SAPE   O3115902   4.832   1.203  10.589  1.1054 -0.2261  0.1908
  145SAPE   C3115903   4.720   1.265  10.549 -0.3077  0.3932  0.0161
  145SAPE   O3215904   4.620   1.276  10.613 -0.0053  0.1987  0.0987
  145SAPE   C3215905   4.737   1.302  10.407  0.7523  0.1994  0.4938
  145SAPE   H2X15906   4.846   1.300  10.390  0.9561 -0.1298  1.7011
  145SAPE   H2Y15907   4.705   1.408  10.398  0.3598 -0.0691 -1.7326
  145SAPE   C2315908   5.228   1.246  10.484  0.0517  0.7667 -0.5844
  145SAPE   H3R15909   5.325   1.282  10.445  1.3156  0.1130  1.7834
  145SAPE   H3S15910   5.161   1.335  10.486 -0.1077  0.6369 -0.0844
  145SAPE   C2415911   5.180   1.127  10.398 -0.0988 -0.1422  0.2486
  145SAPE   H4R15912   5.125   1.172  10.312 -0.1276  1.7039  1.1949
  145SAPE   H4S15913   5.101   1.065  10.446  0.5635 -0.6250  0.7177
  145SAPE   C2515914   5.288   1.034  10.355  0.0948  0.1236  0.4393
  145SAPE   H5R15915   5.324   0.973  10.439 -0.7439 -2.0724 -0.7157
  145SAPE   C2615916   5.333   1.003  10.235 -0.4519  0.2478 -0.0335
  145SAPE   H6R15917   5.422   0.938  10.230 -1.4729 -1.2378  0.3146
  145SAPE   C2715918   5.284   1.071  10.110  0.1058 -0.3487 -0.0211
  145SAPE   H7R15919   5.242   1.172  10.131 -0.9366 -0.9766  1.0598
  145SAPE   H7S15920   5.206   1.008  10.061  1.6736 -1.9010 -0.6257
  145SAPE   C2815921   5.388   1.095  10.004 -0.0732  0.2490 -0.0650
  145SAPE   H8R15922   5.494   1.083  10.031  0.5026  3.6524 -0.3730
  145SAPE   C2915923   5.364   1.129   9.877  1.2169  0.0228 -0.3490
  145SAPE   H9R15924   5.446   1.154   9.808  0.1198  1.6642 -1.1091
  145SAPE  C21015925   5.229   1.159   9.812 -0.1145  1.0681 -0.7468
  145SAPE  H10R15926   5.162   1.155   9.900  0.9442 -1.4734  0.0218
  145SAPE  H10S15927   5.195   1.076   9.746  2.7543 -0.4044 -0.5337
  145SAPE  C21115928   5.220   1.292   9.741  0.2909 -0.1040 -0.4610
  145SAPE  H11R15929   5.215   1.374   9.814  1.2491 -0.2770 -0.1913
  145SAPE  C21215930   5.207   1.313   9.614 -0.8132  0.3951 -0.3770
  145SAPE  H12R15931   5.198   1.417   9.580  0.4589  1.2626  1.7823
  145SAPE  C21315932   5.200   1.211   9.501  0.5617  1.2216  0.3054
  145SAPE  H13R15933   5.178   1.110   9.541 -0.3912  1.1856 -0.2782
  145SAPE  H13S15934   5.302   1.211   9.457  0.8048  1.0922  0.8628
  145SAPE  C21415935   5.091   1.234   9.404 -0.6253  0.5005 -0.0656
  145SAPE  H14R15936   4.995   1.189   9.433  0.9625  0.1851  5.8147
  145SAPE  C21515937   5.106   1.289   9.283 -0.6658  0.3248 -0.5908
  145SAPE  H15R15938   5.021   1.332   9.227 -0.5007  2.1371  0.4620
  145SAPE  C21615939   5.235   1.338   9.234  0.7087 -0.4000  0.3597
  145SAPE  H16R15940   5.296   1.250   9.205 -0.3696 -0.5828 -1.5244
  145SAPE  H16S15941   5.304   1.389   9.305 -0.1441  2.4740 -0.7066
  145SAPE  C21715942   5.233   1.431   9.110  0.1526  0.3603  0.3568
  145SAPE  H17R15943   5.177   1.386   9.025  0.1896 -0.0856  0.5671
  145SAPE  H17S15944   5.338   1.439   9.071 -0.1364  2.1353 -0.1550
  145SAPE  C21815945   5.175   1.575   9.135 -0.2539  0.5062  0.1789
  145SAPE  H18R15946   5.253   1.630   9.192  0.5493  0.8807 -1.2330
  145SAPE  H18S15947   5.089   1.564   9.204  0.6300 -0.6645  1.1315
  145SAPE  C21915948   5.147   1.655   9.009 -0.1643  0.0672  0.0382
  145SAPE  H19R15949   5.056   1.602   8.971 -0.1588 -1.1975  1.6649
  145SAPE  H19S15950   5.234   1.644   8.941  0.4449 -0.6750  0.9189
  145SAPE  C22015951   5.104   1.801   9.030 -0.3793 -0.1453  0.1895
  145SAPE  H20R15952   5.184   1.852   9.087  2.4563 -2.5511 -1.3277
  145SAPE  H20S15953   5.011   1.814   9.089 -0.4936  0.7207 -0.1725
  145SAPE  H20T15954   5.087   1.841   8.928  0.1643  0.5930  0.3789
  145SAPE   C3315955   4.670   1.206  10.304  0.1314  0.5394 -0.7630
  145SAPE   H3X15956   4.562   1.196  10.326  0.1515 -1.6477 -1.4012
  145SAPE   H3Y15957   4.721   1.107  10.306  0.9506  0.9573  0.5879
  145SAPE   C3415958   4.669   1.255  10.154  0.1166  0.1319 -0.6121
  145SAPE   H4X15959   4.771   1.281  10.118  0.9311  0.5981  1.8317
  145SAPE   H4Y15960   4.622   1.355  10.161  1.3424  0.5891  2.2896
  145SAPE   C3515961   4.593   1.165  10.057  0.2293  0.6658 -0.2226
  145SAPE   H5X15962   4.488   1.158  10.093  0.2691  1.4433  0.0850
  145SAPE   H5Y15963   4.645   1.067  10.062 -0.7798  0.1511  0.7867
  145SAPE   C3615964   4.594   1.194   9.899 -0.5856 -0.1145 -0.7889
  145SAPE   H6X15965   4.611   1.303   9.883 -3.6924  0.5407 -0.2489
  145SAPE   H6Y15966   4.509   1.161   9.836 -1.1073  0.8387 -0.6144
  145SAPE   C3715967   4.722   1.125   9.837 -0.7478  0.5260  0.3436
  145SAPE   H7X15968   4.712   1.014   9.841 -0.4942  0.4366 -1.0313
  145SAPE   H7Y15969   4.813   1.154   9.894  0.0267 -2.3103  0.7448
  145SAPE   C3815970   4.739   1.157   9.689 -0.5691  0.0008  0.6416
  145SAPE   H8X15971   4.832   1.107   9.655 -1.5093 -1.0388 -0.4895
  145SAPE   H8Y15972   4.755   1.263   9.662  1.1908 -0.6003 -0.9117
  145SAPE   C3915973   4.620   1.117   9.597 -0.3329 -0.6550  0.4479
  145SAPE   H9X15974   4.546   1.200   9.606 -0.4205 -0.5756 -0.8445
  145SAPE   H9Y15975   4.584   1.025   9.646  0.6080 -0.6785  1.1212
  145SAPE  C31015976   4.654   1.089   9.452  0.2181 -0.4949  0.9907
  145SAPE  H10X15977   4.560   1.058   9.403 -0.2483  0.9089  0.9551
  145SAPE  H10Y15978   4.734   1.012   9.460  2.1743  1.4169  1.0106
  145SAPE  C31115979   4.676   1.220   9.376 -0.5035 -0.6571  0.1702
  145SAPE  H11X15980   4.758   1.288   9.410 -0.2640 -0.3036 -1.0543
  145SAPE  H11Y15981   4.588   1.281   9.405 -0.7786 -0.9913  0.0354
  145SAPE  C31215982   4.697   1.202   9.226 -0.4044  0.0872 -0.5428
  145SAPE  H12X15983   4.622   1.142   9.171  1.1539  0.1557 -2.9157
  145SAPE  H12Y15984   4.790   1.144   9.205 -0.1367 -0.1228  1.1180
  145SAPE  C31315985   4.725   1.335   9.147  0.8878 -0.2764 -0.7690
  145SAPE  H13X15986   4.809   1.389   9.196  1.0728  0.4747 -1.8593
  145SAPE  H13Y15987   4.631   1.392   9.163  1.0958 -0.6722  2.4591
  145SAPE  C31415988   4.743   1.313   8.993 -0.3888  0.2987 -0.3106
  145SAPE  H14X15989   4.640   1.319   8.953 -0.3917  1.5316 -0.1690
  145SAPE  H14Y15990   4.781   1.212   8.968 -0.4126  0.5624 -1.4832
  145SAPE  C31515991   4.831   1.417   8.918 -0.5629 -0.0399 -0.2696
  145SAPE  H15X15992   4.938   1.394   8.901 -0.7191  0.6167 -2.4616
  145SAPE  H15Y15993   4.822   1.508   8.981  1.3127 -0.7755  1.1378
  145SAPE  C31615994   4.777   1.454   8.776  0.0713 -0.1381  0.4751
  145SAPE  H16X15995   4.667   1.456   8.791  0.0476  0.3695  0.2443
  145SAPE  H16Y15996   4.801   1.364   8.716  1.0356 -0.5512  1.4342
  145SAPE  C31715997   4.838   1.572   8.711 -0.0126 -0.7214  0.2595
  145SAPE  H17X15998   4.946   1.549   8.717 -0.2175 -1.3470  2.0116
  145SAPE  H17Y15999   4.826   1.667   8.767  1.3632 -0.1840 -0.3206
  145SAPE  C31816000   4.791   1.608   8.574  0.3280  0.5144  0.4067
  145SAPE  H18X16001   4.867   1.670   8.522 -1.0059  0.6056 -1.5583
  145SAPE  H18Y16002   4.698   1.669   8.577  1.1123  1.6947  1.5967
  145SAPE  H18Z16003   4.782   1.515   8.513  1.7933  1.5207 -1.4452
  146SAPE     N16004   2.907   1.430  10.922 -0.0065 -0.2014 -0.3187
  146SAPE   HN116005   2.868   1.467  11.011  0.0373 -0.8556 -0.0226
  146SAPE   HN216006   2.945   1.336  10.947  2.1276  1.1023  1.6782
  146SAPE   HN316007   2.987   1.490  10.896  0.5727 -0.6990  0.2676
  146SAPE   C1216008   2.790   1.433  10.825 -0.0386  0.7563 -0.7512
  146SAPE  H12A16009   2.731   1.522  10.855 -0.1084  0.2599  0.6830
  146SAPE  H12B16010   2.727   1.342  10.834  1.7163 -0.6440 -2.0593
  146SAPE   C1116011   2.855   1.457  10.686  0.2658  0.5629  0.6098
  146SAPE  H11A16012   2.769   1.462  10.616  0.3310  1.2477  0.5702
  146SAPE  H11B16013   2.921   1.369  10.669  1.3560  0.9436  2.5071
  146SAPE     P16014   3.063   1.619  10.622  0.1827 -0.2854  0.3859
  146SAPE   O1316015   3.089   1.764  10.640  0.7659 -0.2564  0.3754
  146SAPE   O1416016   3.143   1.524  10.702 -0.7976  0.7396  0.2265
  146SAPE   O1216017   2.921   1.591  10.676  1.5345  0.7255  0.1623
  146SAPE   O1116018   3.074   1.573  10.467 -0.4198 -0.3595  0.4122
  146SAPE    C116019   2.971   1.599  10.377 -0.2758  0.2722  0.5159
  146SAPE    HA16020   2.874   1.577  10.427 -1.6535 -0.5676 -2.2980
  146SAPE    HB16021   2.964   1.703  10.341  1.7783 -0.0113 -0.8746
  146SAPE    C216022   2.984   1.504  10.257 -0.2413  0.1318  0.0672
  146SAPE    HS16023   2.896   1.522  10.192  0.6004  2.7651 -0.4221
  146SAPE   O2116024   3.018   1.368  10.304  0.1940  0.2511  0.4012
  146SAPE   C2116025   2.910   1.292  10.321  0.0682 -0.0349 -0.7175
  146SAPE   O2216026   2.793   1.333  10.329 -0.1076 -0.7549 -0.2688
  146SAPE   C2216027   2.944   1.142  10.335  0.0901 -0.6812 -0.2787
  146SAPE   H2R16028   3.039   1.129  10.390  0.7078  3.3067 -0.1249
  146SAPE   H2S16029   2.859   1.095  10.389  0.6691  1.0817  2.2935
  146SAPE    C316030   3.103   1.557  10.173 -0.3620  0.0780 -0.4658
  146SAPE    HX16031   3.195   1.546  10.235  0.6473  0.4879 -1.8278
  146SAPE    HY16032   3.101   1.667  10.154  1.0754  0.2376  0.1453
  146SAPE   O3116033   3.117   1.489  10.045  0.2158 -0.3232 -0.3497
  146SAPE   C3116034   3.219   1.395  10.044  0.1370  0.4189 -0.4231
  146SAPE   O3216035   3.295   1.375  10.139  0.2664  0.2916  0.5031
  146SAPE   C3216036   3.221   1.325   9.907  0.5512  0.1363  0.9328
  146SAPE   H2X16037   3.112   1.310   9.892 -0.1532  2.4775  2.9882
  146SAPE   H2Y16038   3.276   1.229   9.913  0.8089  0.0029 -1.9520
  146SAPE   C2316039   2.971   1.088  10.190  0.3686  0.2237  0.0716
  146SAPE   H3R16040   3.018   0.988  10.200  1.6764  0.5069 -2.4533
  146SAPE   H3S16041   3.046   1.150  10.136 -0.3820  1.9392  0.9204
  146SAPE   C2416042   2.835   1.074  10.113 -0.2661  0.5106  0.0362
  146SAPE   H4R16043   2.777   1.167  10.096 -1.0583 -0.0351 -0.2700
  146SAPE   H4S16044   2.772   1.001  10.168 -0.6679 -0.6291 -1.8390
  146SAPE   C2516045   2.856   1.006   9.980  0.0001  0.4421  0.1301
  146SAPE   H5R16046   2.900   0.906   9.994  1.7880  1.1401 -0.2096
  146SAPE   C2616047   2.834   1.043   9.854 -0.4019 -0.3145  0.5097
  146SAPE   H6R16048   2.849   0.976   9.767 -2.3034 -0.9891  0.6634
  146SAPE   C2716049   2.771   1.172   9.811  0.8002 -0.2184 -0.2961
  146SAPE   H7R16050   2.715   1.210   9.899  1.2494 -0.2996  0.0266
  146SAPE   H7S16051   2.700   1.123   9.741  3.0443 -1.1323 -2.0697
  146SAPE   C2816052   2.849   1.274   9.746 -1.2092  0.1342  0.0303
  146SAPE   H8R16053   2.876   1.352   9.819 -0.4746 -1.5354  1.6556
  146SAPE   C2916054   2.884   1.299   9.617 -0.6021  0.5923  0.3842
  146SAPE   H9R16055   2.949   1.385   9.594 -1.1462  0.4168 -2.1532
  146SAPE  C21016056   2.844   1.216   9.499  0.5962 -0.1844 -0.4929
  146SAPE  H10R16057   2.772   1.268   9.432  0.3394 -0.6162 -0.5535
  146SAPE  H10S16058   2.790   1.125   9.532  0.3532  0.1354  0.0012
  146SAPE  C21116059   2.962   1.158   9.423 -0.4862  0.0121 -0.1791
  146SAPE  H11R16060   3.024   1.092   9.485 -1.5493  0.0383  0.9505
  146SAPE  C21216061   2.981   1.176   9.292 -0.4223  0.2482  0.3196
  146SAPE  H12R16062   3.071   1.134   9.244 -0.9737 -0.0778 -0.4433
  146SAPE  C21316063   2.895   1.255   9.198 -0.5387 -0.4468  0.4234
  146SAPE  H13R16064   2.963   1.310   9.129 -0.7334  1.9252  2.0182
  146SAPE  H13S16065   2.833   1.329   9.253  1.1821  0.3115  1.4101
  146SAPE  C21416066   2.814   1.158   9.119  0.2762 -0.1094  0.2392
  146SAPE  H14R16067   2.782   1.069   9.175 -1.1197  0.8797  1.1035
  146SAPE  C21516068   2.773   1.172   8.988 -0.6322  0.3051 -0.2501
  146SAPE  H15R16069   2.718   1.089   8.942 -0.5773  0.2384 -0.1981
  146SAPE  C21616070   2.808   1.278   8.887 -0.7317  0.4424 -0.1388
  146SAPE  H16R16071   2.901   1.333   8.913  0.7110  0.0162 -3.7333
  146SAPE  H16S16072   2.728   1.354   8.873  0.4689  1.5361 -1.4136
  146SAPE  C21716073   2.830   1.224   8.745  0.4342  0.0865 -0.3373
  146SAPE  H17R16074   2.743   1.162   8.713 -0.3828  1.0317 -0.0116
  146SAPE  H17S16075   2.925   1.168   8.737  1.3147  1.4524  0.2849
  146SAPE  C21816076   2.857   1.333   8.643 -0.5205 -0.0874  0.7252
  146SAPE  H18R16077   2.943   1.390   8.685  1.2257 -1.8818 -0.2432
  146SAPE  H18S16078   2.766   1.394   8.629 -0.1440 -0.2560 -4.3933
  146SAPE  C21916079   2.896   1.286   8.500  0.0181 -0.5273 -0.6606
  146SAPE  H19R16080   2.969   1.203   8.504 -0.8476 -1.3034 -0.5605
  146SAPE  H19S16081   2.937   1.373   8.444  0.7741  0.0314  0.7145
  146SAPE  C22016082   2.772   1.240   8.426 -0.1826  0.0061 -0.3734
  146SAPE  H20R16083   2.691   1.315   8.427 -1.8274 -1.6938 -0.4879
  146SAPE  H20S16084   2.739   1.148   8.480 -0.1428  0.6717  0.8011
  146SAPE  H20T16085   2.797   1.213   8.321  1.5235 -0.1067  0.0373
  146SAPE   C3316086   3.286   1.413   9.793  0.5407  0.6655 -0.5255
  146SAPE   H3X16087   3.384   1.455   9.822  0.7672  0.0192 -0.3384
  146SAPE   H3Y16088   3.217   1.498   9.775  0.3478  0.2707 -1.7850
  146SAPE   C3416089   3.310   1.336   9.666  0.2539 -0.4323  0.3788
  146SAPE   H4X16090   3.220   1.278   9.636  2.1909 -2.8463 -1.1176
  146SAPE   H4Y16091   3.393   1.264   9.682 -0.8824 -1.5248  1.6713
  146SAPE   C3516092   3.322   1.423   9.540  0.1914 -0.5734  0.3524
  146SAPE   H5X16093   3.418   1.480   9.536 -0.1470 -0.0195 -2.5062
  146SAPE   H5Y16094   3.245   1.503   9.537  0.6238 -0.1575 -1.6736
  146SAPE   C3616095   3.314   1.332   9.413 -0.4907  1.2974 -0.0468
  146SAPE   H6X16096   3.228   1.265   9.430  0.0734  0.9302  1.5416
  146SAPE   H6Y16097   3.402   1.265   9.414 -0.9937  0.4754 -2.7860
  146SAPE   C3716098   3.310   1.416   9.289 -0.1962  0.5159 -0.0217
  146SAPE   H7X16099   3.407   1.471   9.288  0.3622 -0.4238  0.7408
  146SAPE   H7Y16100   3.222   1.484   9.285 -1.4641 -1.0648  0.3592
  146SAPE   C3816101   3.306   1.318   9.164  0.1062 -0.6637 -0.0558
  146SAPE   H8X16102   3.241   1.233   9.193  0.2147 -1.6314 -2.4086
  146SAPE   H8Y16103   3.403   1.264   9.157 -0.1920 -1.2070 -0.0899
  146SAPE   C3916104   3.268   1.375   9.029 -1.1764  0.2126  0.1924
  146SAPE   H9X16105   3.338   1.459   9.010 -0.4617 -0.3223  0.4077
  146SAPE   H9Y16106   3.162   1.409   9.027 -0.6516  1.8873 -1.4081
  146SAPE  C31016107   3.282   1.276   8.913  0.2640 -0.5717 -0.5095
  146SAPE  H10X16108   3.388   1.247   8.897  1.1781  1.4517  1.4086
  146SAPE  H10Y16109   3.237   1.332   8.829 -0.5174  0.1208  0.3535
  146SAPE  C31116110   3.185   1.156   8.921  0.1003 -0.0021 -0.6966
  146SAPE  H11X16111   3.085   1.201   8.939  0.6758  1.1029 -0.1825
  146SAPE  H11Y16112   3.217   1.088   9.003 -1.9503  0.4209  0.5124
  146SAPE  C31216113   3.176   1.076   8.791  0.5057  0.7173  0.5091
  146SAPE  H12X16114   3.158   1.147   8.707  1.2125  0.9418  0.5415
  146SAPE  H12Y16115   3.093   1.002   8.798  0.0702  0.6933 -3.2020
  146SAPE  C31316116   3.301   0.999   8.745  0.3353  0.2999 -0.2556
  146SAPE  H13X16117   3.386   1.070   8.732 -0.8907  2.1261  1.1143
  146SAPE  H13Y16118   3.295   0.954   8.644  2.4284 -1.2348  0.2441
  146SAPE  C31416119   3.355   0.897   8.846 -0.1621 -0.5496 -0.2338
  146SAPE  H14X16120   3.286   0.812   8.861 -2.3704  1.5027  2.2123
  146SAPE  H14Y16121   3.360   0.938   8.949  1.6273 -0.6252 -0.2619
  146SAPE  C31516122   3.502   0.848   8.811  0.0429 -0.0905  0.1367
  146SAPE  H15X16123   3.563   0.936   8.780 -2.7982  1.5990 -1.1171
  146SAPE  H15Y16124   3.505   0.778   8.725  0.0788 -1.7170  1.4002
  146SAPE  C31616125   3.572   0.768   8.924 -0.1451 -0.2171  0.1748
  146SAPE  H16X16126   3.519   0.678   8.963  0.9497  0.1185  2.6154
  146SAPE  H16Y16127   3.565   0.836   9.012 -1.1661  0.1842 -0.2056
  146SAPE  C31716128   3.716   0.727   8.893 -0.7473 -0.1200 -0.3197
  146SAPE  H17X16129   3.771   0.819   8.864 -1.5186  0.3525 -0.3401
  146SAPE  H17Y16130   3.717   0.656   8.807 -0.6228  1.6251 -1.8171
  146SAPE  C31816131   3.793   0.661   9.007  0.9176  0.3123 -0.2157
  146SAPE  H18X16132   3.895   0.625   8.979  0.3620 -0.6462 -1.0871
  146SAPE  H18Y16133   3.753   0.572   9.059 -1.9245  1.3898 -0.3817
  146SAPE  H18Z16134   3.808   0.735   9.088  1.0885  3.6185 -3.0351
  147SAPE     N16135   4.783   5.649   6.242 -0.0101 -0.1766  0.4257
  147SAPE   HN116136   4.733   5.672   6.155 -2.1088 -0.5453  1.4754
  147SAPE   HN216137   4.876   5.611   6.215 -0.7011 -2.4173  0.9529
  147SAPE   HN316138   4.736   5.567   6.286  1.0351 -0.5284  0.9367
  147SAPE   C1216139   4.810   5.764   6.334  0.4017 -0.2591 -0.3308
  147SAPE  H12A16140   4.866   5.725   6.421 -2.4703  0.0575  1.7808
  147SAPE  H12B16141   4.709   5.792   6.369  1.2604 -0.2012  2.2872
  147SAPE   C1116142   4.900   5.872   6.277  0.1408 -0.3082 -0.1779
  147SAPE  H11A16143   4.993   5.811   6.277 -0.9236 -1.9825  0.2210
  147SAPE  H11B16144   4.913   5.961   6.342 -0.0413  0.1166 -0.7217
  147SAPE     P16145   4.759   6.001   6.097 -0.1716  0.1347  0.0493
  147SAPE   O1316146   4.827   6.133   6.111  0.4461  0.1052  0.0355
  147SAPE   O1416147   4.701   5.954   5.968 -0.1309  0.2695  0.1725
  147SAPE   O1216148   4.862   5.893   6.137 -0.3060  0.3203 -0.7517
  147SAPE   O1116149   4.655   5.982   6.211 -0.1025 -0.0625 -0.2159
  147SAPE    C116150   4.564   6.082   6.264 -0.3306  0.5517  0.5921
  147SAPE    HA16151   4.636   6.156   6.305 -0.7743  2.6521 -2.1004
  147SAPE    HB16152   4.505   6.120   6.178  2.0454 -1.6655 -2.2217
  147SAPE    C216153   4.469   6.028   6.371 -0.6170 -0.2146 -0.9246
  147SAPE    HS16154   4.413   6.112   6.417 -0.5764 -0.5661 -0.2257
  147SAPE   O2116155   4.544   5.952   6.471  0.5274  0.0104 -0.4154
  147SAPE   C2116156   4.630   6.007   6.551  0.0923 -0.3502  0.4639
  147SAPE   O2216157   4.670   6.125   6.536  0.2000  0.6940  0.5175
  147SAPE   C2216158   4.655   5.913   6.666 -0.2655  0.7218  0.1758
  147SAPE   H2R16159   4.566   5.847   6.667 -0.2095  0.6384  1.3541
  147SAPE   H2S16160   4.738   5.850   6.627 -1.9331 -1.0712 -0.5918
  147SAPE    C316161   4.360   5.946   6.297  0.1186  0.0944 -0.3658
  147SAPE    HX16162   4.417   5.873   6.236  1.9088  2.3190 -1.4578
  147SAPE    HY16163   4.308   6.013   6.225 -0.2269 -2.2553 -2.4379
  147SAPE   O3116164   4.256   5.877   6.385 -0.2021 -0.6063  1.2734
  147SAPE   C3116165   4.167   5.961   6.432  0.6192  0.3986  0.4713
  147SAPE   O3216166   4.147   6.076   6.385  0.1399  0.1707  0.8383
  147SAPE   C3216167   4.096   5.904   6.547  0.2521  0.5208 -0.5326
  147SAPE   H2X16168   4.161   5.923   6.635 -0.5814  3.1822 -0.4213
  147SAPE   H2Y16169   4.076   5.794   6.541 -1.3184  0.7268  0.4102
  147SAPE   C2316170   4.681   5.976   6.804 -0.0495  0.0845 -0.3797
  147SAPE   H3R16171   4.595   6.042   6.827 -0.9303 -1.5551  1.2590
  147SAPE   H3S16172   4.777   6.032   6.800  1.0996 -1.6137  1.5412
  147SAPE   C2416173   4.686   5.884   6.934  0.4678  0.5610  0.4069
  147SAPE   H4R16174   4.582   5.845   6.939  0.4636  0.5133 -0.0205
  147SAPE   H4S16175   4.691   5.952   7.022 -3.0794  0.4393  0.8482
  147SAPE   C2516176   4.788   5.770   6.956  0.5002 -0.3818 -0.3393
  147SAPE   H5R16177   4.795   5.696   6.874 -0.5838  1.2478 -1.9827
  147SAPE   C2616178   4.856   5.736   7.064 -0.4225  0.3850 -0.7485
  147SAPE   H6R16179   4.907   5.639   7.064 -1.8846 -0.4258  0.3273
  147SAPE   C2716180   4.867   5.811   7.192  0.0318 -0.8943 -0.6863
  147SAPE   H7R16181   4.799   5.774   7.272 -0.6855  1.9501  0.1436
  147SAPE   H7S16182   4.824   5.913   7.181 -0.3759 -1.0855 -0.9126
  147SAPE   C2816183   5.006   5.820   7.248 -0.7463  0.0815  0.1373
  147SAPE   H8R16184   5.063   5.903   7.205  1.1870 -1.5303 -0.5843
  147SAPE   C2916185   5.069   5.741   7.346  0.5598 -0.3664 -0.6999
  147SAPE   H9R16186   5.178   5.754   7.353  0.4093  0.2911  0.8616
  147SAPE  C21016187   5.005   5.637   7.437  0.2554  0.4387  0.7737
  147SAPE  H10R16188   4.983   5.540   7.388 -0.0404  0.1226  1.5098
  147SAPE  H10S16189   4.900   5.666   7.459 -0.4984 -1.1446 -0.5223
  147SAPE  C21116190   5.084   5.616   7.563  0.1169  0.0478  0.1082
  147SAPE  H11R16191   5.148   5.701   7.591  1.0159 -1.0075  1.4482
  147SAPE  C21216192   5.089   5.504   7.643 -0.5961 -0.7983  0.2010
  147SAPE  H12R16193   5.156   5.514   7.729 -1.5702 -0.9641  0.9943
  147SAPE  C21316194   5.007   5.378   7.635  0.6277 -0.5332 -1.0038
  147SAPE  H13R16195   4.918   5.398   7.571 -1.6411 -0.2815  2.0103
  147SAPE  H13S16196   4.955   5.365   7.732  0.1648  0.6761 -1.0718
  147SAPE  C21416197   5.088   5.258   7.593 -0.2314 -0.1901 -0.1909
  147SAPE  H14R16198   5.139   5.211   7.679 -0.0654  1.5965  0.7381
  147SAPE  C21516199   5.103   5.204   7.468 -0.2941 -0.7290  0.3011
  147SAPE  H15R16200   5.158   5.109   7.455  0.1350 -0.4118 -0.2563
  147SAPE  C21616201   5.039   5.261   7.339 -0.1885  0.0806  0.3673
  147SAPE  H16R16202   4.948   5.318   7.368  0.5645  2.0193 -0.9015
  147SAPE  H16S16203   5.015   5.177   7.269  1.6815  1.8454 -2.6086
  147SAPE  C21716204   5.140   5.349   7.260  0.0806  0.4428  0.2723
  147SAPE  H17R16205   5.244   5.313   7.245  0.8425  2.0548  1.3408
  147SAPE  H17S16206   5.162   5.440   7.322  2.6360  0.1697 -0.1196
  147SAPE  C21816207   5.086   5.385   7.116 -0.2145  0.4889  0.2025
  147SAPE  H18R16208   5.000   5.454   7.133  0.1003  0.3799  2.5479
  147SAPE  H18S16209   5.054   5.293   7.063  0.7323 -2.0948  3.7347
  147SAPE  C21916210   5.184   5.477   7.039 -0.1895  0.4289  0.1250
  147SAPE  H19R16211   5.242   5.533   7.116  0.9938 -0.2026 -0.2809
  147SAPE  H19S16212   5.133   5.547   6.970  0.2479 -0.2968 -0.9488
  147SAPE  C22016213   5.283   5.410   6.945  0.5100 -0.6297 -0.8953
  147SAPE  H20R16214   5.336   5.334   7.007  0.3599  1.3967  1.8925
  147SAPE  H20S16215   5.352   5.488   6.906  1.1557 -1.1265 -0.7652
  147SAPE  H20T16216   5.230   5.363   6.859  2.4710 -1.2863 -1.7876
  147SAPE   C3316217   3.957   5.982   6.566 -0.5279  0.0818 -0.0811
  147SAPE   H3X16218   3.900   5.984   6.471  1.2584  0.2308 -1.1974
  147SAPE   H3Y16219   3.979   6.087   6.595  1.4867 -0.1430 -0.5899
  147SAPE   C3416220   3.862   5.922   6.676 -0.3175 -0.0587  0.4575
  147SAPE   H4X16221   3.863   5.811   6.677 -1.2466 -0.0903  2.4752
  147SAPE   H4Y16222   3.758   5.955   6.651  0.3005 -0.0809 -2.5131
  147SAPE   C3516223   3.892   5.976   6.816  0.9097 -0.2456 -0.1928
  147SAPE   H5X16224   3.919   6.084   6.826  1.4154 -0.3518 -0.3841
  147SAPE   H5Y16225   3.973   5.917   6.862 -2.6750 -3.4202  2.6724
  147SAPE   C3616226   3.771   5.943   6.904  0.2898  0.0972 -0.8178
  147SAPE   H6X16227   3.769   5.834   6.921  0.1757  0.0760 -0.9644
  147SAPE   H6Y16228   3.681   5.973   6.847  1.4718  1.6805 -1.9579
  147SAPE   C3716229   3.776   6.019   7.034 -0.6219  0.5583 -0.1254
  147SAPE   H7X16230   3.675   6.006   7.078 -0.2638  1.2029  0.9299
  147SAPE   H7Y16231   3.784   6.126   7.004  1.6354 -0.3810 -3.4219
  147SAPE   C3816232   3.880   5.966   7.132  0.3171  0.3994  0.1575
  147SAPE   H8X16233   3.983   5.965   7.092  0.0075  2.2050 -0.7956
  147SAPE   H8Y16234   3.859   5.858   7.153 -0.2119  0.4716  0.0324
  147SAPE   C3916235   3.887   6.036   7.261 -0.0425 -0.0097 -0.0973
  147SAPE   H9X16236   3.785   6.046   7.303 -0.5389  1.6189 -1.5994
  147SAPE   H9Y16237   3.922   6.140   7.249  1.0899 -0.1433  1.6167
  147SAPE  C31016238   3.979   5.965   7.360  0.5542 -0.4613 -0.2294
  147SAPE  H10X16239   4.081   5.949   7.318  0.4611 -1.4789 -0.0895
  147SAPE  H10Y16240   3.933   5.866   7.382  0.4607  0.0778  2.2712
  147SAPE  C31116241   4.008   6.053   7.491 -0.1049  0.4274  0.8323
  147SAPE  H11X16242   3.916   6.093   7.539 -0.9770  0.2348 -0.6152
  147SAPE  H11Y16243   4.077   6.129   7.449  1.5473 -3.1283 -3.7513
  147SAPE  C31216244   4.096   5.979   7.592 -0.4237 -0.1814  0.6088
  147SAPE  H12X16245   4.176   5.920   7.542  0.9522  2.0356  0.0599
  147SAPE  H12Y16246   4.032   5.908   7.649 -1.0578 -1.0300 -1.0894
  147SAPE  C31316247   4.157   6.069   7.698  0.1642 -0.0292  0.3223
  147SAPE  H13X16248   4.230   6.141   7.656  0.9908 -0.8249  0.3735
  147SAPE  H13Y16249   4.209   6.011   7.778  0.1145  0.4714  0.7204
  147SAPE  C31416250   4.058   6.160   7.769  0.2411 -0.2223 -0.4843
  147SAPE  H14X16251   3.965   6.106   7.797  0.3431  0.9430  2.3698
  147SAPE  H14Y16252   4.026   6.246   7.705 -0.5701 -1.1147 -1.3236
  147SAPE  C31516253   4.127   6.210   7.904  0.4720 -0.6608  0.2993
  147SAPE  H15X16254   4.235   6.220   7.877  0.2808  0.8333 -0.0001
  147SAPE  H15Y16255   4.102   6.136   7.982 -0.6258 -0.7966 -0.1575
  147SAPE  C31616256   4.079   6.363   7.937  0.0447  0.5153  0.0218
  147SAPE  H16X16257   3.968   6.354   7.938  0.0616 -0.4254 -1.9066
  147SAPE  H16Y16258   4.097   6.431   7.851 -1.5688  1.8748  0.6935
  147SAPE  C31716259   4.138   6.447   8.049  0.4574  0.2162  0.1970
  147SAPE  H17X16260   4.106   6.405   8.147  0.5240 -1.2543 -0.3734
  147SAPE  H17Y16261   4.089   6.546   8.039  1.1903  0.6519  0.7963
  147SAPE  C31816262   4.292   6.463   8.049 -0.5838  0.4319  0.1645
  147SAPE  H18X16263   4.321   6.523   7.960  0.5181 -2.8478 -1.8694
  147SAPE  H18Y16264   4.348   6.367   8.043  2.3920  1.9471  1.7209
  147SAPE  H18Z16265   4.326   6.513   8.142  0.8241  1.7303 -0.9921
  148SAPE     N16266   5.981   1.940   6.428 -0.0122 -0.2092  0.3846
  148SAPE   HN116267   6.013   1.970   6.523 -1.1624 -0.2654  0.8052
  148SAPE   HN216268   5.972   1.837   6.420 -0.6448 -0.2629  1.5747
  148SAPE   HN316269   6.048   1.978   6.358 -0.9868 -1.5187 -1.3185
  148SAPE   C1216270   5.831   1.981   6.408 -0.4565  0.2304  0.0820
  148SAPE  H12A16271   5.773   1.932   6.489  0.6574 -1.3069 -0.0107
  148SAPE  H12B16272   5.794   1.923   6.321 -3.6362 -0.3412  1.6682
  148SAPE   C1116273   5.819   2.135   6.381  0.1015  0.3402 -0.0652
  148SAPE  H11A16274   5.710   2.152   6.394 -0.3163 -3.1781  2.4673
  148SAPE  H11B16275   5.855   2.159   6.279 -0.7447  0.4809 -0.3421
  148SAPE     P16276   5.879   2.361   6.477 -0.1300 -0.5603  0.2260
  148SAPE   O1316277   6.001   2.414   6.536  0.1435 -0.5192  0.4296
  148SAPE   O1416278   5.844   2.409   6.341  0.1977 -0.3969  0.0563
  148SAPE   O1216279   5.889   2.209   6.483 -0.4379 -0.0138  0.2825
  148SAPE   O1116280   5.755   2.409   6.569 -0.0421  0.1072 -0.0836
  148SAPE    C116281   5.784   2.445   6.705 -1.1648 -0.0640  0.1647
  148SAPE    HA16282   5.779   2.354   6.770  0.6218  0.5140  1.1833
  148SAPE    HB16283   5.883   2.493   6.722 -0.3428 -1.7761  0.5316
  148SAPE    C216284   5.673   2.536   6.765 -0.0236 -0.1343  0.1972
  148SAPE    HS16285   5.704   2.641   6.748  0.4538 -0.2601  0.2657
  148SAPE   O2116286   5.661   2.497   6.905 -0.4033 -0.6264 -0.7164
  148SAPE   C2116287   5.762   2.539   6.986  0.1080  0.3879 -0.0039
  148SAPE   O2216288   5.866   2.601   6.955 -0.3472  0.4563  0.1420
  148SAPE   C2216289   5.724   2.469   7.112  0.5290  0.0259  0.1669
  148SAPE   H2R16290   5.617   2.483   7.135 -0.2856 -0.0967 -3.0501
  148SAPE   H2S16291   5.738   2.359   7.100  0.5731 -0.0978  1.2397
  148SAPE    C316292   5.540   2.498   6.694  0.1611 -0.4672 -0.4509
  148SAPE    HX16293   5.528   2.388   6.697 -0.0649 -0.4792 -1.4901
  148SAPE    HY16294   5.540   2.523   6.586 -3.4293  0.4328 -0.3630
  148SAPE   O3116295   5.425   2.563   6.749 -0.2308 -0.0474  0.2528
  148SAPE   C3116296   5.418   2.693   6.732  0.1102 -0.2943  0.1468
  148SAPE   O3216297   5.491   2.761   6.658 -0.1544 -0.0857  0.6123
  148SAPE   C3216298   5.300   2.740   6.817 -0.1874 -0.5796  0.3455
  148SAPE   H2X16299   5.223   2.660   6.809 -0.4275 -0.1491 -2.8297
  148SAPE   H2Y16300   5.260   2.837   6.780  0.6403 -0.4722 -0.2706
  148SAPE   C2316301   5.816   2.504   7.228 -0.1225  0.4749 -0.9168
  148SAPE   H3R16302   5.767   2.593   7.273 -1.2386 -1.5630  2.1946
  148SAPE   H3S16303   5.913   2.524   7.177 -0.0750  1.0407 -0.6075
  148SAPE   C2416304   5.843   2.386   7.319  0.2895 -0.5262 -0.4067
  148SAPE   H4R16305   5.919   2.410   7.397 -0.0726 -3.0168  0.8103
  148SAPE   H4S16306   5.888   2.311   7.251  0.8042 -0.8812  0.3048
  148SAPE   C2516307   5.720   2.327   7.386 -0.3274  0.3549 -0.0701
  148SAPE   H5R16308   5.639   2.314   7.312  0.0614 -0.7403 -0.3277
  148SAPE   C2616309   5.721   2.268   7.514  0.6812  0.0552  0.6973
  148SAPE   H6R16310   5.627   2.226   7.554  0.6411 -1.4457 -0.8435
  148SAPE   C2716311   5.831   2.267   7.614  0.7958  0.3613 -0.5410
  148SAPE   H7R16312   5.850   2.370   7.652  3.1062 -0.7559  1.6219
  148SAPE   H7S16313   5.933   2.246   7.574  0.0930 -2.6528 -0.9911
  148SAPE   C2816314   5.792   2.177   7.729 -0.6488 -0.2368  0.3241
  148SAPE   H8R16315   5.788   2.068   7.714  1.6512 -0.4906  1.1830
  148SAPE   C2916316   5.782   2.213   7.854  0.2772 -0.3511  1.1334
  148SAPE   H9R16317   5.745   2.141   7.929  0.4233  0.0795  1.6227
  148SAPE  C21016318   5.802   2.348   7.920  0.5215  0.0705 -0.6389
  148SAPE  H10R16319   5.725   2.365   7.998  0.3066 -1.6122 -0.4372
  148SAPE  H10S16320   5.799   2.427   7.843  1.9126  1.2698  0.4886
  148SAPE  C21116321   5.934   2.351   7.990 -0.3635  0.0587 -0.6504
  148SAPE  H11R16322   6.025   2.386   7.940  0.5605  0.3854  1.1502
  148SAPE  C21216323   5.956   2.319   8.118 -0.0371 -0.0323 -0.2318
  148SAPE  H12R16324   6.061   2.327   8.151  0.5720 -1.0696 -1.7861
  148SAPE  C21316325   5.855   2.268   8.218  0.2211 -0.6199  0.3013
  148SAPE  H13R16326   5.807   2.180   8.168 -1.3866  2.3699 -3.9973
  148SAPE  H13S16327   5.777   2.347   8.216  2.5445  1.9148  2.2961
  148SAPE  C21416328   5.909   2.235   8.355 -1.0088 -0.3916  0.3662
  148SAPE  H14R16329   5.960   2.139   8.372  0.8089  0.9379  3.2982
  148SAPE  C21516330   5.875   2.299   8.463 -0.1934 -0.4053  0.6981
  148SAPE  H15R16331   5.923   2.276   8.559  1.1267 -0.0164  0.1515
  148SAPE  C21616332   5.781   2.424   8.468  0.3195 -0.2951  0.2321
  148SAPE  H16R16333   5.688   2.394   8.520 -1.1681 -2.1896 -3.1437
  148SAPE  H16S16334   5.746   2.457   8.367 -0.0736 -2.1022 -0.2655
  148SAPE  C21716335   5.861   2.544   8.535 -0.0490  0.6796 -0.0294
  148SAPE  H17R16336   5.810   2.641   8.519 -0.1878  0.4209 -1.2367
  148SAPE  H17S16337   5.959   2.551   8.482  0.0331  0.8814  0.1461
  148SAPE  C21816338   5.882   2.522   8.689  0.2105 -0.5316  1.0399
  148SAPE  H18R16339   5.912   2.417   8.712  2.4128 -0.0790  0.3764
  148SAPE  H18S16340   5.785   2.536   8.742  0.4191 -3.0439  2.2488
  148SAPE  C21916341   5.993   2.617   8.746  0.1944  0.1899 -0.2964
  148SAPE  H19R16342   6.089   2.595   8.694  0.9567 -0.5747  1.3657
  148SAPE  H19S16343   6.009   2.595   8.854  2.1210  0.1847 -0.5443
  148SAPE  C22016344   5.976   2.770   8.728 -0.1361 -0.5625  0.4147
  148SAPE  H20R16345   5.884   2.805   8.780  0.2463  3.7243 -1.3739
  148SAPE  H20S16346   5.967   2.792   8.619 -2.3690  1.1713  0.8773
  148SAPE  H20T16347   6.057   2.837   8.764 -1.4220  0.3845  1.6683
  148SAPE   C3316348   5.351   2.744   6.963 -0.0669 -0.0340 -0.3124
  148SAPE   H3X16349   5.398   2.647   6.987 -2.0845 -1.0891 -0.3777
  148SAPE   H3Y16350   5.272   2.742   7.042  0.1123 -2.7527 -0.1278
  148SAPE   C3416351   5.445   2.864   7.001 -0.2093 -0.2241  0.4218
  148SAPE   H4X16352   5.400   2.959   6.965 -2.3001 -1.9875 -1.9570
  148SAPE   H4Y16353   5.547   2.855   6.958 -1.0358  1.9457 -2.2888
  148SAPE   C3516354   5.459   2.889   7.157  0.0300  0.8665 -0.1403
  148SAPE   H5X16355   5.553   2.948   7.170  0.5744 -0.1871  0.9902
  148SAPE   H5Y16356   5.466   2.787   7.201 -2.1919  1.6279  2.2294
  148SAPE   C3616357   5.329   2.935   7.237  0.4449  0.7619 -0.2954
  148SAPE   H6X16358   5.251   2.861   7.207  2.0739 -1.2852  0.2324
  148SAPE   H6Y16359   5.304   3.032   7.189  1.7948  0.6460 -1.2757
  148SAPE   C3716360   5.351   2.944   7.386  0.6201 -0.5185 -0.5513
  148SAPE   H7X16361   5.439   3.006   7.412 -1.1094  1.7217  0.2732
  148SAPE   H7Y16362   5.370   2.839   7.417 -2.4070 -1.2349 -0.7686
  148SAPE   C3816363   5.230   3.001   7.464  0.2311 -0.3079 -0.3210
  148SAPE   H8X16364   5.142   2.938   7.438  0.0937 -0.5329  0.6274
  148SAPE   H8Y16365   5.214   3.104   7.427 -2.5349 -0.5971 -0.0996
  148SAPE   C3916366   5.252   3.009   7.617  0.1061  0.1832 -0.0276
  148SAPE   H9X16367   5.294   2.907   7.632  0.9080  0.5541  0.3637
  148SAPE   H9Y16368   5.154   3.020   7.669  0.6343  1.6231  0.7373
  148SAPE  C31016369   5.351   3.114   7.665  0.6093 -0.3214  0.2861
  148SAPE  H10X16370   5.290   3.205   7.645 -0.7976 -1.0449  1.0978
  148SAPE  H10Y16371   5.449   3.116   7.614 -0.0135 -2.1413 -1.1015
  148SAPE  C31116372   5.368   3.110   7.817 -0.1366  0.0145 -0.2408
  148SAPE  H11X16373   5.380   3.003   7.845 -0.4526 -0.3634 -1.4717
  148SAPE  H11Y16374   5.274   3.140   7.869 -0.3538  1.0465 -1.1846
  148SAPE  C31216375   5.487   3.185   7.875 -0.2591  0.2792  0.4882
  148SAPE  H12X16376   5.469   3.292   7.853 -1.7754 -0.4390 -2.2033
  148SAPE  H12Y16377   5.579   3.155   7.820 -0.8431  0.3989 -0.5906
  148SAPE  C31316378   5.498   3.163   8.022  0.1642  0.0992 -0.3817
  148SAPE  H13X16379   5.528   3.057   8.032 -0.3885 -0.1971 -1.6262
  148SAPE  H13Y16380   5.400   3.171   8.075  0.5794 -1.0343  0.6048
  148SAPE  C31416381   5.607   3.264   8.072  0.9167  0.4793 -0.0535
  148SAPE  H14X16382   5.567   3.365   8.049 -0.0645  0.3283  0.9449
  148SAPE  H14Y16383   5.703   3.245   8.018  0.9802  0.6159  0.0121
  148SAPE  C31516384   5.635   3.245   8.223  0.3387  0.4616 -0.2922
  148SAPE  H15X16385   5.663   3.141   8.250  1.1703  1.5355  3.5490
  148SAPE  H15Y16386   5.534   3.246   8.269  1.4851 -1.6427  2.5484
  148SAPE  C31616387   5.738   3.355   8.259 -0.7474  0.2204 -0.1319
  148SAPE  H16X16388   5.688   3.453   8.243  2.0087  1.8559  0.6069
  148SAPE  H16Y16389   5.819   3.374   8.185  1.1215  0.8075  1.9239
  148SAPE  C31716390   5.814   3.342   8.391  0.6018 -0.0338 -0.4529
  148SAPE  H17X16391   5.745   3.310   8.472  0.2411  1.0239 -0.3362
  148SAPE  H17Y16392   5.841   3.444   8.425  1.6064  0.1084 -1.5969
  148SAPE  C31816393   5.939   3.243   8.396 -0.2496 -0.2531  0.3360
  148SAPE  H18X16394   6.024   3.284   8.338 -1.8905  1.3959 -1.0420
  148SAPE  H18Y16395   5.907   3.151   8.341 -0.8611 -0.0128  0.2889
  148SAPE  H18Z16396   5.975   3.223   8.499  0.7201  1.8271  0.4431
  149SAPE     N16397   3.298   6.191   6.221  0.9966 -0.1159  0.2390
  149SAPE   HN116398   3.383   6.136   6.196  0.7253  0.0078 -1.0393
  149SAPE   HN216399   3.216   6.158   6.167  1.3450 -0.3878 -0.1281
  149SAPE   HN316400   3.316   6.287   6.186 -1.6280  0.9531  1.5351
  149SAPE   C1216401   3.281   6.182   6.367  0.2010 -0.2640  0.4298
  149SAPE  H12A16402   3.191   6.242   6.392  0.9626  1.2561 -0.3181
  149SAPE  H12B16403   3.363   6.234   6.422  0.2800 -0.6266  0.6579
  149SAPE   C1116404   3.265   6.036   6.420 -0.0375  0.4978  0.1973
  149SAPE  H11A16405   3.173   5.985   6.385  0.1201  0.7500 -0.6076
  149SAPE  H11B16406   3.246   6.051   6.528 -2.6868 -3.2474  0.4252
  149SAPE     P16407   3.518   5.964   6.461  0.7498  0.4433 -0.1653
  149SAPE   O1316408   3.613   5.883   6.387 -0.3832  1.1195  0.6582
  149SAPE   O1416409   3.548   6.101   6.497  0.4699 -0.6050 -0.0793
  149SAPE   O1216410   3.379   5.948   6.390  0.2380 -0.0585 -0.3209
  149SAPE   O1116411   3.480   5.885   6.590  0.2874 -0.5357  0.5013
  149SAPE    C116412   3.456   5.746   6.608 -0.2059  0.2461  0.4256
  149SAPE    HA16413   3.506   5.683   6.531  0.5311 -0.8794  1.7725
  149SAPE    HB16414   3.508   5.717   6.701 -0.9463  1.1902  1.1488
  149SAPE    C216415   3.312   5.712   6.612  0.9164 -1.0047 -0.1403
  149SAPE    HS16416   3.272   5.717   6.508  1.5348  1.3882 -0.3058
  149SAPE   O2116417   3.247   5.811   6.697 -0.4499 -0.1142  0.1659
  149SAPE   C2116418   3.113   5.791   6.682 -0.4755 -0.4360  0.1241
  149SAPE   O2216419   3.057   5.705   6.615 -0.3066  0.2918 -0.4310
  149SAPE   C2216420   3.038   5.891   6.765 -0.0177 -0.0880  0.2810
  149SAPE   H2R16421   3.110   5.945   6.829 -1.8013  0.1215  2.2071
  149SAPE   H2S16422   2.981   5.957   6.695 -1.1900 -0.6869  0.6372
  149SAPE    C316423   3.290   5.565   6.656  0.7686 -0.4323  0.4458
  149SAPE    HX16424   3.357   5.501   6.594  1.3724  0.9557 -0.3784
  149SAPE    HY16425   3.188   5.528   6.631 -0.3726  2.0106  1.1812
  149SAPE   O3116426   3.298   5.542   6.798  0.0981 -0.7907  0.0279
  149SAPE   C3116427   3.402   5.486   6.847  0.0248  0.0775  0.2994
  149SAPE   O3216428   3.495   5.444   6.778 -0.4545  0.1379  0.0453
  149SAPE   C3216429   3.383   5.467   6.996 -0.4663 -0.8548 -0.7304
  149SAPE   H2X16430   3.324   5.373   7.008 -2.7223  0.4804 -0.8046
  149SAPE   H2Y16431   3.325   5.552   7.037 -0.5294 -1.3715  0.2843
  149SAPE   C2316432   2.932   5.823   6.847  0.2631  0.2321 -0.2574
  149SAPE   H3R16433   2.876   5.746   6.789  0.4893  0.0750 -0.2642
  149SAPE   H3S16434   2.861   5.898   6.890  0.8063  0.5309  0.1281
  149SAPE   C2416435   2.989   5.743   6.964 -0.8583 -0.2180  0.1454
  149SAPE   H4R16436   3.059   5.664   6.930 -0.2460  0.2797  0.2196
  149SAPE   H4S16437   2.906   5.685   7.007 -1.1367 -0.3626 -0.5708
  149SAPE   C2516438   3.047   5.829   7.066  0.5802 -0.5119 -0.6673
  149SAPE   H5R16439   3.137   5.874   7.023  2.1711 -2.0475  0.8976
  149SAPE   C2616440   2.996   5.858   7.185  0.0790  0.5558 -0.6856
  149SAPE   H6R16441   3.052   5.921   7.255 -0.8468 -1.2008  1.7629
  149SAPE   C2716442   2.871   5.809   7.242 -0.1299 -0.3778  0.2423
  149SAPE   H7R16443   2.796   5.824   7.162 -2.3970  0.9214  2.4657
  149SAPE   H7S16444   2.836   5.868   7.329 -1.1300  0.8860 -0.9638
  149SAPE   C2816445   2.878   5.664   7.284  0.2258  0.4226 -0.6467
  149SAPE   H8R16446   2.927   5.597   7.211  1.7864  0.7737  0.0376
  149SAPE   C2916447   2.831   5.605   7.399 -0.1298 -0.3175  0.4533
  149SAPE   H9R16448   2.849   5.498   7.419  0.9491 -0.1408  0.5380
  149SAPE  C21016449   2.771   5.670   7.520 -0.4918 -0.3067 -0.4053
  149SAPE  H10R16450   2.675   5.619   7.542 -0.8292  0.0418 -1.0603
  149SAPE  H10S16451   2.754   5.777   7.495  1.3348  0.2190  0.3544
  149SAPE  C21116452   2.876   5.677   7.629  0.0396  0.1385 -0.0396
  149SAPE  H11R16453   2.951   5.755   7.613 -0.9737  0.7266 -2.3310
  149SAPE  C21216454   2.882   5.586   7.733 -0.5168  0.4050 -0.5814
  149SAPE  H12R16455   2.970   5.595   7.797 -0.1101  1.6092 -1.2915
  149SAPE  C21316456   2.779   5.476   7.767 -0.9460 -0.1684  0.1736
  149SAPE  H13R16457   2.821   5.375   7.747 -3.1808 -0.7667 -1.8827
  149SAPE  H13S16458   2.699   5.470   7.691 -3.0982  0.8169  2.2498
  149SAPE  C21416459   2.717   5.490   7.905 -0.7643 -0.7578  0.9291
  149SAPE  H14R16460   2.620   5.542   7.897 -1.5910 -2.4853 -1.4652
  149SAPE  C21516461   2.755   5.433   8.025  0.2900  0.2947  0.6313
  149SAPE  H15R16462   2.699   5.462   8.115 -0.6056  0.4171  0.0544
  149SAPE  C21616463   2.872   5.345   8.048  0.6263 -0.4010 -0.0535
  149SAPE  H16R16464   2.935   5.405   8.117  0.1465 -0.2544  0.2644
  149SAPE  H16S16465   2.946   5.345   7.965  0.8777 -1.2472  0.1678
  149SAPE  C21716466   2.822   5.214   8.086 -0.1872 -0.1060  0.2551
  149SAPE  H17R16467   2.898   5.143   8.126 -1.3650 -0.6380  1.6331
  149SAPE  H17S16468   2.766   5.161   8.006  0.7438 -2.5369  1.1074
  149SAPE  C21816469   2.717   5.211   8.203 -0.2225  0.3960 -0.0511
  149SAPE  H18R16470   2.620   5.260   8.182 -0.1759  2.1050  3.1251
  149SAPE  H18S16471   2.768   5.254   8.292  2.0031 -3.2275  0.6543
  149SAPE  C21916472   2.692   5.065   8.244  0.0026 -0.7473 -0.4078
  149SAPE  H19R16473   2.787   5.009   8.251  0.6964 -0.0087 -2.8406
  149SAPE  H19S16474   2.638   5.009   8.165  0.7306 -1.3405 -0.4945
  149SAPE  C22016475   2.614   5.055   8.375 -0.8076 -0.0008 -0.0736
  149SAPE  H20R16476   2.672   5.115   8.448  1.0615 -1.4071 -0.3149
  149SAPE  H20S16477   2.610   4.948   8.406 -0.3389  0.3944  1.4158
  149SAPE  H20T16478   2.508   5.088   8.367 -1.5303 -2.5285 -2.2278
  149SAPE   C3316479   3.515   5.455   7.069 -0.5493  0.2268 -0.3194
  149SAPE   H3X16480   3.583   5.540   7.048 -0.7522  0.5118  0.1597
  149SAPE   H3Y16481   3.566   5.364   7.031  1.8006  1.8144 -1.1905
  149SAPE   C3416482   3.485   5.444   7.218 -0.2213 -0.3160  0.5382
  149SAPE   H4X16483   3.424   5.355   7.241 -0.1420 -0.6199 -0.3856
  149SAPE   H4Y16484   3.424   5.532   7.249 -0.2988  0.2492 -1.0887
  149SAPE   C3516485   3.614   5.433   7.301 -0.3275  0.3640  0.0817
  149SAPE   H5X16486   3.687   5.508   7.264 -0.5144 -0.0581 -1.1779
  149SAPE   H5Y16487   3.669   5.341   7.271 -0.2474  1.0515 -2.0311
  149SAPE   C3616488   3.595   5.432   7.450  0.2158  0.2018  0.7187
  149SAPE   H6X16489   3.543   5.341   7.486  0.5426 -1.2124 -2.0906
  149SAPE   H6Y16490   3.529   5.516   7.481 -0.4521 -0.0949  0.1250
  149SAPE   C3716491   3.726   5.467   7.534 -0.0574  0.1266  0.5676
  149SAPE   H7X16492   3.746   5.575   7.519  2.9326 -0.6626 -2.4287
  149SAPE   H7Y16493   3.806   5.409   7.482 -0.8773  0.2073 -0.8450
  149SAPE   C3816494   3.712   5.455   7.683  0.8900 -0.5624 -0.6375
  149SAPE   H8X16495   3.632   5.523   7.719 -0.3454 -2.2877  0.0024
  149SAPE   H8Y16496   3.801   5.502   7.730  0.3737  0.9574 -1.1077
  149SAPE   C3916497   3.694   5.310   7.740  0.1672 -0.1457 -0.1838
  149SAPE   H9X16498   3.788   5.256   7.716  0.3792  0.1200  0.0288
  149SAPE   H9Y16499   3.608   5.262   7.690  1.3796 -1.0831 -1.4542
  149SAPE  C31016500   3.680   5.313   7.889  0.2272 -0.2559 -0.4240
  149SAPE  H10X16501   3.608   5.233   7.917  0.8996 -1.0353 -0.8942
  149SAPE  H10Y16502   3.627   5.408   7.909  0.9216 -0.1049  0.7960
  149SAPE  C31116503   3.806   5.310   7.977 -0.4585  0.1422  0.6617
  149SAPE  H11X16504   3.879   5.378   7.927 -0.3913  0.4956  1.2396
  149SAPE  H11Y16505   3.852   5.209   7.969 -1.3669 -0.1878 -0.7920
  149SAPE  C31216506   3.783   5.346   8.123  0.1639  0.9297 -0.4985
  149SAPE  H12X16507   3.730   5.260   8.169  2.4118 -0.4290 -0.3224
  149SAPE  H12Y16508   3.722   5.440   8.128  0.9966  1.3995  1.6692
  149SAPE  C31316509   3.914   5.359   8.196 -0.3151  0.3056 -0.5844
  149SAPE  H13X16510   3.986   5.439   8.166  2.5052 -1.2973  1.3797
  149SAPE  H13Y16511   3.973   5.266   8.180 -0.6679  0.1697 -1.0941
  149SAPE  C31416512   3.902   5.377   8.350  0.3378  1.2556  0.3985
  149SAPE  H14X16513   3.822   5.308   8.387 -0.6401  1.8029 -0.6205
  149SAPE  H14Y16514   3.861   5.474   8.386  0.9589  0.9646  1.9654
  149SAPE  C31516515   4.032   5.338   8.420  0.1060 -0.1382  0.7162
  149SAPE  H15X16516   4.110   5.406   8.380  0.0371 -0.0848  0.6729
  149SAPE  H15Y16517   4.065   5.233   8.400  4.4620  1.0139  0.8185
  149SAPE  C31616518   4.026   5.358   8.572 -0.0174  0.2088  0.2953
  149SAPE  H16X16519   3.944   5.294   8.611 -1.1108  1.2928 -0.1331
  149SAPE  H16Y16520   3.996   5.458   8.610  0.1268  0.7270 -0.8933
  149SAPE  C31716521   4.151   5.325   8.648  0.2324  0.2476  0.0333
  149SAPE  H17X16522   4.223   5.401   8.612 -0.8678  1.4370  0.2804
  149SAPE  H17Y16523   4.183   5.225   8.612 -0.2855  0.8578 -2.3211
  149SAPE  C31816524   4.138   5.348   8.792  0.4056  0.2104  0.4344
  149SAPE  H18X16525   4.062   5.283   8.841 -1.4592  0.4942 -1.8791
  149SAPE  H18Y16526   4.111   5.453   8.817 -2.2618 -0.4341  0.5651
  149SAPE  H18Z16527   4.236   5.324   8.838 -0.3365 -0.3618  1.7723
  150SAPE     N16528   3.796   2.246   6.479 -0.5208 -0.2301 -0.1680
  150SAPE   HN116529   3.747   2.193   6.404 -0.6572  0.9918 -0.9632
  150SAPE   HN216530   3.881   2.198   6.515 -0.0159  0.2965 -0.6355
  150SAPE   HN316531   3.732   2.245   6.561  2.8936 -0.8658  2.7450
  150SAPE   C1216532   3.855   2.380   6.449 -0.2929  0.5323 -0.8295
  150SAPE  H12A16533   3.945   2.359   6.386  1.0891  1.0661  0.8874
  150SAPE  H12B16534   3.892   2.425   6.543 -1.1390 -0.0644 -0.1983
  150SAPE   C1116535   3.743   2.480   6.404 -0.0552 -0.1685  0.1164
  150SAPE  H11A16536   3.705   2.456   6.303  1.1280 -0.6261 -0.2378
  150SAPE  H11B16537   3.793   2.579   6.405  1.1659 -0.7449 -1.1166
  150SAPE     P16538   3.497   2.522   6.467  0.1427  0.2635  0.0376
  150SAPE   O1316539   3.513   2.602   6.345  0.6233 -0.2932  0.2699
  150SAPE   O1416540   3.407   2.405   6.454  0.2201  0.4938 -0.3002
  150SAPE   O1216541   3.637   2.472   6.507  0.8662  0.2346 -0.1010
  150SAPE   O1116542   3.438   2.605   6.582 -0.1074  0.1713 -0.2281
  150SAPE    C116543   3.526   2.692   6.655  0.4592  0.5102 -0.1215
  150SAPE    HA16544   3.624   2.699   6.603  0.3168 -2.3382 -0.9201
  150SAPE    HB16545   3.476   2.791   6.662 -0.1305  0.2034  0.1029
  150SAPE    C216546   3.554   2.636   6.799 -0.2957  0.2345 -0.6458
  150SAPE    HS16547   3.604   2.541   6.770 -0.3407  0.3751 -1.1916
  150SAPE   O2116548   3.438   2.627   6.880  0.0657 -0.2867  0.0186
  150SAPE   C2116549   3.395   2.502   6.909  0.3264 -0.4188 -0.0724
  150SAPE   O2216550   3.427   2.405   6.842 -0.0418  0.3490  0.6014
  150SAPE   C2216551   3.286   2.499   7.018  0.6069  0.5793  0.5973
  150SAPE   H2R16552   3.230   2.595   7.025  0.8915  0.8141 -0.2272
  150SAPE   H2S16553   3.220   2.419   6.980  2.3157 -0.0218 -1.2703
  150SAPE    C316554   3.671   2.716   6.870 -0.0980  0.4449  0.8566
  150SAPE    HX16555   3.632   2.815   6.900 -0.4564  0.6517 -0.2239
  150SAPE    HY16556   3.748   2.740   6.793  0.4064  0.6105  1.4033
  150SAPE   O3116557   3.716   2.657   6.999  0.1717 -0.6564  0.6640
  150SAPE   C3116558   3.814   2.568   6.977  0.1108  0.2537 -0.1849
  150SAPE   O3216559   3.842   2.514   6.870  0.0070 -0.2425 -0.1071
  150SAPE   C3216560   3.877   2.538   7.110  0.8286  0.2328 -0.4344
  150SAPE   H2X16561   3.792   2.528   7.181  2.3531 -2.1959  1.2070
  150SAPE   H2Y16562   3.950   2.618   7.134  0.0096  1.4400 -1.8400
  150SAPE   C2316563   3.352   2.464   7.152  0.6848 -0.2072  0.9867
  150SAPE   H3R16564   3.435   2.392   7.141  2.4431  1.7698  0.5719
  150SAPE   H3S16565   3.272   2.413   7.210  0.7201 -0.0649  1.1623
  150SAPE   C2416566   3.408   2.582   7.227  0.1098  0.1428  0.3893
  150SAPE   H4R16567   3.321   2.650   7.240 -1.4794 -1.4979 -1.0844
  150SAPE   H4S16568   3.479   2.631   7.157  0.4963 -1.1842 -0.1753
  150SAPE   C2516569   3.473   2.556   7.362  0.8749  0.1888  0.1062
  150SAPE   H5R16570   3.452   2.455   7.401  1.7159 -0.1287 -0.2499
  150SAPE   C2616571   3.524   2.657   7.433  0.1139 -0.3523  0.4001
  150SAPE   H6R16572   3.579   2.643   7.527  0.6755  4.0263  0.9232
  150SAPE   C2716573   3.535   2.793   7.384  0.1955  0.4613  0.4651
  150SAPE   H7R16574   3.533   2.860   7.473 -2.0348 -2.3797  2.7683
  150SAPE   H7S16575   3.447   2.814   7.319  0.3458 -0.6225 -0.1068
  150SAPE   C2816576   3.649   2.821   7.289  0.0042  0.0209 -0.1996
  150SAPE   H8R16577   3.706   2.737   7.245  0.4033 -0.1155  0.5705
  150SAPE   C2916578   3.688   2.947   7.263  0.4019  0.1912  0.4693
  150SAPE   H9R16579   3.781   2.964   7.207  0.5364 -0.4040  0.5032
  150SAPE  C21016580   3.620   3.069   7.323  0.5308  0.0762 -0.2209
  150SAPE  H10R16581   3.612   3.056   7.433 -0.1695 -3.6228 -0.5870
  150SAPE  H10S16582   3.520   3.047   7.281  0.8663  0.5400 -1.2896
  150SAPE  C21116583   3.656   3.209   7.271 -0.2063  0.5999  0.8373
  150SAPE  H11R16584   3.643   3.230   7.164 -1.8788 -0.0227  0.8969
  150SAPE  C21216585   3.696   3.306   7.353 -0.4717  0.1254 -0.3045
  150SAPE  H12R16586   3.727   3.405   7.315  2.4724  0.0860  1.6302
  150SAPE  C21316587   3.727   3.300   7.504  0.7529  0.2881  0.0123
  150SAPE  H13R16588   3.824   3.349   7.525  1.2459 -0.5405 -0.2648
  150SAPE  H13S16589   3.746   3.193   7.527 -1.9254 -0.6016 -1.4353
  150SAPE  C21416590   3.600   3.352   7.578 -0.6832  0.6396 -0.1559
  150SAPE  H14R16591   3.511   3.364   7.514 -0.8939 -3.2219 -0.8265
  150SAPE  C21516592   3.600   3.374   7.710  0.1976  0.5000 -0.4602
  150SAPE  H15R16593   3.510   3.418   7.756 -0.2143  0.1854 -0.9546
  150SAPE  C21616594   3.707   3.348   7.812  0.1561  0.3828  0.6323
  150SAPE  H16R16595   3.784   3.428   7.803  2.5283 -1.7166  0.9970
  150SAPE  H16S16596   3.762   3.256   7.782 -0.4436  0.0205  0.6412
  150SAPE  C21716597   3.658   3.329   7.957  0.1924  0.1866 -0.1864
  150SAPE  H17R16598   3.594   3.419   7.971  0.9062  0.7438 -0.4063
  150SAPE  H17S16599   3.747   3.343   8.022  1.1838 -0.7496 -1.2976
  150SAPE  C21816600   3.603   3.199   7.984 -0.3657  0.3181 -0.1438
  150SAPE  H18R16601   3.678   3.117   7.983 -1.6987 -0.9564  0.3258
  150SAPE  H18S16602   3.526   3.167   7.911  0.0883 -1.6907  0.2202
  150SAPE  C21916603   3.523   3.194   8.121 -0.1192 -0.1829  0.7035
  150SAPE  H19R16604   3.487   3.090   8.137  1.4075 -1.2579 -2.1095
  150SAPE  H19S16605   3.429   3.252   8.110  1.0837  1.8409  0.6622
  150SAPE  C22016606   3.603   3.237   8.244 -0.4155 -0.3708 -0.2794
  150SAPE  H20R16607   3.541   3.209   8.332  1.3050 -0.3482  0.9734
  150SAPE  H20S16608   3.624   3.346   8.247 -0.0858 -0.4479  0.8393
  150SAPE  H20T16609   3.694   3.175   8.245  0.4980  0.9274 -0.5775
  150SAPE   C3316610   3.927   2.392   7.124 -0.6137  0.0684 -0.2184
  150SAPE   H3X16611   4.022   2.393   7.066 -0.9655  0.9124 -0.7984
  150SAPE   H3Y16612   3.865   2.305   7.094 -2.0007  1.3029 -1.0396
  150SAPE   C3416613   3.965   2.359   7.269  0.5034 -0.2866 -0.3169
  150SAPE   H4X16614   3.987   2.455   7.320 -0.1070 -0.3246  0.0156
  150SAPE   H4Y16615   4.051   2.289   7.280  1.2050  0.9317  3.3490
  150SAPE   C3516616   3.844   2.311   7.353  0.0589  0.3643 -0.5518
  150SAPE   H5X16617   3.806   2.211   7.325  0.5204 -0.3613  1.2580
  150SAPE   H5Y16618   3.756   2.377   7.345 -0.9288 -0.7287  0.8578
  150SAPE   C3616619   3.869   2.324   7.509 -0.6702  0.0331 -0.9660
  150SAPE   H6X16620   3.895   2.429   7.536  0.4377  0.4517 -3.3502
  150SAPE   H6Y16621   3.964   2.270   7.530 -1.2860 -0.8197 -0.3065
  150SAPE   C3716622   3.756   2.259   7.593  0.0939 -0.0704  0.4585
  150SAPE   H7X16623   3.714   2.174   7.533  0.3486 -0.3238  0.6372
  150SAPE   H7Y16624   3.671   2.330   7.593  1.0378  1.1498 -1.4558
  150SAPE   C3816625   3.801   2.209   7.726  0.3447 -0.2764  0.1076
  150SAPE   H8X16626   3.897   2.156   7.713 -0.0748 -2.0697  3.2608
  150SAPE   H8Y16627   3.728   2.132   7.758 -0.1678  0.5615  1.0509
  150SAPE   C3916628   3.825   2.314   7.833 -0.1927 -1.0623 -0.1334
  150SAPE   H9X16629   3.732   2.373   7.848  0.3324  0.2315 -1.6979
  150SAPE   H9Y16630   3.907   2.380   7.800  0.6232 -1.3815  1.1722
  150SAPE  C31016631   3.863   2.242   7.964  0.1753  0.3793  0.1665
  150SAPE  H10X16632   3.951   2.175   7.946 -0.4015 -0.0887 -1.0311
  150SAPE  H10Y16633   3.768   2.189   7.988 -0.1874  0.7835 -0.3497
  150SAPE  C31116634   3.892   2.332   8.081  0.1703  0.7534 -0.2515
  150SAPE  H11X16635   3.807   2.403   8.086 -0.4416 -0.0283  1.0670
  150SAPE  H11Y16636   3.987   2.389   8.077  0.7391 -0.0720  0.9439
  150SAPE  C31216637   3.876   2.252   8.218 -0.2007  0.2804 -0.2566
  150SAPE  H12X16638   3.958   2.178   8.231 -0.9830 -0.9402 -2.0106
  150SAPE  H12Y16639   3.789   2.184   8.212  1.2267 -1.5984 -0.8140
  150SAPE  C31316640   3.886   2.337   8.352 -0.7236 -0.5066 -0.4730
  150SAPE  H13X16641   3.808   2.416   8.360 -1.5855 -1.4576  0.7957
  150SAPE  H13Y16642   3.982   2.393   8.356 -0.1732 -1.2392 -2.2198
  150SAPE  C31416643   3.871   2.244   8.472 -0.5094 -0.3775  0.3179
  150SAPE  H14X16644   3.958   2.176   8.465  0.6799  0.8928  1.9818
  150SAPE  H14Y16645   3.778   2.185   8.457  0.3154 -1.5708 -0.2433
  150SAPE  C31516646   3.854   2.325   8.600  0.4013  0.3374 -0.7330
  150SAPE  H15X16647   3.765   2.391   8.605 -0.8675 -1.3449  0.3744
  150SAPE  H15Y16648   3.938   2.397   8.600  1.4080 -0.7987  0.0020
  150SAPE  C31616649   3.857   2.245   8.733  0.4120 -0.0240 -0.4084
  150SAPE  H16X16650   3.954   2.193   8.751  0.0367 -0.0073  2.0166
  150SAPE  H16Y16651   3.775   2.170   8.745  2.4904 -2.2886  0.5232
  150SAPE  C31716652   3.837   2.340   8.859 -0.7075 -0.3219  0.5655
  150SAPE  H17X16653   3.777   2.278   8.929 -1.1967 -1.2477 -0.6332
  150SAPE  H17Y16654   3.768   2.420   8.828 -1.0115 -1.4755 -1.9484
  150SAPE  C31816655   3.968   2.397   8.917  0.2965  0.2711  0.7446
  150SAPE  H18X16656   4.055   2.328   8.925  2.9959  3.4839  1.2778
  150SAPE  H18Y16657   3.946   2.427   9.022 -2.7772  1.4031 -0.1137
  150SAPE  H18Z16658   3.996   2.482   8.851 -0.5809 -0.7121 -0.9564
  151SAPE     N16659   6.826   4.991   6.408 -0.8055  0.1783 -0.5921
  151SAPE   HN116660   6.842   5.089   6.440  0.3805 -0.4602  0.9058
  151SAPE   HN216661   6.762   4.976   6.328 -0.3873 -0.5296 -0.8047
  151SAPE   HN316662   6.787   4.945   6.493 -1.6115  1.9479  0.0600
  151SAPE   C1216663   6.966   4.931   6.390 -0.8291 -0.3694 -0.1856
  151SAPE  H12A16664   6.943   4.825   6.367 -0.0000 -0.2837 -1.5866
  151SAPE  H12B16665   7.006   4.937   6.494 -0.6728 -2.6222 -0.0541
  151SAPE   C1116666   7.056   5.007   6.295  0.3016  0.5981 -0.4301
  151SAPE  H11A16667   7.004   5.026   6.199  1.0265  0.1714 -0.9209
  151SAPE  H11B16668   7.145   4.945   6.269 -0.1148 -0.4866  0.6918
  151SAPE     P16669   7.026   5.263   6.307  0.2032  0.0922 -0.1532
  151SAPE   O1316670   7.048   5.299   6.164 -0.2340  0.5218 -0.6188
  151SAPE   O1416671   6.885   5.247   6.354  0.1627 -0.0299 -0.1208
  151SAPE   O1216672   7.104   5.131   6.347  0.1433 -0.2725  0.5364
  151SAPE   O1116673   7.104   5.368   6.396  0.5440 -0.0125  0.2204
  151SAPE    C116674   7.192   5.332   6.502 -0.0389  0.8561 -0.4212
  151SAPE    HA16675   7.277   5.281   6.453 -1.4229 -1.5934 -0.3942
  151SAPE    HB16676   7.239   5.423   6.545  0.6323 -0.8427  2.7669
  151SAPE    C216677   7.128   5.266   6.624 -0.7285 -0.0394 -0.6220
  151SAPE    HS16678   7.112   5.159   6.598  0.5747 -0.9846  2.1024
  151SAPE   O2116679   7.007   5.345   6.652  0.5004  0.2201  0.0140
  151SAPE   C2116680   6.899   5.275   6.688 -0.4184  0.4096  0.1180
  151SAPE   O2216681   6.897   5.155   6.700  0.2499  0.4389  0.9833
  151SAPE   C2216682   6.783   5.362   6.712  0.8895 -0.4251 -0.0422
  151SAPE   H2R16683   6.761   5.414   6.616 -0.1549  1.1812  1.0032
  151SAPE   H2S16684   6.698   5.302   6.750  1.4706  0.1868  2.4622
  151SAPE    C316685   7.219   5.264   6.749  1.2958  0.9304  0.2468
  151SAPE    HX16686   7.231   5.371   6.777  0.6234  0.9637  0.4358
  151SAPE    HY16687   7.321   5.223   6.736  0.6004 -0.0439 -2.8917
  151SAPE   O3116688   7.143   5.202   6.853 -0.9468  0.0531  0.0775
  151SAPE   C3116689   7.169   5.076   6.886 -0.2078  0.2762  0.0130
  151SAPE   O3216690   7.252   5.007   6.836  0.7812 -0.0073 -0.1433
  151SAPE   C3216691   7.088   5.053   7.012 -0.2123  0.6095  0.3216
  151SAPE   H2X16692   6.977   5.059   7.001 -0.3376 -1.1088  0.3611
  151SAPE   H2Y16693   7.118   5.134   7.083 -0.7455  0.0343  1.2312
  151SAPE   C2316694   6.826   5.469   6.817  0.3653  0.6852 -0.5096
  151SAPE   H3R16695   6.734   5.526   6.842  0.9480  0.9587  1.1486
  151SAPE   H3S16696   6.890   5.545   6.768  1.4539  0.3131  0.2978
  151SAPE   C2416697   6.902   5.418   6.939  0.4228  0.3076  0.1438
  151SAPE   H4R16698   7.002   5.396   6.896  1.1693  2.1207  0.8823
  151SAPE   H4S16699   6.849   5.326   6.972  1.7588 -0.8149 -0.7014
  151SAPE   C2516700   6.905   5.519   7.054 -0.4169  0.1429  0.5027
  151SAPE   H5R16701   6.919   5.626   7.038 -1.1266  0.2557  0.5916
  151SAPE   C2616702   6.902   5.495   7.188  0.2305  0.1291  0.1110
  151SAPE   H6R16703   6.909   5.582   7.255 -0.7092 -1.7083  2.7949
  151SAPE   C2716704   6.892   5.366   7.266 -0.4604 -0.6941 -0.0255
  151SAPE   H7R16705   6.971   5.378   7.343 -1.0626  1.7683  0.2915
  151SAPE   H7S16706   6.935   5.286   7.202  2.7198  0.0165  1.0146
  151SAPE   C2816707   6.750   5.347   7.309 -0.0054 -0.2383  0.5255
  151SAPE   H8R16708   6.686   5.299   7.234 -1.1474  1.9635 -0.0153
  151SAPE   C2916709   6.687   5.385   7.423  0.1115  0.0242  1.2003
  151SAPE   H9R16710   6.580   5.358   7.427 -0.1831  1.0964  0.7970
  151SAPE  C21016711   6.756   5.458   7.537  0.0608 -0.3080 -0.0058
  151SAPE  H10R16712   6.867   5.462   7.532  0.2674 -0.9619  2.4131
  151SAPE  H10S16713   6.723   5.406   7.630  1.0577  1.2216  1.2349
  151SAPE  C21116714   6.697   5.591   7.559 -0.5305  0.5984 -0.0500
  151SAPE  H11R16715   6.589   5.584   7.583 -0.5900 -0.4110 -0.5630
  151SAPE  C21216716   6.760   5.706   7.555  0.4369 -0.1105 -0.0493
  151SAPE  H12R16717   6.707   5.799   7.580  1.6532  1.0285 -1.5786
  151SAPE  C21316718   6.906   5.720   7.518 -0.0918 -0.8940  1.0332
  151SAPE  H13R16719   6.922   5.815   7.463 -0.8704 -1.0097  0.5815
  151SAPE  H13S16720   6.927   5.654   7.431  1.1469  1.3700 -0.4816
  151SAPE  C21416721   7.003   5.701   7.631 -0.1445 -0.3332  0.8117
  151SAPE  H14R16722   6.957   5.714   7.730 -0.2268  1.2419  0.5909
  151SAPE  C21516723   7.136   5.678   7.618  0.5297 -0.0249 -0.0831
  151SAPE  H15R16724   7.194   5.657   7.709  1.0987  2.2876  0.1536
  151SAPE  C21616725   7.203   5.665   7.479 -0.2186 -0.0915  0.4866
  151SAPE  H16R16726   7.297   5.724   7.488 -0.6000  0.6242 -0.1349
  151SAPE  H16S16727   7.151   5.714   7.395 -0.8201 -1.7389 -0.1374
  151SAPE  C21716728   7.245   5.528   7.441  0.3211  0.1109 -0.1492
  151SAPE  H17R16729   7.162   5.458   7.464  0.1304  0.4162  0.0960
  151SAPE  H17S16730   7.330   5.492   7.502 -2.5287 -1.7109  3.0782
  151SAPE  C21816731   7.260   5.512   7.289 -0.3823 -0.4704  0.5646
  151SAPE  H18R16732   7.359   5.555   7.261 -0.1424 -1.7873 -0.7139
  151SAPE  H18S16733   7.185   5.566   7.229 -0.8594  2.6745  3.6556
  151SAPE  C21916734   7.271   5.363   7.247 -0.4124 -0.9074 -0.0896
  151SAPE  H19R16735   7.186   5.304   7.288 -1.2208  0.7533  0.7116
  151SAPE  H19S16736   7.362   5.319   7.291 -1.9307 -1.7794  2.3991
  151SAPE  C22016737   7.276   5.352   7.092  0.1655 -0.2774  0.7211
  151SAPE  H20R16738   7.367   5.410   7.065  0.6353 -1.1912  0.2813
  151SAPE  H20S16739   7.294   5.248   7.059 -2.9840 -0.8263  0.3650
  151SAPE  H20T16740   7.188   5.387   7.034  1.1993  0.9023 -0.2045
  151SAPE   C3316741   7.119   4.920   7.081 -0.2639  0.3030  0.3590
  151SAPE   H3X16742   7.222   4.879   7.071 -0.3115 -0.0101  1.0541
  151SAPE   H3Y16743   7.049   4.839   7.052  2.4584 -2.6906  1.4622
  151SAPE   C3416744   7.097   4.945   7.233  1.0026  0.1112  0.6064
  151SAPE   H4X16745   7.056   4.854   7.281 -0.6450  1.7333  2.4069
  151SAPE   H4Y16746   7.014   5.018   7.235 -0.8953 -1.9758  1.5932
  151SAPE   C3516747   7.217   4.991   7.321 -0.6298 -0.1396 -0.2229
  151SAPE   H5X16748   7.261   5.084   7.278 -0.7432 -0.1701 -0.4081
  151SAPE   H5Y16749   7.300   4.918   7.304  0.8185  1.1803  0.9548
  151SAPE   C3616750   7.176   5.000   7.472  0.3363  0.0482  0.2145
  151SAPE   H6X16751   7.271   4.989   7.529  0.0947 -0.4498  0.5329
  151SAPE   H6Y16752   7.109   4.914   7.497 -1.0379  0.8893 -0.4729
  151SAPE   C3716753   7.118   5.133   7.520 -0.4012  0.6055  0.0180
  151SAPE   H7X16754   7.021   5.143   7.467 -0.1862 -0.1144 -0.5364
  151SAPE   H7Y16755   7.189   5.215   7.494  1.0164 -0.1669  1.2670
  151SAPE   C3816756   7.092   5.141   7.672 -0.2898 -0.8295  0.2126
  151SAPE   H8X16757   7.193   5.136   7.718  0.4375 -0.5732 -1.2907
  151SAPE   H8Y16758   7.026   5.059   7.708 -3.4559  1.7750  0.9058
  151SAPE   C3916759   7.015   5.265   7.717  0.0927  0.0198  0.5975
  151SAPE   H9X16760   6.931   5.280   7.645  1.3344 -0.8369 -1.0875
  151SAPE   H9Y16761   7.074   5.354   7.686  0.1383 -0.6175 -1.2540
  151SAPE  C31016762   6.982   5.258   7.866  0.7076 -0.1062 -0.1933
  151SAPE  H10X16763   7.070   5.241   7.931  0.5628 -1.8327 -0.3947
  151SAPE  H10Y16764   6.913   5.171   7.879 -0.8044  0.8783 -1.2557
  151SAPE  C31116765   6.915   5.382   7.923 -0.2691 -0.2002  0.2027
  151SAPE  H11X16766   6.860   5.418   7.833 -0.1830 -0.4610  0.0446
  151SAPE  H11Y16767   6.979   5.469   7.949  0.4835 -0.4527 -0.7379
  151SAPE  C31216768   6.824   5.347   8.031  0.1178  0.3401 -0.2222
  151SAPE  H12X16769   6.749   5.269   8.005  2.1198 -1.9717  0.5233
  151SAPE  H12Y16770   6.771   5.434   8.075  0.5872  0.1770  0.6942
  151SAPE  C31316771   6.904   5.309   8.160  0.3869 -0.0963 -0.3774
  151SAPE  H13X16772   6.980   5.384   8.192  0.7424 -1.0224  1.0947
  151SAPE  H13Y16773   6.955   5.211   8.142 -0.8404 -0.9734  0.7007
  151SAPE  C31416774   6.812   5.276   8.278 -0.4536 -0.6837  0.1309
  151SAPE  H14X16775   6.735   5.198   8.260  0.5857 -2.0527  1.4662
  151SAPE  H14Y16776   6.735   5.357   8.283 -0.3060 -0.5123 -0.3560
  151SAPE  C31516777   6.868   5.249   8.421 -0.1157  0.6105  0.0120
  151SAPE  H15X16778   6.927   5.329   8.471 -0.3541 -1.7185  4.5300
  151SAPE  H15Y16779   6.935   5.160   8.417 -0.6384  0.0651  2.3323
  151SAPE  C31616780   6.752   5.216   8.519  0.2946 -0.1246  0.8067
  151SAPE  H16X16781   6.688   5.145   8.463  1.7003 -0.0996 -0.9082
  151SAPE  H16Y16782   6.688   5.305   8.537 -1.4479 -1.4122  1.2890
  151SAPE  C31716783   6.798   5.171   8.659 -0.4787  0.3331  0.3604
  151SAPE  H17X16784   6.873   5.242   8.700 -0.6186  0.4885  0.3553
  151SAPE  H17Y16785   6.858   5.080   8.642 -2.2005 -0.7276 -0.2641
  151SAPE  C31816786   6.698   5.154   8.771  0.5304 -0.4602 -0.4997
  151SAPE  H18X16787   6.620   5.233   8.767  0.3233 -0.4349  2.3288
  151SAPE  H18Y16788   6.743   5.177   8.870  1.2943 -1.4304 -0.6005
  151SAPE  H18Z16789   6.651   5.054   8.758 -2.3944  0.8141 -0.5304
  152SAPE     N16790   1.990   3.981   5.810  0.0376  0.0979 -0.1021
  152SAPE   HN116791   1.967   4.068   5.756 -0.2266 -0.5407 -1.0453
  152SAPE   HN216792   2.092   3.966   5.795 -0.2251 -1.0432 -0.8377
  152SAPE   HN316793   1.938   3.903   5.766 -3.1399  1.7860  0.3001
  152SAPE   C1216794   1.960   4.006   5.953  0.0523 -0.5554 -0.2673
  152SAPE  H12A16795   1.867   3.955   5.986 -2.7429  4.4295  0.5999
  152SAPE  H12B16796   1.955   4.117   5.954  1.3447 -0.4485 -1.9372
  152SAPE   C1116797   2.084   3.952   6.031 -0.1258  0.4784 -0.3798
  152SAPE  H11A16798   2.075   3.968   6.140 -1.3306 -2.6776  0.0789
  152SAPE  H11B16799   2.176   4.001   5.991  1.1262 -1.9435 -0.6927
  152SAPE     P16800   2.026   3.690   6.057 -0.2965 -0.4000  0.4532
  152SAPE   O1316801   1.903   3.691   5.979 -0.1327 -0.3303 -0.0160
  152SAPE   O1416802   2.108   3.568   6.054  0.0837 -0.1989 -0.2734
  152SAPE   O1216803   2.112   3.813   5.998  0.2977 -0.3083  0.0700
  152SAPE   O1116804   1.994   3.734   6.204 -0.1747 -0.2080  0.1783
  152SAPE    C116805   2.100   3.776   6.294 -0.8225  0.4216  0.2386
  152SAPE    HA16806   2.203   3.770   6.253 -0.9197 -0.7081  0.1238
  152SAPE    HB16807   2.093   3.885   6.316  0.4984 -0.0250  3.5389
  152SAPE    C216808   2.102   3.708   6.438  0.4902 -0.5652  0.2684
  152SAPE    HS16809   2.105   3.597   6.443 -0.4503 -0.5578  1.3999
  152SAPE   O2116810   1.984   3.756   6.504  0.2052  0.1632 -0.1505
  152SAPE   C2116811   1.891   3.669   6.537  0.3291 -0.4886 -0.8989
  152SAPE   O2216812   1.891   3.547   6.523 -0.2598 -0.8151  0.0347
  152SAPE   C2216813   1.770   3.746   6.598 -0.9272 -0.1982 -0.1472
  152SAPE   H2R16814   1.760   3.830   6.527  0.3870 -0.5243 -0.7659
  152SAPE   H2S16815   1.684   3.675   6.601  0.2253 -1.6583 -0.0738
  152SAPE    C316816   2.231   3.748   6.518  0.5280 -0.4046  0.6861
  152SAPE    HX16817   2.214   3.858   6.522 -0.2750 -0.4304 -1.0456
  152SAPE    HY16818   2.311   3.727   6.444  0.2106  0.9795 -0.0884
  152SAPE   O3116819   2.251   3.689   6.644 -0.5338  0.0197 -0.2352
  152SAPE   C3116820   2.315   3.775   6.736  0.1698  0.3215 -0.7973
  152SAPE   O3216821   2.359   3.884   6.702 -0.3541  0.2112  0.0778
  152SAPE   C3216822   2.333   3.713   6.869 -0.1812  0.5031  0.0040
  152SAPE   H2X16823   2.390   3.619   6.853 -2.3823 -1.4745  2.6945
  152SAPE   H2Y16824   2.234   3.671   6.898  0.8238 -1.6694  0.4464
  152SAPE   C2316825   1.827   3.808   6.728 -0.1213 -0.4383 -0.1368
  152SAPE   H3R16826   1.738   3.853   6.778 -0.7674 -0.8051 -0.9352
  152SAPE   H3S16827   1.904   3.887   6.715 -0.1922 -0.5902 -1.6179
  152SAPE   C2416828   1.876   3.699   6.826  0.6919  0.0802 -0.5289
  152SAPE   H4R16829   1.961   3.642   6.781  0.2647 -0.7483 -0.3179
  152SAPE   H4S16830   1.788   3.633   6.837  0.4739  0.4422 -0.0958
  152SAPE   C2516831   1.913   3.761   6.962 -0.1950 -0.1448  0.4519
  152SAPE   H5R16832   1.902   3.870   6.967  0.6902  0.0531 -1.1953
  152SAPE   C2616833   1.937   3.695   7.080  0.0757 -0.0362  0.2632
  152SAPE   H6R16834   1.954   3.748   7.175  2.5273  1.9695 -1.1707
  152SAPE   C2716835   1.927   3.548   7.097  0.3533  0.1458 -0.0884
  152SAPE   H7R16836   1.996   3.526   7.180  0.9008 -1.7448 -0.9811
  152SAPE   H7S16837   1.961   3.495   7.005  0.5021 -1.2641  0.7419
  152SAPE   C2816838   1.784   3.496   7.117 -0.6142 -0.4457 -0.5250
  152SAPE   H8R16839   1.718   3.510   7.031 -0.6250  1.5538 -0.2304
  152SAPE   C2916840   1.738   3.439   7.232 -1.0956  0.1691 -0.2674
  152SAPE   H9R16841   1.636   3.398   7.232  0.2868 -3.6679 -0.8914
  152SAPE  C21016842   1.829   3.416   7.354  0.2365 -0.6206  0.1440
  152SAPE  H10R16843   1.881   3.508   7.390 -0.3961  0.2811 -1.1562
  152SAPE  H10S16844   1.912   3.347   7.328  0.2394 -0.3145 -0.6885
  152SAPE  C21116845   1.757   3.340   7.464 -0.6568  0.5946  0.0159
  152SAPE  H11R16846   1.672   3.278   7.430 -1.6667  0.6130  2.2967
  152SAPE  C21216847   1.769   3.355   7.598 -1.1448 -0.6075  0.3784
  152SAPE  H12R16848   1.717   3.293   7.672 -1.9133 -2.0323 -1.2855
  152SAPE  C21316849   1.869   3.451   7.669  0.2679  1.0392 -0.0152
  152SAPE  H13R16850   1.795   3.516   7.721 -0.2349  0.6890 -0.2871
  152SAPE  H13S16851   1.932   3.511   7.600 -0.2234  1.8311  0.2029
  152SAPE  C21416852   1.977   3.374   7.742 -0.7280 -0.7108  0.5511
  152SAPE  H14R16853   2.067   3.351   7.683 -0.7258 -1.3840  0.8083
  152SAPE  C21516854   1.979   3.349   7.874 -0.1133 -0.5294 -0.0440
  152SAPE  H15R16855   2.051   3.279   7.919 -0.1165 -0.9082 -0.6076
  152SAPE  C21616856   1.869   3.396   7.972  0.2986  0.6518  0.3332
  152SAPE  H16R16857   1.768   3.356   7.951  0.5154  0.3199 -0.0953
  152SAPE  H16S16858   1.871   3.507   7.971 -0.2218  0.6881 -2.0719
  152SAPE  C21716859   1.902   3.351   8.115 -0.6847  0.7544 -0.7394
  152SAPE  H17R16860   1.835   3.403   8.186 -0.4216  0.4448 -0.2611
  152SAPE  H17S16861   2.006   3.380   8.142  0.0981 -1.6860 -0.8574
  152SAPE  C21816862   1.874   3.195   8.140  0.4281  0.1233  0.1730
  152SAPE  H18R16863   1.957   3.138   8.094 -0.6134 -1.6654  0.4395
  152SAPE  H18S16864   1.772   3.176   8.101 -0.4928 -0.7307  2.8204
  152SAPE  C21916865   1.876   3.166   8.291  0.6807 -0.7063 -0.0063
  152SAPE  H19R16866   1.796   3.232   8.333 -1.4604 -2.2638 -1.3878
  152SAPE  H19S16867   1.970   3.214   8.325 -0.2164  1.2472 -0.1241
  152SAPE  C22016868   1.841   3.027   8.345 -0.1569  0.1623 -0.3429
  152SAPE  H20R16869   1.829   3.017   8.455  2.7708  0.6977  0.1148
  152SAPE  H20S16870   1.918   2.950   8.323  0.5832  0.3755  1.3273
  152SAPE  H20T16871   1.748   2.997   8.292 -0.3167 -0.0836  0.0701
  152SAPE   C3316872   2.410   3.799   6.971  0.2244  0.1902  0.8974
  152SAPE   H3X16873   2.408   3.907   6.944 -2.4155 -0.0244 -0.1064
  152SAPE   H3Y16874   2.514   3.761   6.959 -0.6696 -1.5162 -3.1824
  152SAPE   C3416875   2.361   3.785   7.111 -0.8703  0.6895  0.8871
  152SAPE   H4X16876   2.250   3.794   7.106 -0.9604 -0.7531 -0.9568
  152SAPE   H4Y16877   2.393   3.867   7.178  0.5178  1.6608 -0.8911
  152SAPE   C3516878   2.388   3.645   7.176 -0.0391 -0.3412 -0.2349
  152SAPE   H5X16879   2.496   3.625   7.155 -0.4848 -1.9506 -1.1558
  152SAPE   H5Y16880   2.331   3.562   7.129 -2.1276  0.9577 -0.1167
  152SAPE   C3616881   2.364   3.642   7.332 -0.0817  0.0161  0.2648
  152SAPE   H6X16882   2.439   3.706   7.383 -1.0231 -0.3556  2.2139
  152SAPE   H6Y16883   2.374   3.541   7.377  0.5765 -0.0870 -0.1002
  152SAPE   C3716884   2.226   3.699   7.363  0.5672 -0.1872 -0.1539
  152SAPE   H7X16885   2.157   3.635   7.306  0.9581  0.8788 -1.8989
  152SAPE   H7Y16886   2.222   3.809   7.349  1.5006 -0.1825 -0.4776
  152SAPE   C3816887   2.191   3.669   7.510  0.5209  0.9085  0.2435
  152SAPE   H8X16888   2.222   3.566   7.539  1.6735  1.2777  0.3632
  152SAPE   H8Y16889   2.080   3.669   7.513  0.5096 -0.6835  1.3923
  152SAPE   C3916890   2.242   3.777   7.610  0.6276  0.7300  0.0746
  152SAPE   H9X16891   2.200   3.877   7.586  2.7483  2.2745  2.3141
  152SAPE   H9Y16892   2.350   3.802   7.602  1.0998  0.0157  3.0576
  152SAPE  C31016893   2.201   3.752   7.753  0.2731 -0.1049  0.4411
  152SAPE  H10X16894   2.090   3.745   7.756 -0.0229  2.6819 -0.8439
  152SAPE  H10Y16895   2.233   3.844   7.807  1.4376 -0.7560  0.8780
  152SAPE  C31116896   2.278   3.630   7.809  0.3696 -0.1089  0.4701
  152SAPE  H11X16897   2.377   3.611   7.763  0.2577  0.5711 -0.0732
  152SAPE  H11Y16898   2.221   3.539   7.782  2.5228 -1.2961 -0.2958
  152SAPE  C31216899   2.297   3.641   7.955 -0.0601 -0.4706 -0.6089
  152SAPE  H12X16900   2.214   3.597   8.014  0.2776 -0.0885  0.1729
  152SAPE  H12Y16901   2.319   3.746   7.986 -0.4265 -1.1912  2.3893
  152SAPE  C31316902   2.415   3.551   8.000  0.7086 -0.4435 -0.8219
  152SAPE  H13X16903   2.431   3.475   7.921 -0.5113 -0.4017 -1.1375
  152SAPE  H13Y16904   2.393   3.504   8.098 -0.2213 -1.1760 -1.3604
  152SAPE  C31416905   2.554   3.632   8.008  0.2437 -0.0814 -0.2174
  152SAPE  H14X16906   2.579   3.693   7.918  4.0665 -0.9137  0.1131
  152SAPE  H14Y16907   2.623   3.545   8.017 -2.0064 -2.2782 -2.6314
  152SAPE  C31516908   2.573   3.727   8.134  0.0281  0.0188  0.4764
  152SAPE  H15X16909   2.559   3.667   8.227 -0.2153 -1.4779 -0.4939
  152SAPE  H15Y16910   2.499   3.809   8.130  0.1949  0.1196 -1.4682
  152SAPE  C31616911   2.714   3.787   8.126  0.3646  0.5501  0.0954
  152SAPE  H16X16912   2.719   3.865   8.047  1.0645  0.1462 -0.2790
  152SAPE  H16Y16913   2.774   3.698   8.095  0.8927  0.7371  0.5603
  152SAPE  C31716914   2.770   3.840   8.258  0.4258  0.1979 -0.3251
  152SAPE  H17X16915   2.686   3.881   8.319  0.0433 -0.7482 -0.2084
  152SAPE  H17Y16916   2.848   3.919   8.252  2.2624 -1.4811  0.2794
  152SAPE  C31816917   2.844   3.730   8.342 -0.3231  0.5727  0.1813
  152SAPE  H18X16918   2.857   3.786   8.437  2.9260  2.6461 -1.2871
  152SAPE  H18Y16919   2.942   3.703   8.296 -1.2164 -0.2865 -1.2879
  152SAPE  H18Z16920   2.792   3.632   8.352  1.1455 -0.2794 -0.1445
  153SAPE     N16921   1.340   1.334   5.942  0.3187  0.5431  0.2568
  153SAPE   HN116922   1.268   1.265   5.971  1.1601 -0.3846  0.2102
  153SAPE   HN216923   1.316   1.382   5.853  0.7772 -2.1290 -1.4446
  153SAPE   HN316924   1.420   1.272   5.915 -0.9530 -1.4078  0.7437
  153SAPE   C1216925   1.382   1.427   6.056 -0.8997  0.1017 -0.2100
  153SAPE  H12A16926   1.308   1.507   6.077 -0.7790 -0.1315  1.2513
  153SAPE  H12B16927   1.476   1.476   6.022  0.0122 -0.8039  0.9294
  153SAPE   C1116928   1.410   1.353   6.192 -0.5352  0.4672 -0.1571
  153SAPE  H11A16929   1.460   1.425   6.261  0.0436  1.0684 -1.1770
  153SAPE  H11B16930   1.472   1.265   6.168  0.3790  0.4282  2.0581
  153SAPE     P16931   1.191   1.399   6.325  0.3479  0.4194  0.2539
  153SAPE   O1316932   1.140   1.506   6.237  0.2906  0.0476  0.2131
  153SAPE   O1416933   1.092   1.311   6.383 -0.1727  0.1754  0.2152
  153SAPE   O1216934   1.287   1.303   6.247 -0.5114 -0.7531 -0.2542
  153SAPE   O1116935   1.285   1.459   6.433 -0.3481 -0.4141  0.1821
  153SAPE    C116936   1.295   1.419   6.569  0.0523  0.2056  0.2059
  153SAPE    HA16937   1.208   1.455   6.627 -0.4473  0.9847 -1.0069
  153SAPE    HB16938   1.295   1.308   6.562 -1.0355 -0.0566  2.9046
  153SAPE    C216939   1.420   1.466   6.631 -0.7430 -0.4737 -0.3287
  153SAPE    HS16940   1.502   1.431   6.565  0.5557 -0.4906  1.2271
  153SAPE   O2116941   1.427   1.406   6.760  0.5472 -0.3842  0.2722
  153SAPE   C2116942   1.471   1.282   6.763 -0.1989 -0.5140 -0.0568
  153SAPE   O2216943   1.513   1.225   6.665 -0.2650 -0.4789 -0.0622
  153SAPE   C2216944   1.482   1.225   6.900 -0.0733 -0.4953  0.4799
  153SAPE   H2R16945   1.562   1.286   6.949  0.2926  0.1291 -0.8571
  153SAPE   H2S16946   1.384   1.230   6.952 -0.3004  1.9026 -0.0707
  153SAPE    C316947   1.440   1.620   6.647  0.6593 -0.2059  0.0658
  153SAPE    HX16948   1.340   1.642   6.690  0.4137  1.3727 -1.2380
  153SAPE    HY16949   1.459   1.667   6.548 -0.8989  0.9050  0.2571
  153SAPE   O3116950   1.542   1.659   6.745 -0.7525  0.0366  0.5916
  153SAPE   C3116951   1.666   1.629   6.704  0.2292  0.6927 -0.9077
  153SAPE   O3216952   1.688   1.569   6.599 -0.0881 -0.4775 -0.3485
  153SAPE   C3216953   1.762   1.681   6.800 -0.3766 -0.1295 -0.2946
  153SAPE   H2X16954   1.784   1.601   6.874 -2.4587 -0.8424 -0.4034
  153SAPE   H2Y16955   1.703   1.759   6.852 -0.5526 -0.4379 -0.0314
  153SAPE   C2316956   1.535   1.077   6.915  1.0050 -0.1664 -0.6942
  153SAPE   H3R16957   1.631   1.088   6.860  0.9978  0.2551 -0.6238
  153SAPE   H3S16958   1.460   1.006   6.875  0.8682 -1.0826  1.0937
  153SAPE   C2416959   1.566   1.041   7.062  0.4112  0.1441 -0.2540
  153SAPE   H4R16960   1.612   1.132   7.107  0.4391  0.0786 -0.1506
  153SAPE   H4S16961   1.636   0.955   7.070 -0.5161 -0.5128  1.2493
  153SAPE   C2516962   1.445   1.015   7.158 -0.2679  0.1327 -0.9069
  153SAPE   H5R16963   1.356   0.969   7.113 -1.0252  1.0115 -0.3306
  153SAPE   C2616964   1.433   1.046   7.290  0.0820  0.1219 -0.3284
  153SAPE   H6R16965   1.346   1.006   7.344  0.1128  1.4070  0.7401
  153SAPE   C2716966   1.530   1.120   7.386  0.8975  1.0269 -0.8386
  153SAPE   H7R16967   1.479   1.159   7.476  2.7141  1.8193 -0.1094
  153SAPE   H7S16968   1.564   1.208   7.327  2.9618  0.3971 -0.6851
  153SAPE   C2816969   1.669   1.051   7.408  0.1344 -0.2202  0.0230
  153SAPE   H8R16970   1.732   1.042   7.318  0.4129  2.1043 -0.0721
  153SAPE   C2916971   1.735   1.029   7.521 -0.7194 -0.2758 -0.1566
  153SAPE   H9R16972   1.834   0.981   7.528 -0.4894  0.3008  0.6647
  153SAPE  C21016973   1.676   1.055   7.654 -0.0624  0.6033  0.4196
  153SAPE  H10R16974   1.586   0.995   7.675  1.1262 -1.4097  0.0480
  153SAPE  H10S16975   1.637   1.158   7.665 -0.2113  0.5732  0.1854
  153SAPE  C21116976   1.766   1.022   7.767  0.3455 -0.3546  0.2062
  153SAPE  H11R16977   1.842   0.945   7.746 -0.6322 -0.9434 -1.3780
  153SAPE  C21216978   1.760   1.078   7.889 -0.6173 -0.3202  0.3519
  153SAPE  H12R16979   1.821   1.038   7.971 -0.2835 -2.4001 -0.8551
  153SAPE  C21316980   1.660   1.187   7.934  0.9794 -0.0881  0.1237
  153SAPE  H13R16981   1.603   1.149   8.022  2.7834  1.5558  2.1332
  153SAPE  H13S16982   1.577   1.196   7.861 -1.9472 -1.6994  2.9511
  153SAPE  C21416983   1.719   1.322   7.955 -0.0046  0.4429  0.0405
  153SAPE  H14R16984   1.796   1.339   7.879 -1.5124 -0.9370 -1.8915
  153SAPE  C21516985   1.683   1.411   8.050 -0.6627  0.1025 -1.0253
  153SAPE  H15R16986   1.743   1.504   8.053  0.4255 -0.5319 -2.1168
  153SAPE  C21616987   1.590   1.380   8.160 -0.1629 -0.0787  0.3545
  153SAPE  H16R16988   1.519   1.301   8.131  0.1251  0.2944 -1.4470
  153SAPE  H16S16989   1.530   1.472   8.179  0.7105  1.0623 -1.9865
  153SAPE  C21716990   1.659   1.347   8.291  0.0661 -0.2745 -0.4951
  153SAPE  H17R16991   1.741   1.275   8.274  0.6550  0.9579 -3.8094
  153SAPE  H17S16992   1.580   1.298   8.352 -0.2063  0.9258  0.1402
  153SAPE  C21816993   1.709   1.469   8.367  0.4919  0.5109  0.4255
  153SAPE  H18R16994   1.777   1.528   8.302  0.3646 -1.6228 -1.7956
  153SAPE  H18S16995   1.760   1.420   8.452 -0.7719  0.8305  1.4014
  153SAPE  C21916996   1.602   1.554   8.443 -0.3964  0.0706 -0.0753
  153SAPE  H19R16997   1.528   1.480   8.480  1.1290 -1.0485  0.8466
  153SAPE  H19S16998   1.551   1.623   8.373 -0.2820 -0.8663 -1.1073
  153SAPE  C22016999   1.671   1.642   8.545  0.1917  0.5322 -0.5595
  153SAPE  H20R17000   1.734   1.588   8.619 -1.2241 -1.1884 -0.5342
  153SAPE  H20S17001   1.591   1.699   8.596  0.2699 -0.8275  1.2000
  153SAPE  H20T17002   1.743   1.698   8.483  1.1243 -1.1064 -1.0219
  153SAPE   C3317003   1.894   1.732   6.737 -0.8201  0.7865  0.2691
  153SAPE   H3X17004   1.873   1.814   6.665 -0.0550  1.4113  0.7430
  153SAPE   H3Y17005   1.940   1.665   6.661 -1.4062  2.5410 -1.7206
  153SAPE   C3417006   1.997   1.779   6.840  0.3047  0.0367 -0.4339
  153SAPE   H4X17007   1.960   1.868   6.894  3.7039 -0.1204  2.5517
  153SAPE   H4Y17008   2.086   1.817   6.785  0.4558 -2.0731 -1.7993
  153SAPE   C3517009   2.041   1.674   6.937  0.0007  0.5931  0.4945
  153SAPE   H5X17010   2.087   1.595   6.875 -0.7582  0.0564  0.6083
  153SAPE   H5Y17011   1.949   1.649   6.994 -0.5928  1.0636 -0.2432
  153SAPE   C3617012   2.152   1.715   7.033  0.8123  0.2198  0.8253
  153SAPE   H6X17013   2.120   1.808   7.085  2.3023  0.5595  1.1747
  153SAPE   H6Y17014   2.245   1.743   6.981  0.2476 -0.0886 -0.3834
  153SAPE   C3717015   2.186   1.614   7.147 -0.1627  0.7171 -0.0752
  153SAPE   H7X17016   2.208   1.512   7.109  2.4764  0.4061  2.0405
  153SAPE   H7Y17017   2.093   1.608   7.208 -0.4029 -2.1808 -0.5786
  153SAPE   C3817018   2.315   1.651   7.218  0.0879  0.6026  0.2104
  153SAPE   H8X17019   2.314   1.759   7.242 -2.3812  0.9531 -1.1836
  153SAPE   H8Y17020   2.403   1.631   7.152 -1.3064  1.6476 -2.1096
  153SAPE   C3917021   2.332   1.562   7.345  0.1919 -0.4423  0.2741
  153SAPE   H9X17022   2.351   1.458   7.311  1.7870  0.1693 -0.8401
  153SAPE   H9Y17023   2.234   1.555   7.396  0.3505 -0.9498  0.5111
  153SAPE  C31017024   2.441   1.610   7.442  0.0929  0.7007  0.3130
  153SAPE  H10X17025   2.421   1.717   7.462 -4.0837 -0.1504  1.8129
  153SAPE  H10Y17026   2.539   1.599   7.391  0.1869  1.4666  0.3221
  153SAPE  C31117027   2.433   1.551   7.583 -0.2610  0.3757 -0.1161
  153SAPE  H11X17028   2.434   1.442   7.562  0.0898  0.3575 -0.0184
  153SAPE  H11Y17029   2.333   1.566   7.628 -0.3412 -1.7364  0.5175
  153SAPE  C31217030   2.552   1.595   7.674 -0.9080 -0.5167 -0.3936
  153SAPE  H12X17031   2.639   1.613   7.607 -0.0118  0.4340  0.9858
  153SAPE  H12Y17032   2.576   1.518   7.749 -1.1437  0.6027  0.8649
  153SAPE  C31317033   2.526   1.733   7.745  0.3501  0.1865 -0.4311
  153SAPE  H13X17034   2.494   1.802   7.664  2.7055 -1.6063 -3.0474
  153SAPE  H13Y17035   2.623   1.769   7.786 -0.5601  1.4100  0.7490
  153SAPE  C31417036   2.422   1.721   7.855 -0.4412  0.3022  0.0463
  153SAPE  H14X17037   2.443   1.641   7.929 -2.1659  1.6335  2.1149
  153SAPE  H14Y17038   2.320   1.699   7.816 -0.7455  0.9019  0.4744
  153SAPE  C31517039   2.418   1.846   7.944 -0.4894  0.2224 -0.1064
  153SAPE  H15X17040   2.522   1.853   7.983 -1.8887  1.5118  3.9071
  153SAPE  H15Y17041   2.355   1.809   8.028  0.1259 -1.6541 -0.4211
  153SAPE  C31617042   2.367   1.974   7.879 -0.0377  0.1774  0.0941
  153SAPE  H16X17043   2.393   1.975   7.771  0.1277 -0.4578  0.1259
  153SAPE  H16Y17044   2.413   2.066   7.922  1.1607 -0.1111 -0.5337
  153SAPE  C31717045   2.219   1.999   7.906  0.1713  0.3289  0.3140
  153SAPE  H17X17046   2.170   1.906   7.871 -1.6700  0.6545  1.8831
  153SAPE  H17Y17047   2.166   2.078   7.849 -1.9284 -2.1776 -1.3805
  153SAPE  C31817048   2.182   2.021   8.053  0.3990  0.1607  0.1036
  153SAPE  H18X17049   2.211   1.936   8.119  0.7964  1.4931  1.6853
  153SAPE  H18Y17050   2.074   2.043   8.062  0.2549 -0.3457 -0.3454
  153SAPE  H18Z17051   2.239   2.110   8.087 -0.0256  0.2099  0.6962
  154SAPE     N17052   4.223   1.573   6.132  0.5433  0.4909  0.5980
  154SAPE   HN117053   4.226   1.611   6.035 -1.1508 -1.2941 -0.2403
  154SAPE   HN217054   4.197   1.473   6.115 -1.4630  1.1555 -0.6500
  154SAPE   HN317055   4.164   1.633   6.192  0.6208  1.9885 -0.7471
  154SAPE   C1217056   4.358   1.565   6.190  0.1511  0.0282  0.2040
  154SAPE  H12A17057   4.395   1.655   6.244  1.3106 -0.1190 -0.3027
  154SAPE  H12B17058   4.429   1.546   6.107 -1.3575  2.4389 -1.8001
  154SAPE   C1117059   4.359   1.453   6.302 -0.3615 -0.5333  0.1256
  154SAPE  H11A17060   4.263   1.450   6.358 -0.6683 -4.5541 -0.3095
  154SAPE  H11B17061   4.431   1.477   6.383  0.7991 -0.8189 -0.7896
  154SAPE     P17062   4.519   1.263   6.259  0.2801 -0.1094 -0.2730
  154SAPE   O1317063   4.525   1.130   6.192 -0.0876  0.1879  0.1504
  154SAPE   O1417064   4.598   1.366   6.181 -0.0781 -0.0637 -0.7606
  154SAPE   O1217065   4.366   1.315   6.267  0.1769  0.3097 -0.2616
  154SAPE   O1117066   4.564   1.261   6.406 -0.3197  0.4643 -0.3456
  154SAPE    C117067   4.564   1.143   6.487 -0.2645 -0.3158 -0.2967
  154SAPE    HA17068   4.513   1.060   6.433 -0.2630 -0.8673  0.5303
  154SAPE    HB17069   4.670   1.116   6.508 -0.5294 -2.0525 -1.0268
  154SAPE    C217070   4.484   1.170   6.619  0.5516  0.5646 -0.6534
  154SAPE    HS17071   4.378   1.180   6.587  0.2184  1.2595  0.5865
  154SAPE   O2117072   4.530   1.296   6.668  0.0187  0.3658  0.1973
  154SAPE   C2117073   4.451   1.353   6.751  0.0181  0.3966  0.0379
  154SAPE   O2217074   4.331   1.335   6.766  0.1696 -0.3066  0.3869
  154SAPE   C2217075   4.534   1.466   6.821 -0.2372  0.2026  0.2085
  154SAPE   H2R17076   4.606   1.411   6.885  1.4276  1.4075 -0.5494
  154SAPE   H2S17077   4.587   1.524   6.742 -0.9914 -1.5360 -1.6726
  154SAPE    C317078   4.514   1.071   6.737  0.1892 -0.4729 -0.0449
  154SAPE    HX17079   4.615   1.094   6.776  0.0390  1.6793 -0.8197
  154SAPE    HY17080   4.510   0.969   6.693  0.2414  0.0335 -1.2667
  154SAPE   O3117081   4.417   1.077   6.842 -0.3674  0.0578 -0.2534
  154SAPE   C3117082   4.435   0.987   6.935  0.2875 -0.7720 -0.0939
  154SAPE   O3217083   4.545   0.930   6.944 -0.4200 -0.1555 -1.0503
  154SAPE   C3217084   4.313   0.957   7.014  0.5403 -0.9676 -0.3892
  154SAPE   H2X17085   4.226   0.962   6.945  0.1544 -1.3876  0.0568
  154SAPE   H2Y17086   4.289   1.040   7.084 -1.1272 -0.6131 -1.3064
  154SAPE   C2317087   4.441   1.557   6.901 -0.7051  0.3381 -0.6398
  154SAPE   H3R17088   4.359   1.595   6.837 -0.9527  3.1424  1.1508
  154SAPE   H3S17089   4.500   1.648   6.922  0.9609 -0.4750 -1.5991
  154SAPE   C2417090   4.389   1.506   7.037 -0.1799 -0.6460  0.3053
  154SAPE   H4R17091   4.362   1.398   7.029 -0.8520 -0.6088  1.6878
  154SAPE   H4S17092   4.295   1.561   7.059  0.2673  0.5235 -0.5907
  154SAPE   C2517093   4.482   1.524   7.153  0.4319  0.6977  0.4158
  154SAPE   H5R17094   4.581   1.558   7.120  1.4136  0.6822  3.0862
  154SAPE   C2617095   4.458   1.518   7.285 -0.2877 -0.8343  0.3776
  154SAPE   H6R17096   4.543   1.549   7.349 -0.0346 -2.7747  1.0437
  154SAPE   C2717097   4.329   1.484   7.347  0.5441 -0.0450 -0.0058
  154SAPE   H7R17098   4.340   1.381   7.387 -0.2832  0.1015  0.6196
  154SAPE   H7S17099   4.242   1.480   7.278  1.0178  0.2954 -0.6390
  154SAPE   C2817100   4.275   1.577   7.453  0.1043 -0.3603 -0.3375
  154SAPE   H8R17101   4.231   1.669   7.412 -0.0259  0.6341  1.9272
  154SAPE   C2917102   4.292   1.566   7.587  0.2931  0.2136  0.2905
  154SAPE   H9R17103   4.235   1.637   7.649  1.0560 -0.9949  2.4801
  154SAPE  C21017104   4.370   1.457   7.664  0.2609 -0.2194 -0.2136
  154SAPE  H10R17105   4.426   1.392   7.593  0.5200 -0.3001  0.0659
  154SAPE  H10S17106   4.290   1.397   7.713 -0.3978  1.5475  0.9535
  154SAPE  C21117107   4.474   1.504   7.768  0.3084 -0.4952  0.1639
  154SAPE  H11R17108   4.570   1.528   7.721 -0.5839 -0.5829 -1.7706
  154SAPE  C21217109   4.455   1.531   7.896 -0.5985 -0.0948  0.3558
  154SAPE  H12R17110   4.547   1.566   7.947  1.3268  0.4878 -3.2096
  154SAPE  C21317111   4.337   1.508   7.978 -0.6400  0.6746 -0.3475
  154SAPE  H13R17112   4.252   1.516   7.907  0.3825  0.5794 -1.6088
  154SAPE  H13S17113   4.328   1.586   8.057  0.6456  1.7539 -1.2191
  154SAPE  C21417114   4.354   1.371   8.040 -0.4237  0.0986 -1.6389
  154SAPE  H14R17115   4.296   1.286   8.002 -0.8037 -0.2485 -0.3384
  154SAPE  C21517116   4.422   1.345   8.158 -0.3911  0.1907  0.0452
  154SAPE  H15R17117   4.409   1.253   8.217 -3.3273 -0.0759 -0.8362
  154SAPE  C21617118   4.487   1.450   8.236  0.6639  0.1217 -0.6359
  154SAPE  H16R17119   4.461   1.552   8.201  1.7339  0.5272 -0.2828
  154SAPE  H16S17120   4.595   1.445   8.214  0.9996  3.9093 -0.6046
  154SAPE  C21717121   4.464   1.435   8.392  0.3346  0.2807 -0.2975
  154SAPE  H17R17122   4.541   1.499   8.441  0.6594 -0.5588  0.3139
  154SAPE  H17S17123   4.485   1.330   8.422 -2.6758 -0.0393  1.0578
  154SAPE  C21817124   4.327   1.490   8.430  0.8096 -0.1673 -0.9375
  154SAPE  H18R17125   4.252   1.422   8.385  1.5751 -3.4230  2.2637
  154SAPE  H18S17126   4.318   1.593   8.390 -2.7480 -0.8640 -2.2581
  154SAPE  C21917127   4.286   1.501   8.584 -0.1650  0.2537  0.2157
  154SAPE  H19R17128   4.258   1.405   8.633 -0.7175  0.7222  0.8474
  154SAPE  H19S17129   4.189   1.555   8.598 -0.6298 -1.2684  4.4301
  154SAPE  C22017130   4.392   1.567   8.675 -0.5733  0.2593  0.4349
  154SAPE  H20R17131   4.347   1.574   8.776 -1.6163 -0.6564  0.0512
  154SAPE  H20S17132   4.411   1.674   8.650 -0.0249  0.1418  0.3230
  154SAPE  H20T17133   4.492   1.521   8.684  0.0637  1.0569 -1.7769
  154SAPE   C3317134   4.309   0.815   7.070  0.4307 -0.2058 -0.0876
  154SAPE   H3X17135   4.390   0.803   7.144  1.3824 -1.7186 -1.3070
  154SAPE   H3Y17136   4.326   0.733   6.997  2.9734  2.2995 -2.5584
  154SAPE   C3417137   4.171   0.776   7.122 -0.0113 -1.0165  0.4628
  154SAPE   H4X17138   4.102   0.743   7.041  0.2727 -1.9251  0.5804
  154SAPE   H4Y17139   4.137   0.872   7.168  3.5137  0.2568  0.7401
  154SAPE   C3517140   4.171   0.660   7.226 -0.9877  0.1945  0.2186
  154SAPE   H5X17141   4.232   0.572   7.198 -2.5607 -0.9328  0.2056
  154SAPE   H5Y17142   4.068   0.625   7.246 -0.3791 -2.2082 -0.5330
  154SAPE   C3617143   4.229   0.715   7.365 -0.1288 -0.4553  0.0420
  154SAPE   H6X17144   4.177   0.799   7.414 -0.2421  0.0032 -0.8483
  154SAPE   H6Y17145   4.336   0.741   7.352  0.0603 -0.7423  0.9376
  154SAPE   C3717146   4.223   0.594   7.460 -0.1215  0.3517  0.1082
  154SAPE   H7X17147   4.290   0.519   7.414  1.2565  1.0362  0.9502
  154SAPE   H7Y17148   4.119   0.556   7.469  0.8792 -2.1195  3.1104
  154SAPE   C3817149   4.275   0.614   7.604  0.2186  0.3805 -0.2542
  154SAPE   H8X17150   4.199   0.680   7.650 -0.2244 -0.8257  0.7840
  154SAPE   H8Y17151   4.375   0.662   7.599  0.0416  1.1003  2.1351
  154SAPE   C3917152   4.283   0.487   7.688 -0.3706  0.7455 -0.9428
  154SAPE   H9X17153   4.371   0.423   7.665  0.6708  1.8092 -0.0557
  154SAPE   H9Y17154   4.194   0.431   7.654  1.9067 -2.5988 -1.9635
  154SAPE  C31017155   4.265   0.520   7.839  0.0916 -0.1878 -0.0527
  154SAPE  H10X17156   4.168   0.562   7.873  0.8856  0.6741  1.2177
  154SAPE  H10Y17157   4.349   0.584   7.871  1.2229 -1.8394  0.4422
  154SAPE  C31117158   4.289   0.388   7.925 -0.1643 -0.5676  0.2195
  154SAPE  H11X17159   4.355   0.313   7.877 -0.1317 -1.3826  1.4887
  154SAPE  H11Y17160   4.185   0.348   7.923 -1.0316  1.3033  2.5730
  154SAPE  C31217161   4.348   0.427   8.065  0.3215  0.3160  0.3671
  154SAPE  H12X17162   4.282   0.497   8.121 -0.5430 -0.3517  0.1994
  154SAPE  H12Y17163   4.445   0.476   8.044  0.3994 -1.0103 -3.0180
  154SAPE  C31317164   4.368   0.306   8.159  0.4500 -0.2584  0.5171
  154SAPE  H13X17165   4.423   0.335   8.251  2.3802 -1.6365 -0.1364
  154SAPE  H13Y17166   4.450   0.251   8.108  2.1912  2.3187  0.3532
  154SAPE  C31417167   4.238   0.229   8.181 -0.1383 -0.0579  0.0400
  154SAPE  H14X17168   4.201   0.197   8.080  2.6770 -2.0912 -0.4617
  154SAPE  H14Y17169   4.169   0.301   8.230 -2.1100 -0.5721 -1.7942
  154SAPE  C31517170   4.244   0.111   8.267  0.0907  0.0118  0.1944
  154SAPE  H15X17171   4.285   0.138   8.367  1.7676  0.5434 -0.5944
  154SAPE  H15Y17172   4.319   0.040   8.227 -0.2012 -0.2200  0.0604
  154SAPE  C31617173   4.102   0.058   8.277 -0.0854  0.1196 -0.6231
  154SAPE  H16X17174   4.042   0.063   8.184  1.6121  2.0486 -1.6920
  154SAPE  H16Y17175   4.048   0.133   8.340  0.5097  0.9022 -1.0390
  154SAPE  C31717176   4.096  -0.074   8.347  0.4066 -0.0779  0.5941
  154SAPE  H17X17177   4.129  -0.078   8.453 -0.4373  0.7416  0.8999
  154SAPE  H17Y17178   4.153  -0.153   8.295  1.4201  0.1881  1.2642
  154SAPE  C31817179   3.945  -0.120   8.339  0.9988 -0.6345  0.3825
  154SAPE  H18X17180   3.877  -0.035   8.360 -1.2967 -2.1238 -0.5866
  154SAPE  H18Y17181   3.922  -0.190   8.422 -2.1552  1.4429  1.4673
  154SAPE  H18Z17182   3.906  -0.146   8.238 -2.7910 -0.9332  1.7589
  155SAPE     N17183   6.435   1.678   6.279 -0.5313 -0.5682  0.2016
  155SAPE   HN117184   6.393   1.764   6.238 -0.8137  0.1630  1.9164
  155SAPE   HN217185   6.532   1.678   6.241 -0.1925  1.4581  0.9379
  155SAPE   HN317186   6.387   1.595   6.240 -0.8071 -1.1161  1.6340
  155SAPE   C1217187   6.434   1.650   6.432 -0.2086 -0.0258  0.1525
  155SAPE  H12A17188   6.504   1.721   6.481  1.0370 -0.7362 -0.5306
  155SAPE  H12B17189   6.474   1.546   6.439  0.9198 -0.0212 -3.6130
  155SAPE   C1117190   6.294   1.650   6.489  0.0048 -0.3227  0.2245
  155SAPE  H11A17191   6.251   1.746   6.453  2.0991  1.0062  1.0249
  155SAPE  H11B17192   6.295   1.650   6.600  1.8431  2.6288  0.3153
  155SAPE     P17193   6.066   1.530   6.454 -0.4088  0.0123 -0.4762
  155SAPE   O1317194   6.014   1.658   6.395  0.4310  0.5879  0.1390
  155SAPE   O1417195   6.018   1.407   6.394 -0.3956 -0.3366  0.3120
  155SAPE   O1217196   6.222   1.539   6.439  0.1423  0.4656 -0.4479
  155SAPE   O1117197   6.033   1.525   6.610 -0.0223  0.2338  0.4248
  155SAPE    C117198   5.979   1.636   6.677 -0.2601  0.1585  0.6886
  155SAPE    HA17199   6.046   1.723   6.660 -0.4226 -0.1076 -1.7107
  155SAPE    HB17200   5.878   1.658   6.635  0.6018  1.0594 -1.0286
  155SAPE    C217201   5.964   1.604   6.827 -0.3694  0.6871 -0.1223
  155SAPE    HS17202   5.922   1.691   6.882 -0.0516  0.6776  0.1423
  155SAPE   O2117203   6.093   1.568   6.883  0.5341 -0.1334  0.3628
  155SAPE   C2117204   6.170   1.672   6.892 -0.5589 -0.0201 -0.5566
  155SAPE   O2217205   6.137   1.786   6.869 -0.0703 -0.2227 -0.4153
  155SAPE   C2217206   6.298   1.622   6.959 -0.3142  0.4252  1.1260
  155SAPE   H2R17207   6.337   1.535   6.902 -1.3666  0.8849 -0.3493
  155SAPE   H2S17208   6.380   1.694   6.936  0.7378 -0.6901  1.3303
  155SAPE    C317209   5.869   1.482   6.851  0.2238 -0.4657 -0.3706
  155SAPE    HX17210   5.880   1.410   6.768 -1.0505 -1.2455  0.1102
  155SAPE    HY17211   5.769   1.529   6.837  0.6092  0.9531  1.3006
  155SAPE   O3117212   5.888   1.412   6.974 -0.3219  0.2422  0.0730
  155SAPE   C3117213   5.847   1.464   7.091 -0.2318 -0.2934  0.9616
  155SAPE   O3217214   5.825   1.582   7.111  0.8477 -0.5610  0.5241
  155SAPE   C3217215   5.862   1.356   7.206 -0.3347 -0.1573  0.3728
  155SAPE   H2X17216   5.958   1.381   7.255  0.6649  1.1972 -2.0705
  155SAPE   H2Y17217   5.864   1.255   7.160 -2.4661 -0.0350 -0.0976
  155SAPE   C2317218   6.296   1.610   7.109  0.2315  0.0413  0.8553
  155SAPE   H3R17219   6.258   1.709   7.143  0.3636 -0.4183  2.4214
  155SAPE   H3S17220   6.399   1.589   7.145  0.1531 -0.7440  0.6278
  155SAPE   C2417221   6.204   1.500   7.161  0.5914 -0.1826 -0.3779
  155SAPE   H4R17222   6.104   1.522   7.116  0.6052  1.7693  0.4503
  155SAPE   H4S17223   6.199   1.508   7.272  1.5049 -0.0524 -0.3405
  155SAPE   C2517224   6.261   1.369   7.123 -0.0895  0.6560  0.1477
  155SAPE   H5R17225   6.259   1.347   7.015  0.2750 -2.2561  0.6773
  155SAPE   C2617226   6.319   1.285   7.202 -0.4286  0.5784  0.3388
  155SAPE   H6R17227   6.355   1.188   7.165  1.8749  0.1182  3.4422
  155SAPE   C2717228   6.335   1.278   7.351  0.1267  0.4497 -0.1794
  155SAPE   H7R17229   6.340   1.375   7.404 -0.0376 -0.6747  2.0200
  155SAPE   H7S17230   6.440   1.242   7.363  0.5442  0.5431 -2.9950
  155SAPE   C2817231   6.226   1.184   7.412 -0.4050 -0.4835 -0.4302
  155SAPE   H8R17232   6.218   1.089   7.356 -1.3353 -0.7705  0.1669
  155SAPE   C2917233   6.149   1.211   7.518  0.4830 -0.7324 -0.5320
  155SAPE   H9R17234   6.073   1.132   7.533  0.0595 -0.8283 -2.7665
  155SAPE  C21017235   6.144   1.327   7.618  0.8204  0.0864 -0.8601
  155SAPE  H10R17236   6.041   1.360   7.643  1.5305  1.0461  0.9779
  155SAPE  H10S17237   6.195   1.408   7.562  0.4792  0.1808 -1.0384
  155SAPE  C21117238   6.221   1.292   7.738  0.1244 -0.1894 -0.1245
  155SAPE  H11R17239   6.318   1.247   7.712 -0.6546 -1.3738 -1.1479
  155SAPE  C21217240   6.189   1.317   7.871  0.6626  0.8273 -0.9305
  155SAPE  H12R17241   6.263   1.274   7.940 -0.5691 -0.9809 -0.6651
  155SAPE  C21317242   6.069   1.384   7.934  0.6217 -0.5783  0.2577
  155SAPE  H13R17243   6.008   1.305   7.982 -0.0912  1.0779  2.2107
  155SAPE  H13S17244   5.998   1.422   7.858 -0.1324  0.4261  1.4437
  155SAPE  C21417245   6.103   1.490   8.031  0.0315  0.3214  0.3625
  155SAPE  H14R17246   6.121   1.588   7.985  0.5287  1.5804  3.0643
  155SAPE  C21517247   6.105   1.481   8.164  0.1217 -0.5411  0.1426
  155SAPE  H15R17248   6.147   1.561   8.227  1.0922 -0.8284 -0.1251
  155SAPE  C21617249   6.077   1.357   8.250 -0.5800 -0.3949  0.6159
  155SAPE  H16R17250   6.175   1.337   8.298 -0.2081 -0.6597 -0.2219
  155SAPE  H16S17251   6.044   1.269   8.191 -0.4381 -0.8557  1.2200
  155SAPE  C21717252   5.978   1.377   8.362 -0.9242 -0.4374  0.1853
  155SAPE  H17R17253   5.953   1.280   8.409  0.2701 -1.5163 -1.3466
  155SAPE  H17S17254   5.890   1.420   8.309  2.0557  0.5060 -4.6362
  155SAPE  C21817255   6.019   1.464   8.484  0.0364 -0.4259 -0.0259
  155SAPE  H18R17256   6.061   1.560   8.448 -0.7959  0.6944  1.8671
  155SAPE  H18S17257   6.096   1.401   8.534  0.2034 -0.8764 -0.8303
  155SAPE  C21917258   5.904   1.486   8.585  0.3379  0.2488 -0.1850
  155SAPE  H19R17259   5.812   1.518   8.531  0.0895  2.2758  1.2986
  155SAPE  H19S17260   5.936   1.572   8.648  0.1581 -1.1370  1.8746
  155SAPE  C22017261   5.884   1.369   8.683  0.3068 -0.1972 -0.1350
  155SAPE  H20R17262   5.836   1.284   8.630  0.8939 -0.6931  0.1177
  155SAPE  H20S17263   5.814   1.393   8.766 -2.6412 -3.3327 -1.4469
  155SAPE  H20T17264   5.982   1.333   8.721 -0.6968 -2.4908  0.4976
  155SAPE   C3317265   5.747   1.373   7.311  0.7588 -0.0424  0.8396
  155SAPE   H3X17266   5.647   1.344   7.270  0.5818  0.5135  0.8671
  155SAPE   H3Y17267   5.758   1.477   7.349 -1.8906 -0.1813  2.2780
  155SAPE   C3417268   5.765   1.291   7.441 -0.1255 -0.1480 -0.3109
  155SAPE   H4X17269   5.871   1.299   7.475 -1.3182 -1.7655  4.6209
  155SAPE   H4Y17270   5.763   1.182   7.420  0.2531 -0.0033 -1.1445
  155SAPE   C3517271   5.671   1.344   7.543 -0.4267  0.2760  0.1822
  155SAPE   H5X17272   5.567   1.316   7.519  0.7858 -4.3125 -0.7089
  155SAPE   H5Y17273   5.689   1.454   7.549 -0.3877  0.2188  1.4072
  155SAPE   C3617274   5.703   1.284   7.679 -0.2498  0.6459 -0.6576
  155SAPE   H6X17275   5.799   1.326   7.717 -0.9026  0.5445  1.2091
  155SAPE   H6Y17276   5.694   1.173   7.683  0.2798  0.6172 -0.0215
  155SAPE   C3717277   5.597   1.325   7.783  0.2452  0.7239 -0.1533
  155SAPE   H7X17278   5.495   1.302   7.746 -0.0273 -0.0725  1.0622
  155SAPE   H7Y17279   5.615   1.435   7.785 -0.0788  0.7613  1.6130
  155SAPE   C3817280   5.626   1.261   7.919 -0.1555 -0.2925 -0.9010
  155SAPE   H8X17281   5.737   1.250   7.914 -0.0055  0.1537  0.8130
  155SAPE   H8Y17282   5.588   1.157   7.919  0.4533 -0.5635  1.2478
  155SAPE   C3917283   5.568   1.347   8.031 -0.4073  0.3471  0.3665
  155SAPE   H9X17284   5.486   1.417   8.004 -0.7905  0.4043  1.6078
  155SAPE   H9Y17285   5.646   1.417   8.069  1.7960 -1.0984 -1.2716
  155SAPE  C31017286   5.503   1.264   8.147 -0.6024  0.1141  0.1019
  155SAPE  H10X17287   5.556   1.166   8.155  0.3822  0.6077 -0.2199
  155SAPE  H10Y17288   5.394   1.251   8.133 -1.2068  2.5676  1.9201
  155SAPE  C31117289   5.515   1.329   8.288 -0.1621  0.6816 -0.1488
  155SAPE  H11X17290   5.413   1.335   8.332  0.3928  0.4388  1.2369
  155SAPE  H11Y17291   5.552   1.430   8.262 -0.9232  1.0920  0.3274
  155SAPE  C31217292   5.597   1.261   8.400 -0.5202  0.0054  0.7945
  155SAPE  H12X17293   5.615   1.320   8.493 -2.5217 -0.6514  1.6469
  155SAPE  H12Y17294   5.700   1.256   8.358  0.2289  1.4922  2.3353
  155SAPE  C31317295   5.550   1.125   8.441  0.0371  0.4884  0.0220
  155SAPE  H13X17296   5.564   1.058   8.354 -0.0929 -0.7173  0.9134
  155SAPE  H13Y17297   5.441   1.138   8.462  0.4338  2.9060  0.9733
  155SAPE  C31417298   5.610   1.062   8.573  0.2810 -0.3885  0.0323
  155SAPE  H14X17299   5.578   1.124   8.660  0.0745  0.5717 -0.7061
  155SAPE  H14Y17300   5.720   1.073   8.567 -0.0487  4.0342 -1.4276
  155SAPE  C31517301   5.553   0.920   8.595 -0.3477  0.1322 -0.1549
  155SAPE  H15X17302   5.447   0.916   8.627 -0.0192 -1.2174  0.8390
  155SAPE  H15Y17303   5.609   0.867   8.674 -0.6903 -1.6853 -1.0869
  155SAPE  C31617304   5.558   0.828   8.475  0.0725  0.0535 -0.1305
  155SAPE  H16X17305   5.497   0.869   8.391 -1.6019 -0.3075  0.8511
  155SAPE  H16Y17306   5.503   0.736   8.504  0.3801  0.1824  0.9060
  155SAPE  C31717307   5.702   0.798   8.429  0.0266  1.0916  0.0434
  155SAPE  H17X17308   5.750   0.743   8.513  0.0088 -0.6260 -1.0107
  155SAPE  H17Y17309   5.775   0.881   8.419 -0.6410  1.7933  0.8424
  155SAPE  C31817310   5.711   0.707   8.305 -0.0248  0.1640  0.1764
  155SAPE  H18X17311   5.814   0.668   8.298 -0.4226 -0.6684 -1.3453
  155SAPE  H18Y17312   5.684   0.765   8.214  1.8032  1.5971  0.4924
  155SAPE  H18Z17313   5.632   0.631   8.326  0.0598  0.5910  2.3402
  156SAPE     N17314   3.492   4.376   6.078  0.5224  0.0550  0.5670
  156SAPE   HN117315   3.560   4.449   6.048 -0.5657  0.8860  0.0363
  156SAPE   HN217316   3.536   4.283   6.061  2.0487  1.0365 -1.2653
  156SAPE   HN317317   3.406   4.378   6.021  0.4236 -0.2734  0.6999
  156SAPE   C1217318   3.435   4.377   6.215 -0.2172 -0.3900 -0.7888
  156SAPE  H12A17319   3.341   4.435   6.215  0.6728  1.1814  1.3492
  156SAPE  H12B17320   3.504   4.442   6.273 -2.4969  0.8205  0.6806
  156SAPE   C1117321   3.425   4.238   6.289 -0.3750 -0.5009  0.1821
  156SAPE  H11A17322   3.411   4.258   6.397  0.1861 -1.4289  0.4309
  156SAPE  H11B17323   3.517   4.178   6.278 -1.4620 -2.0356 -1.1657
  156SAPE     P17324   3.165   4.179   6.291 -0.5175  0.1687  0.4166
  156SAPE   O1317325   3.126   4.315   6.292  0.4641 -0.3995  0.6008
  156SAPE   O1417326   3.082   4.087   6.210  0.0598 -0.2425 -0.1787
  156SAPE   O1217327   3.315   4.167   6.234 -0.0524 -0.7800 -0.4547
  156SAPE   O1117328   3.178   4.130   6.436 -0.3692 -0.1471 -0.1922
  156SAPE    C117329   3.202   3.987   6.456 -0.3360 -0.5048  0.1800
  156SAPE    HA17330   3.122   3.933   6.402 -0.4331  0.7812 -1.0431
  156SAPE    HB17331   3.295   3.958   6.401  0.5298  1.1944  0.6723
  156SAPE    C217332   3.225   3.959   6.608 -0.2305 -0.2658 -0.3379
  156SAPE    HS17333   3.248   3.851   6.622 -1.7506 -0.7547 -1.3177
  156SAPE   O2117334   3.105   3.994   6.679 -0.0688 -0.0016 -0.0606
  156SAPE   C2117335   3.008   3.903   6.682  0.1264 -0.2415  0.1008
  156SAPE   O2217336   3.008   3.795   6.625 -0.0568  0.7263  0.1162
  156SAPE   C2217337   2.882   3.967   6.755  0.3126 -0.5727 -0.3435
  156SAPE   H2R17338   2.880   4.071   6.715 -0.7763 -1.4084 -2.5952
  156SAPE   H2S17339   2.792   3.907   6.729  1.0208 -1.7556 -0.1429
  156SAPE    C317340   3.327   4.056   6.662  0.2085  0.3757  0.3148
  156SAPE    HX17341   3.285   4.159   6.653  3.2309  1.6035 -1.3433
  156SAPE    HY17342   3.421   4.054   6.602 -0.0345 -1.1410 -0.0411
  156SAPE   O3117343   3.358   4.027   6.797 -0.0178  0.3635 -0.0274
  156SAPE   C3117344   3.465   3.947   6.826  0.6825  0.7514  0.1808
  156SAPE   O3217345   3.546   3.915   6.742 -0.7647  0.9393 -0.7164
  156SAPE   C3217346   3.463   3.927   6.974  0.4536  0.3278 -0.5007
  156SAPE   H2X17347   3.393   3.845   7.001 -1.1048  2.2996  1.8594
  156SAPE   H2Y17348   3.422   4.016   7.027 -0.2509 -0.8196  0.9620
  156SAPE   C2317349   2.894   3.963   6.910 -0.4937 -0.3211  0.5096
  156SAPE   H3R17350   2.989   4.011   6.941  0.8132 -1.4900 -1.4198
  156SAPE   H3S17351   2.887   3.858   6.947  1.6386 -0.8538 -0.4363
  156SAPE   C2417352   2.776   4.048   6.970 -0.7731 -0.1461 -0.1237
  156SAPE   H4R17353   2.683   3.989   6.959 -1.7811  1.0663  1.4693
  156SAPE   H4S17354   2.770   4.141   6.909  1.5215  0.2086  0.0975
  156SAPE   C2517355   2.801   4.095   7.112 -0.5507  0.3112 -0.0288
  156SAPE   H5R17356   2.875   4.176   7.109  0.5828 -0.7234 -1.7025
  156SAPE   C2617357   2.765   4.038   7.223 -0.1822  0.0992 -0.3903
  156SAPE   H6R17358   2.778   4.082   7.323 -1.0019 -0.7823  0.1228
  156SAPE   C2717359   2.688   3.910   7.242  0.1301  0.2848 -0.4180
  156SAPE   H7R17360   2.620   3.878   7.161 -0.3200  1.1891 -0.4050
  156SAPE   H7S17361   2.622   3.928   7.330 -0.2683 -0.7396 -0.4881
  156SAPE   C2817362   2.788   3.804   7.275 -0.2089 -0.1470  0.0846
  156SAPE   H8R17363   2.861   3.780   7.197 -1.1742 -0.0585 -0.8568
  156SAPE   C2917364   2.801   3.727   7.385  0.3726  0.2836  0.1515
  156SAPE   H9R17365   2.889   3.660   7.385  1.5518  1.7675 -0.6220
  156SAPE  C21017366   2.702   3.735   7.503 -0.3561 -0.6954 -0.3571
  156SAPE  H10R17367   2.643   3.643   7.520  0.7853 -1.1876  1.1848
  156SAPE  H10S17368   2.633   3.822   7.494 -0.1681 -0.6775 -1.9947
  156SAPE  C21117369   2.793   3.759   7.617  0.2083  0.1789 -0.1494
  156SAPE  H11R17370   2.830   3.665   7.660 -2.0273 -1.3643 -1.4068
  156SAPE  C21217371   2.826   3.876   7.679 -0.0724 -0.6271  0.7307
  156SAPE  H12R17372   2.905   3.876   7.755 -0.1378  2.4145  0.9333
  156SAPE  C21317373   2.780   4.020   7.648  0.3460  0.4324  0.0712
  156SAPE  H13R17374   2.709   4.029   7.563  0.2422  1.1752  0.2311
  156SAPE  H13S17375   2.868   4.075   7.608  0.7385 -0.3488 -0.1782
  156SAPE  C21417376   2.728   4.100   7.765 -0.3754 -0.0225 -0.6062
  156SAPE  H14R17377   2.645   4.053   7.820  0.2923  1.1992  1.6050
  156SAPE  C21517378   2.776   4.219   7.814  0.0984 -0.8726 -0.8189
  156SAPE  H15R17379   2.717   4.275   7.889 -0.0507 -1.5941 -0.3881
  156SAPE  C21617380   2.892   4.298   7.758 -0.1248 -0.2608 -0.1573
  156SAPE  H16R17381   2.861   4.394   7.711 -0.0280  0.1989  0.7116
  156SAPE  H16S17382   2.941   4.243   7.675 -0.3099 -2.2223  0.9780
  156SAPE  C21717383   2.997   4.334   7.869  0.5544  0.6342 -0.3296
  156SAPE  H17R17384   3.082   4.390   7.825 -0.2563  2.8941  0.8409
  156SAPE  H17S17385   3.048   4.245   7.912  1.7089  1.6296  0.4274
  156SAPE  C21817386   2.941   4.411   7.984  0.0403 -0.5425  0.4252
  156SAPE  H18R17387   2.903   4.342   8.062  0.4121 -1.3843 -0.1231
  156SAPE  H18S17388   2.859   4.474   7.943  0.8863  0.3755  0.0781
  156SAPE  C21917389   3.037   4.514   8.049  0.0529  0.2278 -0.4691
  156SAPE  H19R17390   3.062   4.600   7.983 -0.4687  1.4879  0.9192
  156SAPE  H19S17391   3.129   4.454   8.065 -0.2082  0.0645  0.4591
  156SAPE  C22017392   2.989   4.579   8.176 -0.4037  0.3132  0.2124
  156SAPE  H20R17393   2.906   4.653   8.167 -1.1311  0.4386  5.0496
  156SAPE  H20S17394   3.074   4.635   8.220 -1.2495  0.4641  1.7143
  156SAPE  H20T17395   2.964   4.499   8.249 -1.0479 -0.6706 -1.0587
  156SAPE   C3317396   3.605   3.910   7.031  0.2361 -0.0550 -0.2141
  156SAPE   H3X17397   3.657   4.000   6.990 -1.7329  0.4553 -1.7209
  156SAPE   H3Y17398   3.654   3.822   6.985 -1.1016 -0.8130 -0.2211
  156SAPE   C3417399   3.622   3.913   7.182  0.2524  0.4337  0.0355
  156SAPE   H4X17400   3.729   3.901   7.210  0.3826 -0.7347 -0.9071
  156SAPE   H4Y17401   3.581   3.815   7.214 -0.7685  0.8630  0.1054
  156SAPE   C3517402   3.554   4.038   7.257  0.0933 -0.0126 -0.0501
  156SAPE   H5X17403   3.447   4.015   7.272  0.3491  0.6249  3.6353
  156SAPE   H5Y17404   3.572   4.125   7.189  0.1943 -0.2276 -0.3018
  156SAPE   C3617405   3.610   4.077   7.394 -0.4172  0.2435  0.2581
  156SAPE   H6X17406   3.577   3.996   7.464 -2.4757  0.3940 -0.4746
  156SAPE   H6Y17407   3.556   4.162   7.441  0.4204  0.8959  0.0613
  156SAPE   C3717408   3.766   4.110   7.398 -0.3907 -0.7048  0.1454
  156SAPE   H7X17409   3.779   4.168   7.304 -1.8382 -2.9407 -1.5611
  156SAPE   H7Y17410   3.815   4.011   7.386 -5.2090 -3.3220 -0.6269
  156SAPE   C3817411   3.804   4.188   7.526 -0.1763 -0.5887 -0.2192
  156SAPE   H8X17412   3.915   4.194   7.534 -0.0632 -1.6139 -0.7917
  156SAPE   H8Y17413   3.767   4.125   7.610  1.5118 -2.1862 -0.6085
  156SAPE   C3917414   3.760   4.332   7.549 -0.1963  0.7012 -1.3486
  156SAPE   H9X17415   3.650   4.342   7.564 -0.5253 -2.1893 -1.3498
  156SAPE   H9Y17416   3.789   4.370   7.448  1.0996 -1.0262 -1.6861
  156SAPE  C31017417   3.837   4.416   7.660  0.4108  0.7190  0.1472
  156SAPE  H10X17418   3.895   4.346   7.724  0.2221  1.3746  1.0521
  156SAPE  H10Y17419   3.757   4.453   7.727  1.1613  1.0795  0.8636
  156SAPE  C31117420   3.909   4.539   7.600 -0.7451 -0.1679 -0.5918
  156SAPE  H11X17421   3.845   4.614   7.550  0.7459  1.7100  0.2009
  156SAPE  H11Y17422   3.986   4.498   7.531  0.8399  0.4770  0.7424
  156SAPE  C31217423   3.993   4.623   7.705 -0.0431  0.2467 -0.1344
  156SAPE  H12X17424   4.032   4.706   7.642  2.1902 -0.4157  0.2893
  156SAPE  H12Y17425   4.087   4.572   7.737 -0.5322 -1.1219 -0.8188
  156SAPE  C31317426   3.911   4.673   7.820 -0.3680  0.0430  0.2194
  156SAPE  H13X17427   3.854   4.595   7.874 -0.2771  0.1027  0.4058
  156SAPE  H13Y17428   3.840   4.751   7.786 -0.5934  0.0582  0.7232
  156SAPE  C31417429   4.001   4.739   7.926  0.1712  0.5407 -0.7116
  156SAPE  H14X17430   4.066   4.808   7.867  0.3104  0.7687 -0.2983
  156SAPE  H14Y17431   4.071   4.668   7.975 -0.1250  1.3687  0.9869
  156SAPE  C31517432   3.924   4.810   8.038  0.3471 -0.5142  0.0573
  156SAPE  H15X17433   3.854   4.727   8.065 -0.6235  0.0200 -0.7174
  156SAPE  H15Y17434   3.863   4.896   8.004  1.1433  0.0278 -0.0188
  156SAPE  C31617435   4.024   4.845   8.147 -0.2031 -0.1922  0.4864
  156SAPE  H16X17436   4.089   4.925   8.106  2.5055 -2.4980  0.0375
  156SAPE  H16Y17437   4.099   4.767   8.172  0.3613  0.3919  0.6492
  156SAPE  C31717438   3.956   4.903   8.271 -0.2292  0.5119  0.1448
  156SAPE  H17X17439   3.883   4.827   8.308  0.7467 -0.0275  1.0224
  156SAPE  H17Y17440   3.917   5.003   8.241  0.9208  0.4377 -1.7637
  156SAPE  C31817441   4.050   4.918   8.389  0.5061  0.0442 -0.3795
  156SAPE  H18X17442   4.148   4.966   8.367  1.5030 -1.4951  0.5035
  156SAPE  H18Y17443   4.075   4.818   8.432 -0.9609  0.6225  2.0369
  156SAPE  H18Z17444   4.005   4.979   8.470  2.7872  0.6130  0.5448
  157SAPE     N17445   0.587   4.077   5.835  0.4658  0.2334 -0.0625
  157SAPE   HN117446   0.536   4.117   5.753 -0.8686  0.4002  0.8126
  157SAPE   HN217447   0.653   4.011   5.790  1.0751 -0.4393  1.7358
  157SAPE   HN317448   0.512   4.033   5.893  0.9535  0.3225  0.6432
  157SAPE   C1217449   0.670   4.168   5.925  0.2913 -0.5355  0.1874
  157SAPE  H12A17450   0.698   4.253   5.859  1.4981 -0.7647  0.3795
  157SAPE  H12B17451   0.749   4.099   5.960 -1.4626 -2.3988  0.6314
  157SAPE   C1117452   0.581   4.223   6.043 -0.0844  0.6399  0.3878
  157SAPE  H11A17453   0.650   4.292   6.097  0.3130  1.4991 -1.1448
  157SAPE  H11B17454   0.548   4.139   6.107 -2.9181  2.2791  1.2814
  157SAPE     P17455   0.438   4.442   6.021  0.1364  0.2330  0.0031
  157SAPE   O1317456   0.566   4.512   5.997 -0.2127  0.0781 -0.2361
  157SAPE   O1417457   0.317   4.488   5.947 -0.7823  0.1278  0.1752
  157SAPE   O1217458   0.466   4.287   5.993 -0.1099  0.2814 -0.5717
  157SAPE   O1117459   0.405   4.436   6.180 -0.0972 -0.1486 -0.6007
  157SAPE    C117460   0.309   4.341   6.223 -0.3210 -0.1530 -0.7808
  157SAPE    HA17461   0.205   4.373   6.197 -1.8444 -3.8201  0.2121
  157SAPE    HB17462   0.344   4.242   6.186 -1.5763 -0.9490  0.0822
  157SAPE    C217463   0.320   4.321   6.378 -0.0486 -0.5729 -0.1805
  157SAPE    HS17464   0.266   4.227   6.403  0.7413 -0.8168  0.6565
  157SAPE   O2117465   0.257   4.442   6.441  0.0038  0.4996  0.6920
  157SAPE   C2117466   0.240   4.423   6.568 -0.0702 -0.2727 -0.2504
  157SAPE   O2217467   0.240   4.318   6.631 -0.3385 -0.2859  0.6186
  157SAPE   C2217468   0.245   4.571   6.628  0.3602  0.3931 -0.7152
  157SAPE   H2R17469   0.316   4.628   6.564  1.2078 -0.4168 -0.5133
  157SAPE   H2S17470   0.146   4.618   6.610  0.7928  1.5013 -0.3011
  157SAPE    C317471   0.471   4.297   6.417 -0.2903 -0.7817 -0.2689
  157SAPE    HX17472   0.518   4.389   6.378  0.6994 -0.9461  0.4752
  157SAPE    HY17473   0.521   4.229   6.344 -0.6059 -1.6150  0.2705
  157SAPE   O3117474   0.510   4.272   6.554  0.2536  0.2914 -0.1156
  157SAPE   C3117475   0.498   4.151   6.601 -0.1146  0.3678  0.0832
  157SAPE   O3217476   0.446   4.057   6.540  0.2355 -0.4011 -1.1739
  157SAPE   C3217477   0.581   4.130   6.726 -0.2300  0.4125  0.4899
  157SAPE   H2X17478   0.550   4.200   6.806  0.9925  1.1754  0.3091
  157SAPE   H2Y17479   0.687   4.154   6.706  0.5370 -1.1773  2.3492
  157SAPE   C2317480   0.288   4.587   6.777  1.2233 -0.2029  0.3276
  157SAPE   H3R17481   0.217   4.529   6.841  0.7961 -0.3272 -0.2413
  157SAPE   H3S17482   0.273   4.691   6.811 -0.7366 -0.4986  0.5277
  157SAPE   C2417483   0.419   4.518   6.807 -0.0086  0.2987 -0.0189
  157SAPE   H4R17484   0.475   4.472   6.723 -0.1517  0.4289 -0.1860
  157SAPE   H4S17485   0.409   4.440   6.885  4.0006 -1.5621 -1.0775
  157SAPE   C2517486   0.521   4.628   6.837  0.1511 -0.3494  0.3130
  157SAPE   H5R17487   0.564   4.684   6.753  0.3530  0.4748  0.9478
  157SAPE   C2617488   0.572   4.662   6.960  0.3597 -0.0531 -0.5555
  157SAPE   H6R17489   0.645   4.745   6.960  0.6251 -0.2349 -2.5174
  157SAPE   C2717490   0.553   4.606   7.095 -0.5707 -0.0993  0.1467
  157SAPE   H7R17491   0.472   4.530   7.089  0.9475 -1.7733  0.2106
  157SAPE   H7S17492   0.536   4.695   7.158  1.3610  0.0363  0.5335
  157SAPE   C2817493   0.667   4.538   7.153  0.1898  0.6600  0.0490
  157SAPE   H8R17494   0.721   4.484   7.073 -1.8323  1.2586 -1.8317
  157SAPE   C2917495   0.707   4.535   7.285  0.7819  0.4779  0.0043
  157SAPE   H9R17496   0.789   4.466   7.307 -0.7020 -1.0881  0.8033
  157SAPE  C21017497   0.642   4.608   7.396 -0.3052  0.3369  0.6831
  157SAPE  H10R17498   0.564   4.542   7.439  1.6440 -0.2358  3.6436
  157SAPE  H10S17499   0.584   4.692   7.352 -0.1207 -0.5809 -1.4172
  157SAPE  C21117500   0.740   4.654   7.503 -0.0352 -0.1709  0.0137
  157SAPE  H11R17501   0.844   4.669   7.470  0.6700  1.5768  2.7092
  157SAPE  C21217502   0.712   4.692   7.623  0.4753  0.7697 -0.5401
  157SAPE  H12R17503   0.791   4.722   7.693  0.7213 -0.2531 -0.3645
  157SAPE  C21317504   0.574   4.685   7.685  0.5034  0.4673 -0.2933
  157SAPE  H13R17505   0.493   4.680   7.609 -0.5862 -0.9623  0.8937
  157SAPE  H13S17506   0.555   4.774   7.748  0.1569 -1.1386  2.0078
  157SAPE  C21417507   0.561   4.561   7.778  0.8713 -0.7354 -0.8380
  157SAPE  H14R17508   0.594   4.463   7.740  2.4470 -0.0970 -1.1772
  157SAPE  C21517509   0.493   4.560   7.896  0.3588 -0.2512 -0.1553
  157SAPE  H15R17510   0.496   4.471   7.960 -2.8270  2.0479  3.5974
  157SAPE  C21617511   0.425   4.682   7.964 -0.2404  0.1876  0.1116
  157SAPE  H16R17512   0.464   4.778   7.925 -0.1583 -0.8986 -2.8086
  157SAPE  H16S17513   0.447   4.670   8.072  0.9113 -0.5046 -0.1811
  157SAPE  C21717514   0.267   4.687   7.937  0.3865 -0.7463 -0.4452
  157SAPE  H17R17515   0.230   4.586   7.965  0.4811 -0.2453  1.6972
  157SAPE  H17S17516   0.250   4.716   7.831  1.9275 -1.4676 -0.9230
  157SAPE  C21817517   0.192   4.785   8.031 -0.4876 -0.0649 -0.7509
  157SAPE  H18R17518   0.238   4.885   8.014  1.2231 -0.5854  0.5104
  157SAPE  H18S17519   0.214   4.762   8.137  0.3746 -1.3673 -1.1861
  157SAPE  C21917520   0.045   4.792   8.004 -0.0545  0.7993 -0.5237
  157SAPE  H19R17521  -0.001   4.692   8.016  0.5455  0.7704  2.0871
  157SAPE  H19S17522   0.035   4.820   7.897 -1.0517 -0.5695 -0.8091
  157SAPE  C22017523  -0.026   4.891   8.087  0.5360  0.6421 -0.6661
  157SAPE  H20R17524  -0.135   4.891   8.064  0.6668  2.0296 -1.3960
  157SAPE  H20S17525   0.008   4.992   8.054 -2.0961  0.9652 -2.8015
  157SAPE  H20T17526  -0.015   4.874   8.196  1.7290 -2.7195 -1.2117
  157SAPE   C3317527   0.582   3.983   6.773 -0.2644 -0.8569  0.3292
  157SAPE   H3X17528   0.644   3.914   6.712  2.0102 -0.5723  2.1868
  157SAPE   H3Y17529   0.475   3.952   6.778 -0.6817 -0.0280 -2.0710
  157SAPE   C3417530   0.637   3.987   6.919 -0.4139  0.6383 -0.6353
  157SAPE   H4X17531   0.610   3.893   6.971  1.5972  0.7742  0.7925
  157SAPE   H4Y17532   0.587   4.064   6.981  0.8899  0.6210  0.4836
  157SAPE   C3517533   0.783   4.037   6.928 -0.2425  1.1497 -0.0867
  157SAPE   H5X17534   0.779   4.144   6.899 -0.5412  1.3843  0.7968
  157SAPE   H5Y17535   0.846   3.987   6.851 -0.3200  1.2604 -0.2231
  157SAPE   C3617536   0.846   4.043   7.072  0.5338 -0.4288  0.2127
  157SAPE   H6X17537   0.948   4.086   7.074  1.8390 -3.2568 -0.3149
  157SAPE   H6Y17538   0.857   3.935   7.098  2.7847  0.1566  2.0010
  157SAPE   C3717539   0.748   4.109   7.167 -0.6652 -0.5856  0.1843
  157SAPE   H7X17540   0.664   4.039   7.189  1.5546 -3.8076 -0.9612
  157SAPE   H7Y17541   0.702   4.192   7.108 -4.9107 -1.5743  1.7007
  157SAPE   C3817542   0.807   4.151   7.300 -0.0866  0.5006  0.2764
  157SAPE   H8X17543   0.725   4.201   7.354  0.1643 -0.0251  1.1637
  157SAPE   H8Y17544   0.890   4.222   7.279  1.4077 -0.8854  1.2460
  157SAPE   C3917545   0.845   4.018   7.379  0.5324  0.1255  0.3831
  157SAPE   H9X17546   0.917   3.969   7.309  0.5214  1.3774 -0.5192
  157SAPE   H9Y17547   0.748   3.965   7.382  1.3595 -1.4944  0.1077
  157SAPE  C31017548   0.903   4.047   7.516 -0.0005  1.0361  0.0913
  157SAPE  H10X17549   0.991   4.115   7.505  1.1784 -0.4231  0.3005
  157SAPE  H10Y17550   0.942   3.948   7.548 -0.6349  0.6659 -0.2607
  157SAPE  C31117551   0.799   4.082   7.620  0.3085  0.0141 -0.1509
  157SAPE  H11X17552   0.697   4.043   7.598 -0.5757  2.2353 -0.3653
  157SAPE  H11Y17553   0.781   4.192   7.614 -2.2418 -0.2989  0.5327
  157SAPE  C31217554   0.853   4.061   7.762  0.5280  0.2524 -0.1823
  157SAPE  H12X17555   0.915   3.970   7.775 -2.0688 -1.3141  2.5960
  157SAPE  H12Y17556   0.761   4.040   7.821 -0.6439  1.6822 -1.4219
  157SAPE  C31317557   0.912   4.190   7.822  0.0953 -0.1838 -0.7163
  157SAPE  H13X17558   0.996   4.213   7.754 -0.1735 -1.8300 -1.6531
  157SAPE  H13Y17559   0.953   4.153   7.918  3.6946 -0.0258 -2.0683
  157SAPE  C31417560   0.813   4.300   7.850  0.1942 -0.5520  0.0688
  157SAPE  H14X17561   0.752   4.258   7.933  0.7202 -1.6396 -0.0738
  157SAPE  H14Y17562   0.746   4.323   7.764 -0.6120  0.4076  0.9336
  157SAPE  C31517563   0.885   4.426   7.905 -0.7763 -0.7976 -0.1326
  157SAPE  H15X17564   0.941   4.399   7.997 -0.4543  0.5692  0.0919
  157SAPE  H15Y17565   0.798   4.494   7.919  1.4202  2.4067 -0.9867
  157SAPE  C31617566   0.980   4.492   7.803  0.2733  0.8855 -0.3429
  157SAPE  H16X17567   0.936   4.504   7.702 -0.4800 -0.1395 -0.1505
  157SAPE  H16Y17568   1.068   4.425   7.792  0.5206  0.3835  3.3543
  157SAPE  C31717569   1.033   4.626   7.844  0.0847 -0.3199  0.1175
  157SAPE  H17X17570   1.097   4.608   7.933 -0.3803  0.7580  0.6872
  157SAPE  H17Y17571   0.961   4.707   7.869 -0.0560 -0.0990 -0.9375
  157SAPE  C31817572   1.141   4.681   7.750 -0.3888  0.7022 -0.1541
  157SAPE  H18X17573   1.090   4.713   7.657 -0.2468 -2.2063 -1.3621
  157SAPE  H18Y17574   1.211   4.601   7.717 -3.0134 -2.0832  0.4366
  157SAPE  H18Z17575   1.202   4.762   7.793  0.7868 -1.1588  1.9298
  158SAPE     N17576   2.220   4.590   5.891  0.0830 -0.7279 -0.0163
  158SAPE   HN117577   2.225   4.694   5.889  0.0664 -0.6026  2.7814
  158SAPE   HN217578   2.180   4.542   5.808  0.6649 -3.6301  1.2481
  158SAPE   HN317579   2.147   4.566   5.961 -1.5948  1.7134 -0.7981
  158SAPE   C1217580   2.354   4.528   5.918  0.1585 -0.3600  0.4600
  158SAPE  H12A17581   2.412   4.553   5.826 -0.6439  0.2717  0.1096
  158SAPE  H12B17582   2.339   4.418   5.922 -0.1484 -0.2889  2.4442
  158SAPE   C1117583   2.420   4.572   6.055  0.7232 -0.2013 -0.5760
  158SAPE  H11A17584   2.510   4.507   6.064  1.4796  0.8044 -0.7257
  158SAPE  H11B17585   2.356   4.539   6.140  0.2203 -0.6785 -1.1232
  158SAPE     P17586   2.551   4.763   6.176 -0.5345  0.1175  0.1209
  158SAPE   O1317587   2.654   4.834   6.102 -0.5333 -0.3656 -0.8420
  158SAPE   O1417588   2.491   4.850   6.275 -0.2445  1.1155 -0.0200
  158SAPE   O1217589   2.454   4.704   6.070 -0.3238 -0.8920  0.4467
  158SAPE   O1117590   2.614   4.642   6.244  0.3189 -0.2206  0.2060
  158SAPE    C117591   2.564   4.602   6.376  0.4475  0.8279  0.1009
  158SAPE    HA17592   2.455   4.619   6.381  0.2075 -0.6103  0.3048
  158SAPE    HB17593   2.566   4.492   6.392  0.3470  1.0391  1.7119
  158SAPE    C217594   2.631   4.669   6.494 -0.1679  0.1076  0.3540
  158SAPE    HS17595   2.696   4.752   6.461  1.0265 -0.6632  0.7065
  158SAPE   O2117596   2.707   4.558   6.552  0.5459 -0.4395 -0.1330
  158SAPE   C2117597   2.834   4.573   6.580  0.2731 -0.9859 -0.0947
  158SAPE   O2217598   2.898   4.672   6.565 -0.3970  0.0086 -0.8167
  158SAPE   C2217599   2.890   4.438   6.638  0.0424 -0.3761  1.1776
  158SAPE   H2R17600   2.817   4.391   6.707  0.2719 -0.7727  1.1560
  158SAPE   H2S17601   2.923   4.369   6.557  1.2201  0.5760  0.8207
  158SAPE    C317602   2.528   4.721   6.604  0.0660  0.4303 -0.3672
  158SAPE    HX17603   2.480   4.629   6.642  0.0150 -0.4079 -2.3474
  158SAPE    HY17604   2.446   4.786   6.567 -0.5166  1.5306  2.5441
  158SAPE   O3117605   2.593   4.791   6.714 -0.0927 -0.0835 -0.1842
  158SAPE   C3117606   2.611   4.920   6.680 -0.3275 -0.7071 -0.5321
  158SAPE   O3217607   2.576   4.970   6.577 -0.1146 -0.1685  0.1868
  158SAPE   C3217608   2.667   4.994   6.798  0.2268  0.1158  0.3481
  158SAPE   H2X17609   2.625   5.097   6.794  1.3808  0.7315  2.6678
  158SAPE   H2Y17610   2.778   4.996   6.801  0.2818 -2.0726  2.6533
  158SAPE   C2317611   3.019   4.473   6.715  0.1036  0.9184 -0.3507
  158SAPE   H3R17612   3.008   4.536   6.806  1.2637 -0.4653  0.8164
  158SAPE   H3S17613   3.092   4.520   6.647  1.0006 -1.1894 -0.9264
  158SAPE   C2417614   3.086   4.344   6.781  0.3491 -0.2377  0.0026
  158SAPE   H4R17615   3.119   4.270   6.705  2.1331  1.7013 -1.2002
  158SAPE   H4S17616   3.007   4.293   6.840  0.2170 -0.6372 -0.5113
  158SAPE   C2517617   3.204   4.380   6.869 -0.1927 -0.1086 -0.2455
  158SAPE   H5R17618   3.276   4.448   6.820  1.5554 -1.6660  0.0592
  158SAPE   C2617619   3.222   4.344   7.001  0.1962 -0.8700 -0.1559
  158SAPE   H6R17620   3.310   4.383   7.053 -1.3005  5.3394 -1.4510
  158SAPE   C2717621   3.129   4.261   7.077  0.2476  0.6333 -0.0938
  158SAPE   H7R17622   3.178   4.164   7.103 -0.3504 -0.2772 -2.1530
  158SAPE   H7S17623   3.047   4.224   7.012  0.1369  1.8014 -0.6333
  158SAPE   C2817624   3.080   4.326   7.203 -0.1554  0.0005  0.2586
  158SAPE   H8R17625   3.022   4.418   7.185 -2.3593 -1.5057 -0.7268
  158SAPE   C2917626   3.118   4.300   7.328  0.3119  0.5723 -0.8252
  158SAPE   H9R17627   3.082   4.365   7.410  0.9347  1.0686 -0.9326
  158SAPE  C21017628   3.208   4.187   7.373  0.6004 -0.3062 -0.2392
  158SAPE  H10R17629   3.310   4.230   7.388 -0.2685  1.6813  0.4023
  158SAPE  H10S17630   3.221   4.111   7.293 -0.1236  2.7277 -3.5321
  158SAPE  C21117631   3.157   4.127   7.495 -0.2886 -0.4583  0.1570
  158SAPE  H11R17632   3.061   4.078   7.472  1.2842 -3.4327 -0.4718
  158SAPE  C21217633   3.195   4.148   7.624 -0.0678 -1.2170 -0.7974
  158SAPE  H12R17634   3.145   4.110   7.714  1.3087  0.4944  0.7773
  158SAPE  C21317635   3.313   4.239   7.667 -0.8129  0.2131  0.3704
  158SAPE  H13R17636   3.267   4.335   7.699 -0.2789  0.9949 -1.1197
  158SAPE  H13S17637   3.374   4.265   7.578 -2.0600  1.6791 -0.1119
  158SAPE  C21417638   3.402   4.177   7.767  0.3206 -0.4457 -1.2772
  158SAPE  H14R17639   3.448   4.080   7.743 -0.2990 -0.8648 -0.8131
  158SAPE  C21517640   3.435   4.233   7.884  0.0079 -0.3376 -0.6132
  158SAPE  H15R17641   3.511   4.182   7.946 -0.2169 -0.3901 -0.3766
  158SAPE  C21617642   3.394   4.369   7.934  0.3826  0.4749 -0.4137
  158SAPE  H16R17643   3.372   4.364   8.043  1.0046 -1.8870 -0.3477
  158SAPE  H16S17644   3.299   4.401   7.886 -1.0579 -1.3256  1.0916
  158SAPE  C21717645   3.498   4.473   7.886 -0.2510 -0.8153  0.0204
  158SAPE  H17R17646   3.518   4.452   7.778 -1.7716 -0.4770 -0.3436
  158SAPE  H17S17647   3.595   4.442   7.931  0.1211  1.0341  0.5602
  158SAPE  C21817648   3.460   4.622   7.924  0.3454  0.0565  0.4324
  158SAPE  H18R17649   3.451   4.625   8.035  0.6862  0.3313  0.4536
  158SAPE  H18S17650   3.370   4.662   7.873  0.3881  0.3978  0.6267
  158SAPE  C21917651   3.582   4.717   7.905 -0.2018  0.2250  0.5753
  158SAPE  H19R17652   3.606   4.706   7.797 -2.8821  0.1536 -0.0807
  158SAPE  H19S17653   3.666   4.671   7.961  0.6019 -1.9151 -2.1464
  158SAPE  C22017654   3.569   4.861   7.931  0.1452 -0.0426  0.6385
  158SAPE  H20R17655   3.486   4.907   7.873  1.0270  0.3057 -0.4020
  158SAPE  H20S17656   3.663   4.918   7.909  0.2234 -1.1963 -2.6939
  158SAPE  H20T17657   3.537   4.884   8.034  2.0415  0.1639  1.2267
  158SAPE   C3317658   2.632   4.927   6.931  0.2570  0.2760 -0.3725
  158SAPE   H3X17659   2.672   4.823   6.942  3.1769  1.5131  2.5560
  158SAPE   H3Y17660   2.522   4.916   6.926  0.4497 -2.1000 -0.4950
  158SAPE   C3417661   2.679   5.008   7.058 -0.8392  0.1516  0.0515
  158SAPE   H4X17662   2.642   5.113   7.053 -4.7243 -1.0783 -0.9879
  158SAPE   H4Y17663   2.790   5.006   7.053 -0.7525  1.4563  0.8019
  158SAPE   C3517664   2.628   4.954   7.193 -0.2674  0.1962  0.6455
  158SAPE   H5X17665   2.666   4.851   7.212 -1.4881 -0.4855 -0.4749
  158SAPE   H5Y17666   2.518   4.939   7.194 -0.2311 -0.6556 -1.7447
  158SAPE   C3617667   2.659   5.051   7.308 -0.0648 -0.2488 -0.0871
  158SAPE   H6X17668   2.635   5.154   7.276  3.4449  0.2104 -1.7103
  158SAPE   H6Y17669   2.767   5.058   7.332  0.5786  1.6792 -2.9945
  158SAPE   C3717670   2.584   5.023   7.441  0.1372  0.4090  0.5680
  158SAPE   H7X17671   2.475   5.042   7.425  0.0491 -1.7368 -2.1099
  158SAPE   H7Y17672   2.602   4.916   7.461  0.2886  0.1741 -0.7365
  158SAPE   C3817673   2.625   5.122   7.554 -0.0346  0.8302  0.5632
  158SAPE   H8X17674   2.597   5.226   7.526  0.2230  1.1775  1.5375
  158SAPE   H8Y17675   2.736   5.123   7.559 -0.0328 -0.8261  1.1955
  158SAPE   C3917676   2.563   5.097   7.687 -1.1710  0.2352 -0.0908
  158SAPE   H9X17677   2.624   5.151   7.763 -2.2532  1.0947  0.2009
  158SAPE   H9Y17678   2.558   4.988   7.709 -1.8288  0.3133  0.1746
  158SAPE  C31017679   2.411   5.139   7.691  0.8986  0.0540  0.7059
  158SAPE  H10X17680   2.358   5.084   7.611 -0.2925 -0.6642  1.9513
  158SAPE  H10Y17681   2.391   5.248   7.681  1.4063  0.1495  0.6935
  158SAPE  C31117682   2.350   5.103   7.831 -0.5503  0.3098  0.2071
  158SAPE  H11X17683   2.350   4.993   7.843  2.3702  0.1854 -0.0627
  158SAPE  H11Y17684   2.244   5.132   7.822 -1.3085 -2.5919 -1.2801
  158SAPE  C31217685   2.425   5.171   7.948  0.1620  0.1353 -0.2802
  158SAPE  H12X17686   2.463   5.273   7.924 -0.9269  0.4522 -0.6938
  158SAPE  H12Y17687   2.518   5.118   7.978  0.4254  0.6289 -0.2004
  158SAPE  C31317688   2.350   5.201   8.083  0.2337  0.2199  0.6434
  158SAPE  H13X17689   2.264   5.265   8.053  0.7031  0.7086  0.3339
  158SAPE  H13Y17690   2.408   5.261   8.157 -0.5222 -0.9806  2.2870
  158SAPE  C31417691   2.315   5.062   8.142  0.1841  0.4553 -0.4810
  158SAPE  H14X17692   2.388   4.996   8.194 -2.4466 -2.0224  0.3353
  158SAPE  H14Y17693   2.291   4.999   8.054 -0.1858 -1.0121  0.6199
  158SAPE  C31517694   2.175   5.058   8.202  0.7470 -0.3115 -0.0893
  158SAPE  H15X17695   2.117   4.964   8.186  1.3740 -0.6940 -0.1697
  158SAPE  H15Y17696   2.110   5.136   8.156 -1.3801 -1.5822  0.5978
  158SAPE  C31617697   2.184   5.085   8.353  0.2431  0.3343 -0.4165
  158SAPE  H16X17698   2.244   5.175   8.378  1.0058 -0.5397  1.0474
  158SAPE  H16Y17699   2.225   4.991   8.395 -4.1048 -0.7956  1.9626
  158SAPE  C31717700   2.042   5.109   8.396 -0.1656 -0.7093  0.0710
  158SAPE  H17X17701   1.985   5.022   8.356 -0.8528 -0.6568  0.9063
  158SAPE  H17Y17702   2.021   5.201   8.338  2.1545  0.9055  1.6023
  158SAPE  C31817703   2.022   5.117   8.547  0.4872 -0.1692 -0.3184
  158SAPE  H18X17704   2.076   5.206   8.586  1.5102 -1.0556  0.3454
  158SAPE  H18Y17705   2.048   5.017   8.588  0.4839 -0.2640 -0.5447
  158SAPE  H18Z17706   1.912   5.133   8.551  0.6088  0.5329  0.5282
  159SAPE     N17707   0.236   5.467   5.949  0.8142 -0.0609 -0.1129
  159SAPE   HN117708   0.333   5.430   5.953  1.7719  2.3530  0.5719
  159SAPE   HN217709   0.185   5.430   6.032  0.6534  4.3646  2.0439
  159SAPE   HN317710   0.189   5.436   5.861 -0.2650 -0.2439  0.5029
  159SAPE   C1217711   0.247   5.607   5.979 -0.9377 -0.3980 -0.0700
  159SAPE  H12A17712   0.151   5.656   5.950 -3.1353 -2.9146  2.3438
  159SAPE  H12B17713   0.330   5.651   5.920 -1.7532  0.3876 -0.6567
  159SAPE   C1117714   0.287   5.645   6.124 -0.5218  0.8932  0.3062
  159SAPE  H11A17715   0.203   5.631   6.196  0.4865 -1.3561  1.1454
  159SAPE  H11B17716   0.307   5.754   6.122 -2.2943  1.2456  0.5761
  159SAPE     P17717   0.553   5.605   6.176 -0.0835 -0.2203  0.0987
  159SAPE   O1317718   0.627   5.476   6.184 -0.0070  0.2768  0.1809
  159SAPE   O1417719   0.587   5.696   6.067 -0.1446  0.6217 -0.1682
  159SAPE   O1217720   0.401   5.578   6.168 -0.2087  0.4167 -0.3131
  159SAPE   O1117721   0.578   5.692   6.310 -0.1430  0.1145 -0.0919
  159SAPE    C117722   0.476   5.696   6.411 -0.1500  0.2249  0.0859
  159SAPE    HA17723   0.403   5.774   6.382 -1.9363 -0.8545  1.4252
  159SAPE    HB17724   0.432   5.594   6.420  0.2622  0.1133  0.9591
  159SAPE    C217725   0.525   5.715   6.560 -0.3438 -0.1289  0.6893
  159SAPE    HS17726   0.590   5.806   6.563  1.3226 -1.2979  1.4960
  159SAPE   O2117727   0.576   5.593   6.606  0.1054  0.0464 -0.0157
  159SAPE   C2117728   0.699   5.562   6.566 -0.0827 -0.1628 -0.4936
  159SAPE   O2217729   0.772   5.626   6.488 -0.3628  0.0783 -0.0144
  159SAPE   C2217730   0.739   5.435   6.630 -0.3120 -0.2229  0.0825
  159SAPE   H2R17731   0.664   5.361   6.596  0.5713 -2.5097  2.7354
  159SAPE   H2S17732   0.840   5.407   6.592  0.1534  2.5763 -1.0677
  159SAPE    C317733   0.403   5.760   6.652 -0.1832 -0.4409  0.5877
  159SAPE    HX17734   0.351   5.664   6.674  0.5625 -0.8946  0.4026
  159SAPE    HY17735   0.347   5.838   6.596  3.2677  3.2152  1.7450
  159SAPE   O3117736   0.460   5.817   6.773 -0.1279  0.1829  0.3351
  159SAPE   C3117737   0.378   5.845   6.870 -0.1751 -0.2713 -0.0220
  159SAPE   O3217738   0.259   5.812   6.866  0.4924 -0.2367 -0.1591
  159SAPE   C3217739   0.446   5.930   6.978 -0.7974 -0.8794  0.2589
  159SAPE   H2X17740   0.443   6.034   6.940 -1.4731 -1.0073 -0.0589
  159SAPE   H2Y17741   0.548   5.888   6.992 -0.0025  1.2345  1.0610
  159SAPE   C2317742   0.748   5.449   6.785 -0.3536  0.5156 -1.0403
  159SAPE   H3R17743   0.650   5.477   6.830 -1.0267 -0.2694 -1.9906
  159SAPE   H3S17744   0.813   5.538   6.804 -2.8631  2.3435 -0.4749
  159SAPE   C2417745   0.819   5.335   6.853  0.2828 -0.4091  0.1804
  159SAPE   H4R17746   0.835   5.348   6.962 -0.0376 -2.0799  0.4475
  159SAPE   H4S17747   0.921   5.324   6.810  0.6593  1.6367  0.4237
  159SAPE   C2517748   0.737   5.208   6.829  0.1993 -0.1789  0.7548
  159SAPE   H5R17749   0.700   5.198   6.726  2.9562  1.0410 -0.4671
  159SAPE   C2617750   0.717   5.105   6.914 -0.2813  0.1712  0.5798
  159SAPE   H6R17751   0.661   5.014   6.890 -0.1363  0.8816 -2.9045
  159SAPE   C2717752   0.778   5.098   7.055 -1.0824  0.1161 -0.5423
  159SAPE   H7R17753   0.751   5.191   7.110 -1.5098  0.2313 -0.9399
  159SAPE   H7S17754   0.888   5.102   7.044 -1.0043  1.7681  0.4105
  159SAPE   C2817755   0.715   4.984   7.136  0.4715 -0.4976  0.1472
  159SAPE   H8R17756   0.619   5.003   7.186 -0.2626 -3.6478  0.1523
  159SAPE   C2917757   0.775   4.868   7.172  1.1510 -0.3005  0.3840
  159SAPE   H9R17758   0.731   4.808   7.253 -0.5559  1.1825  0.6161
  159SAPE  C21017759   0.918   4.841   7.136 -0.3736 -0.2643  0.5223
  159SAPE  H10R17760   0.990   4.925   7.117  2.0877 -2.4634 -0.5661
  159SAPE  H10S17761   0.917   4.796   7.034  0.0009  0.2028  0.3036
  159SAPE  C21117762   0.983   4.741   7.222  0.2653 -0.6572 -0.0776
  159SAPE  H11R17763   0.966   4.634   7.205  0.1326 -0.7024  0.3151
  159SAPE  C21217764   1.069   4.774   7.323  0.0273  0.2176  0.6824
  159SAPE  H12R17765   1.096   4.695   7.394 -2.3117 -1.6276 -0.3444
  159SAPE  C21317766   1.110   4.917   7.355 -0.2582 -0.1421 -0.2268
  159SAPE  H13R17767   1.031   4.992   7.334  0.3021  1.1354  1.8478
  159SAPE  H13S17768   1.179   4.945   7.272  0.3775  0.2273  0.4101
  159SAPE  C21417769   1.167   4.931   7.498 -0.2369  0.3850  0.2616
  159SAPE  H14R17770   1.261   4.878   7.516 -0.9880 -1.4301 -0.8970
  159SAPE  C21517771   1.109   4.995   7.602 -0.0600  0.0722 -0.3079
  159SAPE  H15R17772   1.156   4.981   7.700  1.0569  1.4505 -0.6131
  159SAPE  C21617773   0.973   5.069   7.592  0.4536 -0.4352 -0.3136
  159SAPE  H16R17774   0.898   5.022   7.660  0.5190 -1.6939 -1.0613
  159SAPE  H16S17775   0.931   5.063   7.489 -0.0481  0.4544 -0.1737
  159SAPE  C21717776   0.977   5.219   7.634 -0.2405  0.6598 -0.1448
  159SAPE  H17R17777   0.888   5.276   7.599 -1.1011 -0.2524  0.5021
  159SAPE  H17S17778   1.055   5.268   7.571 -1.3931 -1.3696 -3.3826
  159SAPE  C21817779   0.986   5.251   7.781 -0.0808  0.3240 -0.5862
  159SAPE  H18R17780   1.003   5.361   7.783  1.4355  0.1239 -1.1196
  159SAPE  H18S17781   1.069   5.202   7.837 -0.9529  0.0329  0.4961
  159SAPE  C21917782   0.867   5.212   7.872  0.2936  0.4049  0.7058
  159SAPE  H19R17783   0.858   5.102   7.857  1.1779  0.2101  1.5222
  159SAPE  H19S17784   0.769   5.249   7.836  0.0674 -0.2650  0.6090
  159SAPE  C22017785   0.879   5.235   8.025  0.3906  0.6597 -0.0146
  159SAPE  H20R17786   0.987   5.219   8.045  0.5525  0.4898 -0.9718
  159SAPE  H20S17787   0.816   5.157   8.072  0.6672 -0.7287 -1.8384
  159SAPE  H20T17788   0.839   5.336   8.048 -0.3726  0.8753 -2.0817
  159SAPE   C3317789   0.371   5.926   7.112 -1.1065 -0.4694  0.1551
  159SAPE   H3X17790   0.387   5.827   7.160  0.4838  0.3392  1.3997
  159SAPE   H3Y17791   0.265   5.953   7.090 -0.4204  1.1304 -1.4265
  159SAPE   C3417792   0.426   6.026   7.206 -0.3456 -0.1636 -0.1992
  159SAPE   H4X17793   0.405   6.121   7.152 -0.8625 -0.9037 -1.3445
  159SAPE   H4Y17794   0.536   6.013   7.209 -0.2044 -0.3985 -2.9905
  159SAPE   C3517795   0.347   6.025   7.332  0.0624  0.1207 -0.8005
  159SAPE   H5X17796   0.358   5.928   7.386 -1.2732 -0.2764 -1.2031
  159SAPE   H5Y17797   0.238   6.048   7.332  0.5387  2.9223  1.4198
  159SAPE   C3617798   0.401   6.142   7.422  0.2768  0.1119  0.1227
  159SAPE   H6X17799   0.415   6.237   7.365 -1.8148 -0.3935 -1.3577
  159SAPE   H6Y17800   0.502   6.103   7.444  0.0287 -1.3098 -1.0858
  159SAPE   C3717801   0.328   6.169   7.552  0.5272  0.3699 -0.4178
  159SAPE   H7X17802   0.225   6.208   7.542  1.6909  4.7111  1.9215
  159SAPE   H7Y17803   0.391   6.242   7.608 -1.4392  0.3356  2.0307
  159SAPE   C3817804   0.331   6.050   7.657  0.5507  0.0520  0.2465
  159SAPE   H8X17805   0.419   5.986   7.632  0.2174  0.0946 -1.0660
  159SAPE   H8Y17806   0.234   5.999   7.639  1.0729 -0.2834 -1.8035
  159SAPE   C3917807   0.344   6.090   7.802  0.3325  0.1771  0.1085
  159SAPE   H9X17808   0.285   6.015   7.859  0.9328  0.7556  1.5217
  159SAPE   H9Y17809   0.304   6.193   7.818  2.5923  1.8470 -3.7339
  159SAPE  C31017810   0.483   6.058   7.850  0.0200  0.6439 -0.8982
  159SAPE  H10X17811   0.552   6.133   7.805  0.2919  2.4046  2.2114
  159SAPE  H10Y17812   0.521   5.957   7.825  0.4581  1.0417 -1.8935
  159SAPE  C31117813   0.501   6.082   8.001  0.3610  0.6288 -0.0242
  159SAPE  H11X17814   0.441   6.004   8.052 -0.1943 -0.4683 -2.2115
  159SAPE  H11Y17815   0.450   6.180   8.017 -2.8470 -0.6503 -1.4128
  159SAPE  C31217816   0.643   6.082   8.049 -0.2821 -0.0501  0.6025
  159SAPE  H12X17817   0.694   6.165   7.997 -2.3416  1.7313  1.2870
  159SAPE  H12Y17818   0.688   5.983   8.026 -0.2956  0.2200 -0.6269
  159SAPE  C31317819   0.661   6.101   8.205  0.2511  0.8164  0.2870
  159SAPE  H13X17820   0.611   6.012   8.250  0.3123  0.7478  0.2214
  159SAPE  H13Y17821   0.603   6.188   8.241 -0.4513 -0.8173  3.4189
  159SAPE  C31417822   0.814   6.114   8.246  0.1015  0.1547  0.1828
  159SAPE  H14X17823   0.857   6.193   8.180 -0.1907 -0.5216 -0.8548
  159SAPE  H14Y17824   0.857   6.017   8.214  2.4919  1.0401  0.5271
  159SAPE  C31517825   0.840   6.140   8.397 -0.6798  0.2006 -0.6317
  159SAPE  H15X17826   0.791   6.057   8.451 -0.3265  0.7957  0.6543
  159SAPE  H15Y17827   0.791   6.232   8.436  2.0118  1.2502  0.5461
  159SAPE  C31617828   0.988   6.139   8.448 -0.2029 -0.6896 -0.4990
  159SAPE  H16X17829   0.984   6.201   8.540 -2.1478 -0.7422 -0.5102
  159SAPE  H16Y17830   1.054   6.183   8.370 -1.3575 -2.7423 -2.7921
  159SAPE  C31717831   1.036   6.003   8.498  0.2825  0.1419 -0.1977
  159SAPE  H17X17832   1.009   5.929   8.419 -1.6142  0.1423  0.4051
  159SAPE  H17Y17833   0.979   5.984   8.591  2.3751  0.0737  1.1326
  159SAPE  C31817834   1.185   5.996   8.531 -0.1464 -0.3305 -0.4726
  159SAPE  H18X17835   1.215   6.079   8.599  2.4126 -1.4670 -0.0896
  159SAPE  H18Y17836   1.250   6.002   8.441  0.3864  0.9467 -0.0277
  159SAPE  H18Z17837   1.196   5.902   8.590 -1.6460  0.2959  0.8747
  160SAPE     N17838   1.279   4.376   6.063 -0.2350 -0.2292  0.1216
  160SAPE   HN117839   1.268   4.475   6.093  2.3589  0.1477  0.0641
  160SAPE   HN217840   1.330   4.374   5.973 -0.3417  0.4219  0.0379
  160SAPE   HN317841   1.186   4.330   6.055  1.5010 -4.4370  1.2126
  160SAPE   C1217842   1.349   4.292   6.164 -0.3796  0.9618 -0.6764
  160SAPE  H12A17843   1.283   4.275   6.252  2.5772 -0.9126  1.3253
  160SAPE  H12B17844   1.439   4.351   6.190 -0.0379 -0.1346  0.7072
  160SAPE   C1117845   1.407   4.163   6.107 -0.4517 -0.2935  0.0038
  160SAPE  H11A17846   1.471   4.193   6.022  0.6061  1.3011  1.3034
  160SAPE  H11B17847   1.318   4.104   6.076  1.2783 -2.7081 -0.5881
  160SAPE     P17848   1.596   3.995   6.179 -0.1566 -0.0881  0.1193
  160SAPE   O1317849   1.561   3.870   6.254 -0.1363  0.1568 -0.2373
  160SAPE   O1417850   1.619   3.986   6.030 -0.1144 -0.1970 -0.3990
  160SAPE   O1217851   1.471   4.090   6.210 -0.0835 -0.2563 -0.1835
  160SAPE   O1117852   1.727   4.063   6.241 -0.1082  0.5794  0.0021
  160SAPE    C117853   1.735   4.204   6.239  0.1129 -0.2671 -0.0100
  160SAPE    HA17854   1.727   4.234   6.132 -0.1517  1.3333  0.4274
  160SAPE    HB17855   1.652   4.254   6.295  0.5719 -0.3979  0.7966
  160SAPE    C217856   1.872   4.257   6.295 -0.3510 -0.5655  1.1660
  160SAPE    HS17857   1.953   4.216   6.231 -0.9035 -1.0947  0.7979
  160SAPE   O2117858   1.895   4.215   6.432 -0.3532 -0.4998  0.4420
  160SAPE   C2117859   2.008   4.167   6.456  0.2635  0.5262  0.3686
  160SAPE   O2217860   2.099   4.151   6.381  0.2350 -0.7488  0.0215
  160SAPE   C2217861   2.002   4.121   6.607  0.5392 -0.5730 -0.1522
  160SAPE   H2R17862   1.902   4.074   6.625 -0.0705  0.4687 -0.7225
  160SAPE   H2S17863   2.085   4.047   6.617 -0.4978 -1.9071 -1.0232
  160SAPE    C317864   1.868   4.413   6.305  0.1886  0.1602  0.4986
  160SAPE    HX17865   1.793   4.427   6.385  0.8039  3.1759  0.6692
  160SAPE    HY17866   1.821   4.452   6.212  0.5023 -0.5502  0.0303
  160SAPE   O3117867   1.991   4.479   6.335 -0.3680 -0.0662  0.1263
  160SAPE   C3117868   1.989   4.581   6.425  0.4915  0.2687 -1.1792
  160SAPE   O3217869   1.895   4.641   6.473  0.7626  0.1218  0.5138
  160SAPE   C3217870   2.133   4.621   6.463  0.1180  0.1240  0.1067
  160SAPE   H2X17871   2.168   4.689   6.381 -0.5386 -1.5137 -1.6010
  160SAPE   H2Y17872   2.200   4.533   6.467 -0.3955 -0.2433  0.6020
  160SAPE   C2317873   2.026   4.236   6.710 -0.6228 -0.2879 -0.7079
  160SAPE   H3R17874   1.952   4.311   6.676 -1.8691 -1.7986 -1.4430
  160SAPE   H3S17875   2.130   4.274   6.715 -0.9052  0.3507  2.1807
  160SAPE   C2417876   1.992   4.187   6.852  0.5840  0.5190 -0.1451
  160SAPE   H4R17877   1.894   4.135   6.845  1.9176 -2.4812  1.5664
  160SAPE   H4S17878   1.983   4.270   6.925 -2.5708 -0.4822  0.7389
  160SAPE   C2517879   2.102   4.090   6.891 -0.0635  0.2840 -0.2338
  160SAPE   H5R17880   2.162   4.057   6.805  1.4856  2.2327  0.0164
  160SAPE   C2617881   2.133   4.067   7.019 -0.2618  0.2173  0.7492
  160SAPE   H6R17882   2.222   4.011   7.050  0.1671  0.1899 -0.4804
  160SAPE   C2717883   2.064   4.120   7.139  0.6168  0.8642  0.1464
  160SAPE   H7R17884   2.071   4.054   7.229 -1.5538  2.1349  1.3465
  160SAPE   H7S17885   1.953   4.123   7.133  0.2726  1.7608  4.1048
  160SAPE   C2817886   2.126   4.245   7.176 -0.0646 -0.4191 -0.5318
  160SAPE   H8R17887   2.105   4.334   7.114 -1.4409 -0.1697  0.2531
  160SAPE   C2917888   2.216   4.265   7.273 -0.1432  0.2847 -0.3683
  160SAPE   H9R17889   2.243   4.368   7.300 -0.7578 -0.4878  3.8189
  160SAPE  C21017890   2.276   4.157   7.366  0.1314 -0.3627  0.1759
  160SAPE  H10R17891   2.291   4.062   7.312 -1.6720 -0.0904 -0.8995
  160SAPE  H10S17892   2.197   4.127   7.439 -2.2685  1.1801 -1.6478
  160SAPE  C21117893   2.407   4.184   7.433  0.1050 -0.4136 -0.6224
  160SAPE  H11R17894   2.488   4.216   7.366 -0.0688  0.6161 -0.3614
  160SAPE  C21217895   2.429   4.190   7.569 -0.5348 -0.6768  0.3331
  160SAPE  H12R17896   2.530   4.209   7.607 -0.6193 -0.1473  0.2981
  160SAPE  C21317897   2.322   4.183   7.677  0.1048 -0.8861 -0.0273
  160SAPE  H13R17898   2.367   4.121   7.757 -0.0459  1.3000  1.8659
  160SAPE  H13S17899   2.239   4.118   7.644  0.7156 -1.3400 -0.7079
  160SAPE  C21417900   2.279   4.323   7.733 -0.5205 -0.0364  0.1070
  160SAPE  H14R17901   2.228   4.389   7.662 -3.1647 -2.6178 -0.5733
  160SAPE  C21517902   2.292   4.360   7.864  0.1476 -0.7554  0.1302
  160SAPE  H15R17903   2.251   4.454   7.904 -0.8634 -1.5812  1.1165
  160SAPE  C21617904   2.341   4.270   7.978 -0.2941  0.6834  0.2008
  160SAPE  H16R17905   2.451   4.273   7.994 -0.3071 -1.8063  1.2559
  160SAPE  H16S17906   2.318   4.162   7.967  0.8981  0.6108 -1.9962
  160SAPE  C21717907   2.276   4.302   8.114  0.3394  0.0927  0.3927
  160SAPE  H17R17908   2.267   4.211   8.177  2.2207  0.9836  2.0869
  160SAPE  H17S17909   2.174   4.341   8.096  0.6235  0.5391 -0.2957
  160SAPE  C21817910   2.342   4.415   8.196 -0.2704  0.8611 -0.0959
  160SAPE  H18R17911   2.292   4.424   8.295 -1.6306  1.9113 -0.8413
  160SAPE  H18S17912   2.315   4.511   8.146 -0.2636  0.0397 -1.7327
  160SAPE  C21917913   2.494   4.398   8.216  0.3026  0.1405 -0.0659
  160SAPE  H19R17914   2.550   4.398   8.120 -1.0053 -1.4176 -0.8630
  160SAPE  H19S17915   2.512   4.297   8.258 -1.1712 -1.4164 -2.9107
  160SAPE  C22017916   2.564   4.504   8.305  0.2436 -0.0830  0.2872
  160SAPE  H20R17917   2.555   4.601   8.253 -0.0931 -1.1936 -1.8059
  160SAPE  H20S17918   2.668   4.467   8.322 -0.1349 -1.3544 -0.0616
  160SAPE  H20T17919   2.507   4.517   8.400 -1.6684 -0.8532 -0.7197
  160SAPE   C3317920   2.137   4.685   6.605  0.2435 -0.5560 -0.3714
  160SAPE   H3X17921   2.058   4.764   6.599  0.4606 -0.3924 -1.3632
  160SAPE   H3Y17922   2.228   4.749   6.601 -0.5031  0.4993 -1.6427
  160SAPE   C3417923   2.111   4.581   6.715 -0.5505 -1.2611 -0.4530
  160SAPE   H4X17924   2.186   4.500   6.700  1.0476  0.4278 -2.1972
  160SAPE   H4Y17925   2.008   4.542   6.707 -0.4082 -1.9727  0.8786
  160SAPE   C3517926   2.135   4.646   6.852 -0.2317  1.0075 -0.1784
  160SAPE   H5X17927   2.242   4.670   6.865  0.2440  0.4358 -2.5736
  160SAPE   H5Y17928   2.116   4.575   6.935  0.5531  0.8570 -0.1278
  160SAPE   C3617929   2.043   4.758   6.888  0.4855 -0.0915  0.0406
  160SAPE   H6X17930   1.944   4.727   6.850  0.0031 -0.3414  1.4569
  160SAPE   H6Y17931   2.067   4.854   6.837 -0.7780  1.6574  2.5655
  160SAPE   C3717932   2.035   4.779   7.026  0.4174 -0.5219 -0.5890
  160SAPE   H7X17933   1.999   4.699   7.093 -1.3260  1.6649  1.2643
  160SAPE   H7Y17934   1.957   4.857   7.042  1.1206  0.1021 -0.0903
  160SAPE   C3817935   2.156   4.828   7.114  0.4884 -0.1209  0.0448
  160SAPE   H8X17936   2.185   4.927   7.073  2.0366 -0.5141  0.1389
  160SAPE   H8Y17937   2.237   4.759   7.081  0.4785  0.3110 -0.9221
  160SAPE   C3917938   2.132   4.821   7.263  0.0077  0.2714 -0.1281
  160SAPE   H9X17939   2.043   4.880   7.290 -0.9639 -1.8175  1.4872
  160SAPE   H9Y17940   2.223   4.867   7.308 -0.7073 -0.0830  1.7422
  160SAPE  C31017941   2.100   4.682   7.326 -0.7224 -0.3604 -0.8034
  160SAPE  H10X17942   2.174   4.608   7.288  0.9796  0.3199  0.9839
  160SAPE  H10Y17943   1.994   4.654   7.310 -0.5970  0.0640 -2.5514
  160SAPE  C31117944   2.121   4.670   7.484 -0.8534 -0.0524  0.3911
  160SAPE  H11X17945   2.231   4.668   7.498 -0.4736  1.6464 -1.7884
  160SAPE  H11Y17946   2.080   4.577   7.527  0.6433 -0.4981  0.8997
  160SAPE  C31217947   2.060   4.788   7.560  0.3334 -0.6026  0.0231
  160SAPE  H12X17948   1.949   4.776   7.561  0.4353 -2.5146  3.3902
  160SAPE  H12Y17949   2.074   4.881   7.502  0.4100 -0.9944 -0.5967
  160SAPE  C31317950   2.105   4.789   7.710 -0.1256  0.0041 -0.0072
  160SAPE  H13X17951   2.189   4.856   7.737  0.3030 -0.1044 -1.0354
  160SAPE  H13Y17952   2.133   4.687   7.743  0.8074  0.3109  0.1876
  160SAPE  C31417953   1.983   4.826   7.794 -0.2262  0.0836  0.3798
  160SAPE  H14X17954   1.894   4.762   7.775 -0.5321 -0.3614  2.9999
  160SAPE  H14Y17955   1.958   4.931   7.770  1.8863  0.6546  0.4765
  160SAPE  C31517956   2.019   4.823   7.943 -0.0546  0.3630  0.5104
  160SAPE  H15X17957   1.982   4.916   7.991 -0.9241 -0.3060  1.1756
  160SAPE  H15Y17958   2.129   4.831   7.951  0.6666 -3.5367 -2.5608
  160SAPE  C31617959   1.980   4.696   8.014 -0.0162 -0.5059  0.8064
  160SAPE  H16X17960   2.011   4.597   7.974  0.1476 -0.2683  0.3286
  160SAPE  H16Y17961   1.870   4.686   8.025  0.2357 -3.8483  1.1666
  160SAPE  C31717962   2.037   4.705   8.160  0.3629 -0.0096 -0.5985
  160SAPE  H17X17963   1.986   4.777   8.228  0.9849  0.7861 -0.9523
  160SAPE  H17Y17964   2.145   4.728   8.151  0.3809 -0.6141 -2.3820
  160SAPE  C31817965   2.021   4.578   8.242 -1.1034 -0.5018 -0.1916
  160SAPE  H18X17966   2.100   4.589   8.319  1.7752  2.0552 -3.1880
  160SAPE  H18Y17967   2.038   4.488   8.178  0.5015  0.9892 -2.0044
  160SAPE  H18Z17968   1.923   4.576   8.293 -0.4485 -0.1803  1.1199
  161SOPE     N17969   0.452   4.415  10.582  0.3858 -0.4132  0.5313
  161SOPE   HN117970   0.437   4.506  10.629  1.8965 -0.4161  1.0649
  161SOPE   HN217971   0.398   4.404  10.494  2.2000 -0.3191 -0.6421
  161SOPE   HN317972   0.408   4.352  10.652 -0.3060  0.2202  0.6821
  161SOPE   C1217973   0.590   4.370  10.573 -0.7760 -0.0292  0.2448
  161SOPE  H12A17974   0.600   4.274  10.518  0.3912  0.3176 -0.1973
  161SOPE  H12B17975   0.632   4.354  10.675  0.7272 -1.9588 -0.6260
  161SOPE   C1117976   0.681   4.462  10.488  0.1407 -0.3567  0.4774
  161SOPE  H11A17977   0.659   4.452  10.380  0.3985  0.8286  0.2942
  161SOPE  H11B17978   0.782   4.418  10.501 -0.2568 -0.7674  2.5654
  161SOPE     P17979   0.795   4.677  10.599  0.0047  0.4500 -0.2922
  161SOPE   O1317980   0.794   4.638  10.740 -0.3396  0.4626  0.4370
  161SOPE   O1417981   0.781   4.820  10.574  0.2192 -0.1851 -0.4350
  161SOPE   O1217982   0.681   4.598  10.524 -0.3193 -0.3900  0.1906
  161SOPE   O1117983   0.931   4.615  10.539  0.8056 -0.2772  0.4971
  161SOPE    C117984   0.989   4.687  10.434  0.1051 -0.0286  0.5323
  161SOPE    HA17985   1.096   4.656  10.430 -0.0215 -0.6041  1.2922
  161SOPE    HB17986   1.003   4.795  10.454 -0.9303  0.0805  0.7034
  161SOPE    C217987   0.923   4.666  10.295  0.9519 -0.0497  0.0721
  161SOPE    HS17988   0.823   4.713  10.300  0.9273 -0.1580  0.6386
  161SOPE   O2117989   0.917   4.525  10.259 -0.5242  0.4258 -0.3131
  161SOPE   C2117990   0.833   4.503  10.153 -0.1196 -0.1920  0.9277
  161SOPE   O2217991   0.745   4.580  10.115  0.4503  0.3415 -0.4211
  161SOPE   C2217992   0.875   4.371  10.090  0.2903  0.3157  0.7718
  161SOPE   H2R17993   0.859   4.291  10.166 -0.0976 -1.1327 -0.7738
  161SOPE   H2S17994   0.984   4.387  10.074  0.2547  0.9662  1.1364
  161SOPE    C317995   0.998   4.754  10.184  0.2328  1.0163 -0.2965
  161SOPE    HX17996   1.016   4.858  10.220 -2.4039  1.4826 -0.0894
  161SOPE    HY17997   0.923   4.774  10.104  1.0455 -0.8807 -1.6056
  161SOPE   O3117998   1.104   4.685  10.124 -0.6399 -0.1007  0.0864
  161SOPE   C3117999   1.227   4.722  10.142 -0.3346  0.4038  0.1826
  161SOPE   O3218000   1.267   4.805  10.219 -0.2264  0.0181 -0.5574
  161SOPE   C3218001   1.311   4.636  10.047  0.5883  0.1916 -0.1491
  161SOPE   H2X18002   1.298   4.528  10.070 -0.4839  0.2987 -0.1808
  161SOPE   H2Y18003   1.418   4.657  10.063  1.4614 -3.3347 -0.5091
  161SOPE   C2318004   0.795   4.343   9.955 -0.0143  0.1399 -0.4310
  161SOPE   H3R18005   0.685   4.352   9.967  0.0894  1.3618 -0.2903
  161SOPE   H3S18006   0.812   4.234   9.936  0.0260  0.1291 -0.3348
  161SOPE   C2418007   0.841   4.415   9.825  0.3052  0.1338  0.0592
  161SOPE   H4R18008   0.801   4.518   9.816 -1.6454 -0.5418  0.6112
  161SOPE   H4S18009   0.952   4.425   9.833  0.4613  0.0322 -1.5852
  161SOPE   C2518010   0.814   4.327   9.695  0.1533  0.1187 -0.2793
  161SOPE   H5R18011   0.886   4.243   9.700 -0.1329 -0.2290 -1.5093
  161SOPE   H5S18012   0.710   4.288   9.701  0.6472 -1.0184  1.5953
  161SOPE   C2618013   0.855   4.396   9.567 -0.3851  0.1340  0.8737
  161SOPE   H6R18014   0.790   4.486   9.562 -0.3520  0.1783  1.2189
  161SOPE   H6S18015   0.956   4.439   9.581 -0.3134 -0.2471  1.5282
  161SOPE   C2718016   0.865   4.292   9.453  0.1114  0.0436  0.7770
  161SOPE   H7R18017   0.940   4.211   9.467  1.6121  0.9861 -1.2356
  161SOPE   H7S18018   0.761   4.260   9.435  0.3353 -0.8552  1.0433
  161SOPE   C2818019   0.897   4.343   9.310 -0.0048 -0.4772 -0.2800
  161SOPE   H8R18020   1.007   4.336   9.294  0.1259 -2.2511  1.0898
  161SOPE   H8S18021   0.868   4.253   9.252 -4.2552 -1.6033  3.0462
  161SOPE   C2918022   0.836   4.472   9.256 -0.4874  0.1943 -0.0017
  161SOPE   H9118023   0.749   4.509   9.311  0.8577  2.9652  0.4139
  161SOPE  C21018024   0.863   4.523   9.136  0.0821  1.1031  0.1463
  161SOPE  H10118025   0.823   4.621   9.108 -0.0852  2.0984  3.4673
  161SOPE  C21118026   0.966   4.458   9.045  0.4948  0.5865  0.2890
  161SOPE  H11R18027   1.031   4.381   9.093 -0.0015  0.5250  0.8932
  161SOPE  H11S18028   1.031   4.539   9.007 -2.2751  2.0892 -1.5931
  161SOPE  C21218029   0.912   4.397   8.916  0.4003 -0.0813 -0.1594
  161SOPE  H12R18030   0.847   4.474   8.869 -0.8272 -0.6195  0.6228
  161SOPE  H12S18031   0.857   4.302   8.933  0.3917 -0.4512 -2.0006
  161SOPE  C21318032   1.032   4.359   8.827 -0.9002  0.5578  0.4395
  161SOPE  H13R18033   1.070   4.267   8.877 -1.1659  0.8136  1.1268
  161SOPE  H13S18034   1.114   4.434   8.827 -0.7840  0.5049  2.8732
  161SOPE  C21418035   0.971   4.329   8.689  0.8537 -0.4069  0.5766
  161SOPE  H14R18036   0.929   4.417   8.636  0.7652 -1.3294 -0.9838
  161SOPE  H14S18037   0.889   4.255   8.699 -0.7377  0.9717 -1.4294
  161SOPE  C21518038   1.076   4.263   8.601 -0.0996 -0.4743  0.6353
  161SOPE  H15R18039   1.135   4.187   8.657 -1.5288  0.8320  4.2501
  161SOPE  H15S18040   1.145   4.346   8.572  1.4067 -1.9727 -0.2397
  161SOPE  C21618041   1.006   4.194   8.483 -0.0029 -0.0938  0.2602
  161SOPE  H16R18042   0.948   4.109   8.525  0.8762 -1.0420 -0.3838
  161SOPE  H16S18043   1.094   4.158   8.426 -1.2616 -3.6237  0.3090
  161SOPE  C21718044   0.916   4.282   8.390  0.3684 -0.4589  0.0445
  161SOPE  H17R18045   0.827   4.311   8.450  0.1884 -0.9271  0.0097
  161SOPE  H17S18046   0.887   4.217   8.304 -1.4454 -3.2042  2.5634
  161SOPE  C21818047   0.987   4.408   8.333 -0.3318  0.4026  0.2978
  161SOPE  H18R18048   1.090   4.385   8.299 -0.9780  0.5837 -2.0014
  161SOPE  H18S18049   0.992   4.488   8.410 -0.0535  0.4191  0.2646
  161SOPE  H18T18050   0.927   4.452   8.250 -0.2343 -0.0731 -0.0266
  161SOPE   C3318051   1.286   4.655   9.892  0.1307 -0.2973 -0.3449
  161SOPE   H3X18052   1.270   4.760   9.859  0.2935 -0.1203  0.1350
  161SOPE   H3Y18053   1.185   4.613   9.874 -0.6896  1.2281  0.4307
  161SOPE   C3418054   1.387   4.575   9.808  0.7758  0.5018  0.3051
  161SOPE   H4X18055   1.384   4.477   9.860  2.7952  0.6280  0.7108
  161SOPE   H4Y18056   1.486   4.622   9.826  1.2791  0.0439 -1.1601
  161SOPE   C3518057   1.338   4.558   9.663 -0.0785  0.2855  0.7751
  161SOPE   H5X18058   1.315   4.656   9.614 -1.7249 -0.8289 -0.8219
  161SOPE   H5Y18059   1.241   4.504   9.672 -0.4784  0.6998 -0.7306
  161SOPE   C3618060   1.418   4.470   9.567 -0.7231  0.5940 -0.2853
  161SOPE   H6X18061   1.431   4.361   9.582 -1.0603  0.0155 -3.3908
  161SOPE   H6Y18062   1.517   4.520   9.562  0.9215 -2.1221  2.2333
  161SOPE   C3718063   1.365   4.475   9.417 -0.4301  0.2177 -0.0822
  161SOPE   H7X18064   1.339   4.582   9.405  0.7329  0.4923 -0.2747
  161SOPE   H7Y18065   1.274   4.413   9.402 -0.0673 -0.0410 -1.3277
  161SOPE   C3818066   1.476   4.432   9.325 -0.4741  0.6540 -0.9374
  161SOPE   H8X18067   1.522   4.342   9.372  0.2213  1.1968 -0.5475
  161SOPE   H8Y18068   1.560   4.505   9.325 -0.4375  0.6811  1.4085
  161SOPE   C3918069   1.423   4.404   9.184  0.4431  0.0065 -0.7339
  161SOPE   H9X18070   1.391   4.492   9.123 -1.2809 -0.5030 -0.6192
  161SOPE   H9Y18071   1.326   4.352   9.198  0.1686  0.1607 -1.9748
  161SOPE  C31018072   1.510   4.316   9.101  0.1377  0.4176 -0.0159
  161SOPE  H10X18073   1.518   4.215   9.147  0.4596  0.8693  0.9519
  161SOPE  H10Y18074   1.616   4.349   9.101  0.8365 -1.5829  1.8030
  161SOPE  C31118075   1.477   4.294   8.951 -0.0672  0.3712 -0.2339
  161SOPE  H11X18076   1.518   4.385   8.903  0.4084 -0.1556 -0.8390
  161SOPE  H11Y18077   1.367   4.291   8.931 -0.5533  2.0495  1.8791
  161SOPE  C31218078   1.534   4.170   8.888 -0.3142 -0.8674  0.5122
  161SOPE  H12X18079   1.498   4.080   8.943  2.3124 -1.9814  0.5778
  161SOPE  H12Y18080   1.644   4.164   8.906 -0.0214 -2.7838 -1.5022
  161SOPE  C31318081   1.508   4.151   8.736  0.0594 -0.0022  0.0078
  161SOPE  H13X18082   1.398   4.140   8.722  0.3755 -1.0540 -1.9563
  161SOPE  H13Y18083   1.558   4.059   8.700  0.4888  0.5896 -0.9354
  161SOPE  C31418084   1.554   4.262   8.639 -0.5276 -0.8082  0.6489
  161SOPE  H14X18085   1.664   4.270   8.645 -0.3513 -1.7376 -0.8081
  161SOPE  H14Y18086   1.510   4.357   8.675 -0.6853 -0.4063 -0.5722
  161SOPE  C31518087   1.522   4.226   8.494  0.4744  0.6631 -0.8233
  161SOPE  H15X18088   1.412   4.232   8.477  0.6841 -0.2541 -2.7415
  161SOPE  H15Y18089   1.560   4.124   8.470  2.0830  0.6216  1.5580
  161SOPE  C31618090   1.591   4.322   8.393 -0.3189  0.4371  0.1643
  161SOPE  H16X18091   1.596   4.425   8.434 -0.4790 -0.4961  2.7135
  161SOPE  H16Y18092   1.533   4.318   8.299  1.1410 -0.4033 -0.7499
  161SOPE  C31718093   1.741   4.287   8.355  0.5681 -0.4819 -0.1173
  161SOPE  H17X18094   1.801   4.260   8.444  0.4321  0.7138  0.3511
  161SOPE  H17Y18095   1.786   4.382   8.319  2.9443 -1.0376  1.1680
  161SOPE  C31818096   1.753   4.185   8.242  0.3371  0.3694  0.1485
  161SOPE  H18X18097   1.852   4.140   8.216  0.3190  1.0940 -1.2500
  161SOPE  H18Y18098   1.716   4.217   8.143 -1.0667 -0.0459  0.5162
  161SOPE  H18Z18099   1.691   4.099   8.277 -2.5123  2.0907 -0.3940
  162SOPE     N18100   4.229   2.904  10.796  0.0459 -0.3436  0.6813
  162SOPE   HN118101   4.291   2.924  10.715  1.5060 -0.6042  1.7098
  162SOPE   HN218102   4.245   2.804  10.818  1.3427 -0.2223  0.3563
  162SOPE   HN318103   4.130   2.932  10.780 -0.0671 -1.2588 -0.3497
  162SOPE   C1218104   4.272   2.974  10.915  0.2030 -0.8106  0.1069
  162SOPE  H12A18105   4.346   2.917  10.974  1.1299  1.2811  1.0817
  162SOPE  H12B18106   4.184   2.979  10.983  1.7711  0.9163  2.1372
  162SOPE   C1118107   4.319   3.118  10.888 -0.3283 -0.2968 -0.1055
  162SOPE  H11A18108   4.321   3.173  10.985  5.3388  0.1929 -0.1819
  162SOPE  H11B18109   4.247   3.158  10.813  0.2456 -0.6298 -0.8439
  162SOPE     P18110   4.500   3.227  10.735 -0.4466  0.4527 -0.1122
  162SOPE   O1318111   4.482   3.358  10.807  0.3890  0.7640 -0.2804
  162SOPE   O1418112   4.437   3.216  10.608  0.3195  0.4370  0.7921
  162SOPE   O1218113   4.454   3.115  10.836 -0.0354  0.2319 -0.1544
  162SOPE   O1118114   4.657   3.194  10.719 -0.2453  0.5674 -0.3475
  162SOPE    C118115   4.727   3.077  10.771 -0.0558 -0.0572 -0.5606
  162SOPE    HA18116   4.680   3.040  10.865 -1.6044 -0.0313 -1.2952
  162SOPE    HB18117   4.830   3.112  10.795 -0.5001  1.0648 -0.2376
  162SOPE    C218118   4.728   2.960  10.668 -0.7945 -0.3294  0.0895
  162SOPE    HS18119   4.826   2.909  10.674 -0.2499  0.7332  0.4350
  162SOPE   O2118120   4.707   3.017  10.538 -0.3085  0.0854  0.0229
  162SOPE   C2118121   4.800   3.076  10.473  1.3567 -1.2926  0.1351
  162SOPE   O2218122   4.912   3.101  10.505  0.3989  0.0470  0.2095
  162SOPE   C2218123   4.731   3.114  10.337 -0.3191 -0.3917  0.2225
  162SOPE   H2R18124   4.641   3.170  10.368 -0.0107 -0.2429  0.8579
  162SOPE   H2S18125   4.714   3.024  10.274  0.2214  0.2131 -0.8295
  162SOPE    C318126   4.626   2.859  10.709  0.2261  0.5303  0.0616
  162SOPE    HX18127   4.528   2.910  10.722  1.1990  2.6864 -0.6787
  162SOPE    HY18128   4.642   2.820  10.812 -3.1652 -1.7667 -0.1083
  162SOPE   O3118129   4.611   2.757  10.610 -0.1632  0.2531 -0.0328
  162SOPE   C3118130   4.669   2.640  10.648  0.2043  0.2337 -0.0002
  162SOPE   O3218131   4.756   2.628  10.733 -0.3047  0.0848  0.0647
  162SOPE   C3218132   4.614   2.532  10.560  0.0444  0.2847  0.3183
  162SOPE   H2X18133   4.656   2.544  10.458 -0.6015  2.1315  0.2454
  162SOPE   H2Y18134   4.504   2.546  10.558 -0.1990 -1.3434  0.7542
  162SOPE   C2318135   4.819   3.210  10.257 -0.2645  0.0229  0.0303
  162SOPE   H3R18136   4.915   3.159  10.235  0.4273  0.8710  1.0140
  162SOPE   H3S18137   4.829   3.298  10.324  2.0859 -2.1287  2.7514
  162SOPE   C2418138   4.769   3.235  10.111 -0.5343 -0.2838 -0.4448
  162SOPE   H4R18139   4.658   3.250  10.111 -0.6732 -1.0558  1.2605
  162SOPE   H4S18140   4.802   3.336  10.078  1.7842 -0.8555 -0.0182
  162SOPE   C2518141   4.798   3.126  10.007  0.4148 -0.2033 -0.3700
  162SOPE   H5R18142   4.902   3.095  10.028  0.8213  2.5355  2.3637
  162SOPE   H5S18143   4.725   3.042   9.999 -0.3129  0.3913 -0.1404
  162SOPE   C2618144   4.800   3.200   9.870  0.2577  0.2209 -0.4724
  162SOPE   H6R18145   4.701   3.247   9.854 -0.8583 -1.8331 -0.0511
  162SOPE   H6S18146   4.886   3.269   9.875  1.1918 -0.9028 -0.4980
  162SOPE   C2718147   4.828   3.108   9.753 -0.3473  0.1622  0.9087
  162SOPE   H7R18148   4.929   3.062   9.759 -1.4850 -2.5925  0.6158
  162SOPE   H7S18149   4.757   3.023   9.763  0.4584 -0.6219  0.1093
  162SOPE   C2818150   4.819   3.172   9.603  0.4602 -0.3391  0.0255
  162SOPE   H8R18151   4.800   3.084   9.538 -3.0612 -0.5414  1.0859
  162SOPE   H8S18152   4.725   3.229   9.587  0.7940 -0.0073 -0.7808
  162SOPE   C2918153   4.939   3.256   9.565  0.7984 -0.4386  0.0829
  162SOPE   H9118154   4.955   3.339   9.635  1.3682 -0.3369 -0.1682
  162SOPE  C21018155   5.014   3.246   9.451  0.3318 -0.8980 -0.6507
  162SOPE  H10118156   5.102   3.312   9.439  0.0639 -0.1028  1.3909
  162SOPE  C21118157   4.983   3.154   9.334 -0.2016  0.1534 -0.2363
  162SOPE  H11R18158   4.929   3.064   9.372  1.6904 -2.2732 -2.9070
  162SOPE  H11S18159   5.081   3.119   9.294 -0.1003  0.1078  0.0472
  162SOPE  C21218160   4.911   3.224   9.221  0.2046 -0.1110  0.1284
  162SOPE  H12R18161   4.968   3.299   9.163  1.2901 -0.7101  0.3893
  162SOPE  H12S18162   4.820   3.277   9.255  0.8172  1.4845 -0.6181
  162SOPE  C21318163   4.871   3.121   9.111  0.1795  0.7291  0.1439
  162SOPE  H13R18164   4.788   3.063   9.156  2.1719 -1.5481  1.1302
  162SOPE  H13S18165   4.950   3.044   9.096  0.7162  0.9693  1.6140
  162SOPE  C21418166   4.826   3.178   8.983  0.1125 -0.9302  0.0410
  162SOPE  H14R18167   4.913   3.237   8.947 -1.4926  1.5887  0.0585
  162SOPE  H14S18168   4.746   3.255   8.984  0.6618 -0.3132 -1.1237
  162SOPE  C21518169   4.788   3.064   8.888 -0.6792 -0.4639  0.2680
  162SOPE  H15R18170   4.697   3.013   8.927 -0.4790 -1.2400 -0.2548
  162SOPE  H15S18171   4.875   2.996   8.880  0.6109  1.2432 -0.8287
  162SOPE  C21618172   4.754   3.127   8.750 -0.3671 -0.4859 -0.3183
  162SOPE  H16R18173   4.832   3.201   8.723  0.2429 -0.7442  0.6938
  162SOPE  H16S18174   4.656   3.179   8.750  0.2201  0.6487  0.2506
  162SOPE  C21718175   4.752   3.025   8.628  0.6219  0.2931  0.0059
  162SOPE  H17R18176   4.677   2.948   8.659  0.5197  1.1251  2.0152
  162SOPE  H17S18177   4.853   2.982   8.620  0.1017 -0.6819 -1.8511
  162SOPE  C21818178   4.703   3.100   8.500  0.1848  1.0765  0.1721
  162SOPE  H18R18179   4.600   3.136   8.521 -0.0770  0.6822 -0.4141
  162SOPE  H18S18180   4.703   3.036   8.410 -3.2823  0.1860  0.6685
  162SOPE  H18T18181   4.760   3.194   8.482  0.5670  0.5312 -1.6296
  162SOPE   C3318182   4.645   2.388  10.604  0.0802  0.2765 -0.3713
  162SOPE   H3X18183   4.615   2.372  10.710  2.7356  1.2395  0.6131
  162SOPE   H3Y18184   4.753   2.370  10.624 -0.4366 -0.6441  1.9330
  162SOPE   C3418185   4.596   2.278  10.506 -0.0082  0.0442  0.0017
  162SOPE   H4X18186   4.544   2.332  10.424  0.0195 -1.0705 -0.7714
  162SOPE   H4Y18187   4.528   2.210  10.562  0.4105  1.5355  2.4573
  162SOPE   C3518188   4.708   2.203  10.438 -0.3577 -0.1056  0.1403
  162SOPE   H5X18189   4.667   2.139  10.356 -0.0307  0.3623 -0.3974
  162SOPE   H5Y18190   4.750   2.133  10.512 -2.0252  0.0061  1.2573
  162SOPE   C3618191   4.814   2.292  10.376 -0.1224 -0.2370  0.2145
  162SOPE   H6X18192   4.870   2.366  10.438  0.9336 -0.4496 -0.4459
  162SOPE   H6Y18193   4.772   2.361  10.300 -0.9889  1.0637  1.8208
  162SOPE   C3718194   4.922   2.197  10.320  0.4631 -0.6630 -0.8888
  162SOPE   H7X18195   4.941   2.116  10.393  0.8158  0.7141  0.6174
  162SOPE   H7Y18196   5.020   2.250  10.319 -0.5551  1.3167 -1.7852
  162SOPE   C3818197   4.891   2.143  10.187  0.0727  0.2154 -0.2126
  162SOPE   H8X18198   4.882   2.226  10.114  2.1983  1.0923  0.4477
  162SOPE   H8Y18199   4.800   2.079  10.194  0.7814 -0.7790  0.0696
  162SOPE   C3918200   5.000   2.046  10.138 -0.3799 -0.0661  0.2498
  162SOPE   H9X18201   4.970   1.939  10.148 -1.4984  0.3069  1.0982
  162SOPE   H9Y18202   5.089   2.061  10.203 -1.8873  2.0515  1.9688
  162SOPE  C31018203   5.035   2.071   9.992  0.2803  0.3611  0.4438
  162SOPE  H10X18204   5.083   2.170   9.978 -0.1783  0.4504 -0.5921
  162SOPE  H10Y18205   4.938   2.077   9.939  1.9050  2.3322 -2.6617
  162SOPE  C31118206   5.136   1.969   9.935 -0.3209  0.5873  0.3740
  162SOPE  H11X18207   5.107   1.868   9.972  1.3666 -0.0316  0.0724
  162SOPE  H11Y18208   5.238   1.983   9.978  0.1307 -1.4082  0.0318
  162SOPE  C31218209   5.133   1.969   9.785  0.3754 -0.3224 -0.5342
  162SOPE  H12X18210   5.153   2.073   9.750 -2.6355  0.3811 -0.4625
  162SOPE  H12Y18211   5.034   1.936   9.746 -1.1797  0.1631  2.6671
  162SOPE  C31318212   5.230   1.877   9.729  0.2909  0.4367  0.0958
  162SOPE  H13X18213   5.226   1.774   9.771  0.0113 -0.0638 -1.1212
  162SOPE  H13Y18214   5.335   1.913   9.734  0.7378 -0.8717  0.7149
  162SOPE  C31418215   5.226   1.847   9.583  0.2795  0.1605  0.4029
  162SOPE  H14X18216   5.257   1.940   9.531 -1.0709  0.2308 -0.3361
  162SOPE  H14Y18217   5.120   1.831   9.555  0.1931 -1.1406  1.3806
  162SOPE  C31518218   5.333   1.748   9.535  0.2505 -0.1050  0.1531
  162SOPE  H15X18219   5.348   1.730   9.426 -1.0111 -0.3155 -0.0006
  162SOPE  H15Y18220   5.301   1.652   9.582  1.9763 -0.9135 -0.2346
  162SOPE  C31618221   5.477   1.760   9.589 -0.3804 -0.2508 -0.1933
  162SOPE  H16X18222   5.477   1.766   9.700  2.7257 -2.4778  0.0651
  162SOPE  H16Y18223   5.528   1.851   9.551  0.0446  0.0327  1.0050
  162SOPE  C31718224   5.566   1.639   9.554 -0.3735 -0.3497 -0.3816
  162SOPE  H17X18225   5.670   1.662   9.587 -0.4737  1.0971 -1.0334
  162SOPE  H17Y18226   5.578   1.633   9.444  1.2281  0.5687 -0.2856
  162SOPE  C31818227   5.517   1.501   9.606  0.1365  0.1163 -0.0874
  162SOPE  H18X18228   5.588   1.415   9.608  0.8013  0.6593  2.6078
  162SOPE  H18Y18229   5.433   1.470   9.540  0.7256 -0.8263 -0.4207
  162SOPE  H18Z18230   5.477   1.491   9.709  2.2243  0.2779  0.7972
  163SOPE     N18231   5.643   1.977  11.068  0.6094 -0.1344  0.1804
  163SOPE   HN118232   5.741   1.957  11.040  0.1443 -2.1177 -0.1722
  163SOPE   HN218233   5.628   2.071  11.026  0.8706  0.6065  1.6755
  163SOPE   HN318234   5.628   1.988  11.170  0.4812 -0.2734  0.1780
  163SOPE   C1218235   5.539   1.887  11.025  0.2840  0.2063 -0.0103
  163SOPE  H12A18236   5.521   1.899  10.916 -0.6721  0.2836  0.1457
  163SOPE  H12B18237   5.447   1.919  11.079  1.1992  0.7553  1.2668
  163SOPE   C1118238   5.587   1.740  11.046 -0.0711 -0.0926 -0.4759
  163SOPE  H11A18239   5.507   1.676  11.004 -0.2005  0.8719 -1.7622
  163SOPE  H11B18240   5.582   1.714  11.154  0.5745 -1.0799 -0.6768
  163SOPE     P18241   5.757   1.586  10.914  0.1677 -0.0675 -0.7396
  163SOPE   O1318242   5.725   1.472  11.000  0.2554 -0.1557  0.1464
  163SOPE   O1418243   5.896   1.603  10.866 -0.2122 -0.2033  0.1164
  163SOPE   O1218244   5.718   1.713  11.003 -0.5989 -0.4959  0.0685
  163SOPE   O1118245   5.656   1.586  10.790 -0.4625 -0.1504 -0.1424
  163SOPE    C118246   5.619   1.708  10.726 -0.0275  1.1261 -0.7649
  163SOPE    HA18247   5.660   1.799  10.774 -2.6311  1.2087  1.5396
  163SOPE    HB18248   5.509   1.723  10.726 -0.1743  0.1123 -1.5986
  163SOPE    C218249   5.672   1.709  10.580 -0.1055  0.1667  0.1753
  163SOPE    HS18250   5.658   1.815  10.548  0.4146 -0.0827 -0.9046
  163SOPE   O2118251   5.593   1.615  10.507  0.3139  0.4763  0.0051
  163SOPE   C2118252   5.482   1.658  10.445 -0.3095 -0.3508  0.6986
  163SOPE   O2218253   5.447   1.774  10.437 -0.3741 -0.4476  0.1786
  163SOPE   C2218254   5.401   1.538  10.381 -0.4183  0.3622 -0.6015
  163SOPE   H2R18255   5.344   1.490  10.464  0.0697 -2.2287 -1.6505
  163SOPE   H2S18256   5.479   1.467  10.345 -0.5371  0.4529 -1.0397
  163SOPE    C318257   5.823   1.673  10.558 -0.4582 -0.0740  0.4370
  163SOPE    HX18258   5.829   1.562  10.564  0.1470 -0.0817 -0.2208
  163SOPE    HY18259   5.887   1.711  10.640 -0.5084  0.5928  0.1743
  163SOPE   O3118260   5.867   1.716  10.425 -0.2737 -0.1886 -0.1282
  163SOPE   C3118261   5.914   1.839  10.418 -0.5637  0.0357  0.0894
  163SOPE   O3218262   5.892   1.933  10.485  0.3643 -0.2610 -0.2668
  163SOPE   C3218263   6.003   1.846  10.294  0.9795  0.5002 -0.2257
  163SOPE   H2X18264   5.989   1.760  10.226 -0.4235  0.8596 -0.4199
  163SOPE   H2Y18265   6.109   1.829  10.324  0.7710 -0.5108 -0.0498
  163SOPE   C2318266   5.306   1.584  10.270  0.6846 -0.2643  0.1798
  163SOPE   H3R18267   5.292   1.498  10.200  0.1289 -0.4057  0.4611
  163SOPE   H3S18268   5.346   1.666  10.207 -0.1677 -0.0286 -0.0652
  163SOPE   C2418269   5.158   1.612  10.312 -0.0977 -0.1415 -0.0968
  163SOPE   H4R18270   5.115   1.534  10.379 -0.0725 -0.7277 -0.7572
  163SOPE   H4S18271   5.151   1.712  10.359  1.5436  0.8173 -1.7735
  163SOPE   C2518272   5.061   1.603  10.201  0.6525 -0.2346  0.2061
  163SOPE   H5R18273   4.961   1.594  10.248  0.8133 -1.0303  0.4028
  163SOPE   H5S18274   5.056   1.702  10.150 -0.6826 -0.6378 -0.4680
  163SOPE   C2618275   5.086   1.487  10.096  0.6579  0.0444 -0.1839
  163SOPE   H6R18276   5.173   1.507  10.031  0.8580 -1.5159 -0.4411
  163SOPE   H6S18277   5.090   1.385  10.141  2.6111 -1.3881 -3.2702
  163SOPE   C2718278   4.966   1.475   9.998 -0.3944  0.0292 -0.3299
  163SOPE   H7R18279   4.973   1.379   9.942 -0.4984  0.2893 -0.7977
  163SOPE   H7S18280   4.868   1.478  10.051 -1.1093 -1.2065 -1.5209
  163SOPE   C2818281   4.967   1.578   9.881  0.0505 -0.6292  0.1532
  163SOPE   H8R18282   5.008   1.668   9.931 -0.1860 -0.5507  0.2083
  163SOPE   H8S18283   5.033   1.536   9.803 -1.5362  2.3721 -3.1128
  163SOPE   C2918284   4.845   1.628   9.816  0.3382  0.0055  0.0351
  163SOPE   H9118285   4.776   1.678   9.885 -0.1776  0.4620 -0.7877
  163SOPE  C21018286   4.804   1.616   9.690 -0.8935  0.2345  0.0041
  163SOPE  H10118287   4.709   1.659   9.657 -0.2064  1.5205 -0.3663
  163SOPE  C21118288   4.879   1.546   9.574 -0.3936  0.3635 -0.3162
  163SOPE  H11R18289   4.836   1.453   9.531 -2.8062  0.8510  0.8984
  163SOPE  H11S18290   4.977   1.510   9.614 -1.0229 -1.7483 -0.5313
  163SOPE  C21218291   4.911   1.640   9.456  0.4441 -0.2498  0.3655
  163SOPE  H12R18292   4.991   1.608   9.385  0.0346  0.4769 -0.4458
  163SOPE  H12S18293   4.942   1.743   9.482 -0.7383  1.0553 -2.8279
  163SOPE  C21318294   4.788   1.666   9.370 -0.2494  0.1638 -0.5176
  163SOPE  H13R18295   4.703   1.707   9.429  1.4543  0.7513  1.6825
  163SOPE  H13S18296   4.767   1.564   9.331  0.5705 -0.0237 -0.4733
  163SOPE  C21418297   4.804   1.762   9.259 -0.1843  0.0353  0.3917
  163SOPE  H14R18298   4.886   1.716   9.200 -0.4354 -0.0132  0.0771
  163SOPE  H14S18299   4.830   1.866   9.289 -2.2527  0.6492  0.2509
  163SOPE  C21518300   4.692   1.777   9.161  0.4962 -1.0447  0.5605
  163SOPE  H15R18301   4.606   1.812   9.223  2.8216  0.3542  3.2356
  163SOPE  H15S18302   4.669   1.678   9.115  2.0641 -0.6562 -1.1602
  163SOPE  C21618303   4.712   1.878   9.048  0.5193 -0.5062  0.0291
  163SOPE  H16R18304   4.780   1.833   8.973 -0.0638  1.9219 -2.1074
  163SOPE  H16S18305   4.768   1.965   9.090 -1.8712  1.4177 -0.5455
  163SOPE  C21718306   4.585   1.918   8.973  1.0494 -0.0679 -0.4988
  163SOPE  H17R18307   4.603   2.013   8.918 -0.7678 -0.9490 -2.7453
  163SOPE  H17S18308   4.509   1.953   9.047  0.6014  0.1350 -1.0525
  163SOPE  C21818309   4.517   1.809   8.882  0.1488 -0.1690  0.9867
  163SOPE  H18R18310   4.408   1.809   8.904 -0.5263  0.3725 -1.9882
  163SOPE  H18S18311   4.548   1.706   8.911  0.4661 -0.5005 -0.4498
  163SOPE  H18T18312   4.557   1.831   8.781  0.7253  3.7087  1.8771
  163SOPE   C3318313   5.975   1.962  10.200  0.9433  0.1494 -0.2344
  163SOPE   H3X18314   5.994   2.067  10.231 -1.1158  1.3843 -2.7981
  163SOPE   H3Y18315   5.868   1.960  10.170  0.6553 -2.2083  0.6873
  163SOPE   C3418316   6.071   1.948  10.080 -0.6686 -0.2191 -0.2414
  163SOPE   H4X18317   6.046   1.858  10.021 -2.5342  0.5050 -0.6203
  163SOPE   H4Y18318   6.171   1.931  10.124 -0.4117  0.3020 -0.6138
  163SOPE   C3518319   6.074   2.068   9.984 -0.4701 -0.3603  0.0496
  163SOPE   H5X18320   6.097   2.160  10.041  0.2197  0.1371 -0.9943
  163SOPE   H5Y18321   5.972   2.075   9.941 -0.5220  2.6174  0.4309
  163SOPE   C3618322   6.174   2.071   9.866 -0.5645  0.5847 -0.8246
  163SOPE   H6X18323   6.183   1.970   9.819 -0.3391  0.2729 -0.1183
  163SOPE   H6Y18324   6.279   2.089   9.898 -0.1649 -1.1504 -1.0038
  163SOPE   C3718325   6.130   2.180   9.771  0.3790  0.8501 -0.4111
  163SOPE   H7X18326   6.152   2.284   9.802 -1.7291  0.8639  1.2807
  163SOPE   H7Y18327   6.020   2.178   9.751  0.5908 -2.9267 -2.0747
  163SOPE   C3818328   6.187   2.161   9.635 -0.1746 -0.1902  0.5087
  163SOPE   H8X18329   6.184   2.058   9.593  3.2050  0.0796 -0.6991
  163SOPE   H8Y18330   6.294   2.185   9.651 -0.1297 -0.5553  0.7706
  163SOPE   C3918331   6.131   2.258   9.533 -0.0393 -0.1160 -0.3444
  163SOPE   H9X18332   6.157   2.363   9.561  3.0766 -1.2236  1.4906
  163SOPE   H9Y18333   6.020   2.256   9.533 -0.0446 -1.0878  0.7405
  163SOPE  C31018334   6.179   2.233   9.389 -0.3652  0.3096 -0.4524
  163SOPE  H10X18335   6.168   2.125   9.365 -2.4835  0.2265  0.6909
  163SOPE  H10Y18336   6.288   2.256   9.383 -0.5247  1.7209  1.3573
  163SOPE  C31118337   6.105   2.305   9.278  0.7062  0.1703  0.2249
  163SOPE  H11X18338   6.107   2.414   9.298 -0.0863  0.3862 -0.8403
  163SOPE  H11Y18339   6.002   2.269   9.297  0.1018  1.5980 -0.2958
  163SOPE  C31218340   6.164   2.271   9.139  0.1488  0.2120 -0.3017
  163SOPE  H12X18341   6.185   2.164   9.117  1.7091 -0.1877  2.6261
  163SOPE  H12Y18342   6.269   2.305   9.148 -0.3839  1.8480  0.1464
  163SOPE  C31318343   6.076   2.330   9.027  0.1112 -0.3757  0.0415
  163SOPE  H13X18344   6.145   2.364   8.947 -0.1920  0.2842  0.0517
  163SOPE  H13Y18345   6.038   2.430   9.057 -0.1116 -0.4442 -0.0134
  163SOPE  C31418346   5.959   2.248   8.988  0.7129 -0.6834 -0.4468
  163SOPE  H14X18347   5.922   2.301   8.898  1.6976  3.5697  1.3728
  163SOPE  H14Y18348   5.877   2.247   9.063 -0.7847 -0.2052 -2.0162
  163SOPE  C31518349   5.991   2.103   8.949 -0.2703 -0.1993 -0.2382
  163SOPE  H15X18350   5.898   2.056   8.912  0.9620 -1.3531 -2.0154
  163SOPE  H15Y18351   6.033   2.042   9.032  0.4726 -1.9427 -1.8322
  163SOPE  C31618352   6.088   2.097   8.832 -0.0526  0.8266  0.1433
  163SOPE  H16X18353   6.180   2.157   8.847  0.4635 -0.4106  2.2702
  163SOPE  H16Y18354   6.045   2.149   8.743  1.0542  0.1948 -0.7945
  163SOPE  C31718355   6.130   1.946   8.792 -0.4689 -0.9634  1.0057
  163SOPE  H17X18356   6.170   1.900   8.885 -0.0071 -1.2714  0.6609
  163SOPE  H17Y18357   6.210   1.944   8.715 -1.7903 -0.0439 -0.4531
  163SOPE  C31818358   6.016   1.854   8.742  0.1979  0.0762 -0.6966
  163SOPE  H18X18359   5.933   1.865   8.815  1.4096  2.6989  0.3872
  163SOPE  H18Y18360   6.050   1.748   8.748 -0.5045 -0.0612  1.5983
  163SOPE  H18Z18361   5.981   1.879   8.639 -1.8448 -2.7205 -0.8046
  164SOPE     N18362   4.176   5.318  10.499 -0.7866  0.3750 -0.0027
  164SOPE   HN118363   4.215   5.406  10.460  0.2051  0.3780  0.9522
  164SOPE   HN218364   4.228   5.294  10.586 -1.9911  2.7062  1.4505
  164SOPE   HN318365   4.203   5.245  10.430  0.1394 -0.4972  1.2201
  164SOPE   C1218366   4.025   5.329  10.512  0.5767  0.0131 -0.3461
  164SOPE  H12A18367   3.977   5.229  10.512 -3.3480  1.6662 -2.1193
  164SOPE  H12B18368   3.988   5.377  10.419  2.2641 -2.8621 -2.6761
  164SOPE   C1118369   3.990   5.400  10.643  0.6950 -0.5143 -0.8661
  164SOPE  H11A18370   3.993   5.326  10.725  1.6752  0.1385 -0.2993
  164SOPE  H11B18371   3.880   5.416  10.651  0.6414 -1.2093 -0.1247
  164SOPE     P18372   4.040   5.656  10.620  0.1168  0.1716 -0.0763
  164SOPE   O1318373   4.159   5.711  10.566 -0.5295  0.0526 -0.4041
  164SOPE   O1418374   3.995   5.729  10.740  0.0338  0.0600  0.2056
  164SOPE   O1218375   4.072   5.507  10.678  0.1424  0.0719 -0.4436
  164SOPE   O1118376   3.928   5.640  10.509 -0.3149 -0.1414  0.3384
  164SOPE    C118377   3.804   5.691  10.550  0.0697 -0.3941  0.7962
  164SOPE    HA18378   3.797   5.798  10.579 -0.2500  0.0274 -0.7518
  164SOPE    HB18379   3.752   5.622  10.620 -2.1423 -1.3061 -1.5740
  164SOPE    C218380   3.702   5.679  10.433  0.0363  0.7957 -0.3806
  164SOPE    HS18381   3.673   5.572  10.430 -0.2221  0.6591  2.7998
  164SOPE   O2118382   3.769   5.723  10.315  0.0242 -0.0349  0.1079
  164SOPE   C2118383   3.762   5.640  10.214 -0.0880  0.0249  0.0551
  164SOPE   O2218384   3.685   5.547  10.200 -1.1655 -0.1560 -0.0166
  164SOPE   C2218385   3.861   5.679  10.097  0.2906 -0.1449  0.2086
  164SOPE   H2R18386   3.933   5.594  10.095  0.8297  0.3207 -1.0172
  164SOPE   H2S18387   3.916   5.774  10.115 -0.6296  1.4993 -4.3041
  164SOPE    C318388   3.571   5.766  10.451  0.0400 -0.4117  0.2130
  164SOPE    HX18389   3.599   5.874  10.452  0.5914 -0.4985 -1.6302
  164SOPE    HY18390   3.530   5.742  10.551  0.4976  3.0571  1.3747
  164SOPE   O3118391   3.487   5.733  10.329 -0.0964 -0.3478  0.1823
  164SOPE   C3118392   3.425   5.618  10.341 -0.2084  0.2112  0.1683
  164SOPE   O3218393   3.422   5.549  10.436  0.4316  0.4084 -0.3872
  164SOPE   C3218394   3.345   5.580  10.209 -0.1926 -0.4772 -0.2661
  164SOPE   H2X18395   3.237   5.572  10.233  0.1031 -1.7370  0.7644
  164SOPE   H2Y18396   3.381   5.478  10.185  1.7501  0.0168  0.4005
  164SOPE   C2318397   3.792   5.705   9.961 -0.3841 -0.1022  0.7583
  164SOPE   H3R18398   3.723   5.790   9.974 -1.5273 -0.7108 -1.0236
  164SOPE   H3S18399   3.743   5.609   9.935  0.2073  0.0465 -1.0431
  164SOPE   C2418400   3.884   5.741   9.845 -0.7238  0.0609  0.5308
  164SOPE   H4R18401   3.916   5.646   9.796  1.6871  1.6224 -1.1527
  164SOPE   H4S18402   3.827   5.794   9.767 -0.8018  2.1815  1.9431
  164SOPE   C2518403   4.016   5.827   9.873 -0.3993 -0.3571  0.6117
  164SOPE   H5R18404   3.992   5.926   9.917  1.9121  0.0193  1.1296
  164SOPE   H5S18405   4.073   5.788   9.960 -0.2136 -0.2688  0.5290
  164SOPE   C2618406   4.113   5.827   9.749  0.5795  0.4550 -0.1394
  164SOPE   H6R18407   4.160   5.727   9.737  3.4948  1.8236 -1.2134
  164SOPE   H6S18408   4.058   5.850   9.656 -1.9571  1.8901  1.6119
  164SOPE   C2718409   4.225   5.924   9.770 -1.1823 -1.2782  0.2497
  164SOPE   H7R18410   4.175   6.023   9.783  0.3022 -0.3452 -0.8966
  164SOPE   H7S18411   4.284   5.895   9.859  0.4186  1.0946  0.0754
  164SOPE   C2818412   4.333   5.943   9.656  1.0285 -0.6170 -0.3334
  164SOPE   H8R18413   4.396   6.024   9.698 -0.9303  1.0239 -0.4584
  164SOPE   H8S18414   4.386   5.848   9.635  1.4971 -0.7110  1.1512
  164SOPE   C2918415   4.267   5.997   9.527  0.4952  0.4233 -0.0158
  164SOPE   H9118416   4.157   5.999   9.515  0.6597 -1.1312 -2.3853
  164SOPE  C21018417   4.323   6.034   9.414  0.2408 -0.0479  0.1327
  164SOPE  H10118418   4.260   6.077   9.334 -0.0703  0.5925  0.7152
  164SOPE  C21118419   4.472   6.030   9.382  0.4665  0.8753  0.2523
  164SOPE  H11R18420   4.525   5.979   9.465  0.3681  1.2348  0.5363
  164SOPE  H11S18421   4.522   6.128   9.371  1.9095  0.0176 -1.3683
  164SOPE  C21218422   4.503   5.935   9.260  0.0660  0.8082  0.3138
  164SOPE  H12R18423   4.448   5.842   9.285 -0.8534  1.3220  0.2537
  164SOPE  H12S18424   4.613   5.922   9.257  0.1189  0.8455  1.4116
  164SOPE  C21318425   4.450   6.006   9.136  0.6767 -0.0157  0.3054
  164SOPE  H13R18426   4.457   6.116   9.155 -2.7251  0.1886  1.0366
  164SOPE  H13S18427   4.339   6.001   9.140  0.6348  1.1812  1.4601
  164SOPE  C21418428   4.515   5.958   9.004 -0.2790 -0.3692  0.1033
  164SOPE  H14R18429   4.506   5.849   8.989  0.1865 -0.3343 -0.4727
  164SOPE  H14S18430   4.623   5.984   9.010 -0.1961 -0.9808  2.0100
  164SOPE  C21518431   4.469   6.038   8.877  0.4482 -0.2909 -0.1202
  164SOPE  H15R18432   4.474   6.145   8.906  2.8126 -0.9715  2.4526
  164SOPE  H15S18433   4.368   5.999   8.853  0.7042 -2.0879  1.5005
  164SOPE  C21618434   4.568   6.018   8.762 -1.0781 -0.4930  0.0402
  164SOPE  H16R18435   4.668   6.056   8.793 -1.0653 -0.3395 -0.1873
  164SOPE  H16S18436   4.533   6.074   8.673 -2.7665 -1.6549 -0.0738
  164SOPE  C21718437   4.592   5.871   8.732 -0.1247  0.8299 -0.0652
  164SOPE  H17R18438   4.494   5.822   8.712  0.1945 -0.7696  1.9549
  164SOPE  H17S18439   4.634   5.814   8.818 -0.0192  1.7229  0.4917
  164SOPE  C21818440   4.689   5.843   8.614  0.0585  0.1305  0.4432
  164SOPE  H18R18441   4.797   5.854   8.636  0.1980  2.1691 -0.9377
  164SOPE  H18S18442   4.675   5.914   8.530 -0.2973 -1.4598 -0.8781
  164SOPE  H18T18443   4.662   5.743   8.576 -3.6450  0.4195  1.8987
  164SOPE   C3318444   3.364   5.680  10.094 -0.1549  0.1385  0.2785
  164SOPE   H3X18445   3.473   5.690  10.075 -0.1897  1.0240  0.5344
  164SOPE   H3Y18446   3.320   5.780  10.113 -0.9129 -0.2764  0.7316
  164SOPE   C3418447   3.313   5.643   9.951 -0.1800  0.8240  0.2366
  164SOPE   H4X18448   3.203   5.645   9.936  0.0682 -2.1972 -3.2953
  164SOPE   H4Y18449   3.336   5.536   9.938 -2.2741  0.5202 -1.6258
  164SOPE   C3518450   3.393   5.711   9.835 -0.9767  0.3710 -0.3895
  164SOPE   H5X18451   3.497   5.674   9.848 -0.8509  0.6329 -0.6327
  164SOPE   H5Y18452   3.393   5.819   9.862  1.5484  0.1962  0.6195
  164SOPE   C3618453   3.336   5.676   9.699 -0.0713  0.2930  0.5918
  164SOPE   H6X18454   3.302   5.570   9.698  1.0160 -0.0675 -0.9623
  164SOPE   H6Y18455   3.411   5.687   9.618 -0.4388 -0.5458  0.1304
  164SOPE   C3718456   3.218   5.767   9.666 -0.2001 -0.9487 -0.1472
  164SOPE   H7X18457   3.253   5.872   9.657  0.6080 -0.9483  2.3009
  164SOPE   H7Y18458   3.155   5.768   9.757 -0.8943 -2.5212 -0.5657
  164SOPE   C3818459   3.126   5.736   9.548  0.4488 -0.0832 -0.1698
  164SOPE   H8X18460   3.052   5.817   9.530  0.7615  0.0014 -1.1803
  164SOPE   H8Y18461   3.072   5.642   9.570 -1.9094  1.0171 -0.9172
  164SOPE   C3918462   3.204   5.720   9.409 -0.3362  0.1744 -0.3670
  164SOPE   H9X18463   3.128   5.683   9.337  0.5599  1.5999 -2.1123
  164SOPE   H9Y18464   3.286   5.649   9.435 -0.4653  0.4071  0.7294
  164SOPE  C31018465   3.244   5.855   9.356  0.2814 -0.0155 -0.5787
  164SOPE  H10X18466   3.303   5.913   9.430 -0.5069 -0.6298  0.5615
  164SOPE  H10Y18467   3.142   5.898   9.347 -0.0601 -0.2786  1.4982
  164SOPE  C31118468   3.306   5.852   9.219 -0.1294 -0.0563  0.3372
  164SOPE  H11X18469   3.235   5.812   9.144  1.0899 -1.1190 -0.2909
  164SOPE  H11Y18470   3.392   5.781   9.217 -0.0170  0.0962 -0.3086
  164SOPE  C31218471   3.361   5.990   9.179  0.3176 -0.5584 -0.9941
  164SOPE  H12X18472   3.432   6.011   9.262 -1.5432 -1.7583  0.9807
  164SOPE  H12Y18473   3.268   6.051   9.176 -0.3827 -1.4897  0.5576
  164SOPE  C31318474   3.438   6.001   9.050 -1.1579 -0.3350  0.7499
  164SOPE  H13X18475   3.379   5.965   8.963 -2.4135  0.2338  1.3466
  164SOPE  H13Y18476   3.520   5.926   9.051 -1.2887 -0.4972  0.0928
  164SOPE  C31418477   3.496   6.144   9.017  0.5107 -0.1620 -0.1656
  164SOPE  H14X18478   3.571   6.176   9.093  0.5211 -1.2312  0.2877
  164SOPE  H14Y18479   3.409   6.212   9.016 -0.4666 -1.3433  0.8561
  164SOPE  C31518480   3.582   6.148   8.893  0.3818 -0.0956 -0.2374
  164SOPE  H15X18481   3.671   6.083   8.907  0.0699 -0.0726  2.4590
  164SOPE  H15Y18482   3.622   6.251   8.885  0.8740 -0.0842  1.7139
  164SOPE  C31618483   3.522   6.139   8.752  0.2455  0.1268  0.1325
  164SOPE  H16X18484   3.498   6.240   8.713  2.5051  0.4204 -0.6733
  164SOPE  H16Y18485   3.428   6.081   8.752  0.3011  0.0368 -0.6851
  164SOPE  C31718486   3.615   6.087   8.645 -0.0509 -0.0618 -0.3083
  164SOPE  H17X18487   3.720   6.122   8.657 -0.2452  0.1915  0.8150
  164SOPE  H17Y18488   3.575   6.118   8.546 -0.1328  0.4511 -0.1184
  164SOPE  C31818489   3.622   5.935   8.659 -0.0134  0.6638 -0.4881
  164SOPE  H18X18490   3.713   5.892   8.611  0.0954 -1.5874  1.5151
  164SOPE  H18Y18491   3.535   5.882   8.616  2.4077 -1.8993 -2.6516
  164SOPE  H18Z18492   3.656   5.908   8.762  1.1223  0.5876 -0.8620
  165SOPE     N18493   1.371   1.604  10.601  0.3045 -0.0048  0.5278
  165SOPE   HN118494   1.271   1.607  10.631  0.5844  1.2734  1.4147
  165SOPE   HN218495   1.420   1.602  10.692  1.9179 -0.0594 -0.3209
  165SOPE   HN318496   1.385   1.701  10.566  0.4669  0.2846  1.3717
  165SOPE   C1218497   1.397   1.484  10.513  0.1960  0.0843 -0.3802
  165SOPE  H12A18498   1.317   1.486  10.436  0.2184 -0.0829 -0.4100
  165SOPE  H12B18499   1.391   1.392  10.575 -2.4692  0.3720 -0.0813
  165SOPE   C1118500   1.541   1.482  10.463  0.0632  0.7012  0.4840
  165SOPE  H11A18501   1.569   1.564  10.392  1.9592 -1.1730 -1.0558
  165SOPE  H11B18502   1.546   1.391  10.400 -1.0367  0.4306  0.7858
  165SOPE     P18503   1.760   1.370  10.576 -0.3171 -0.5046  0.4355
  165SOPE   O1318504   1.707   1.249  10.639 -0.0491 -0.4127  0.2860
  165SOPE   O1418505   1.863   1.442  10.649  0.1457 -0.1452 -0.0034
  165SOPE   O1218506   1.645   1.479  10.565  0.7221  0.1035 -0.1968
  165SOPE   O1118507   1.802   1.344  10.426  0.1898 -0.5076 -0.3666
  165SOPE    C118508   1.788   1.219  10.363 -0.0567 -0.0618  0.1622
  165SOPE    HA18509   1.680   1.193  10.355 -0.5604  2.2738 -2.4350
  165SOPE    HB18510   1.842   1.153  10.434 -1.4307 -1.0798  0.3109
  165SOPE    C218511   1.853   1.219  10.220 -0.2774 -0.0408  0.0424
  165SOPE    HS18512   1.843   1.111  10.200 -0.4014 -0.2840  1.3863
  165SOPE   O2118513   1.990   1.269  10.230 -0.4403  0.8051 -0.0502
  165SOPE   C2118514   2.076   1.187  10.280 -0.1336  0.2222 -0.3485
  165SOPE   O2218515   2.052   1.070  10.320  0.3774 -0.9908 -0.0175
  165SOPE   C2218516   2.216   1.257  10.285 -0.1095 -0.3414 -0.0005
  165SOPE   H2R18517   2.275   1.225  10.373 -1.5616 -3.6394 -0.0677
  165SOPE   H2S18518   2.199   1.366  10.278  1.0419 -0.1353  0.2901
  165SOPE    C318519   1.777   1.300  10.112 -0.1132  0.0842 -0.0134
  165SOPE    HX18520   1.795   1.406  10.139  0.6054  0.1270 -0.6524
  165SOPE    HY18521   1.668   1.278  10.124 -0.1521  0.6918  0.9146
  165SOPE   O3118522   1.829   1.280   9.971  0.5742  0.7435 -0.2693
  165SOPE   C3118523   1.772   1.173   9.912 -0.4184  0.3160 -0.4761
  165SOPE   O3218524   1.697   1.092   9.965 -0.0081 -0.4417 -0.2602
  165SOPE   C3218525   1.832   1.148   9.779  0.0832 -0.5197 -0.3875
  165SOPE   H2X18526   1.743   1.142   9.713  0.2392 -0.3422 -0.6135
  165SOPE   H2Y18527   1.894   1.055   9.777 -0.2284 -0.7260 -0.5363
  165SOPE   C2318528   2.305   1.213  10.164 -1.0758 -0.0557 -0.6414
  165SOPE   H3R18529   2.307   1.102  10.167 -1.4576 -0.0591 -0.3796
  165SOPE   H3S18530   2.406   1.254  10.184 -1.6222  0.9564  0.1631
  165SOPE   C2418531   2.254   1.261  10.036  0.0533  0.2086 -0.3056
  165SOPE   H4R18532   2.156   1.221  10.000 -0.1517  1.7486 -1.5913
  165SOPE   H4S18533   2.245   1.371  10.045  0.4059  0.4665 -2.4318
  165SOPE   C2518534   2.354   1.235   9.925 -0.1827 -0.0306  0.6180
  165SOPE   H5R18535   2.446   1.280   9.968  0.5147 -0.9052  0.0832
  165SOPE   H5S18536   2.368   1.125   9.916  1.4353  0.1860  0.3098
  165SOPE   C2618537   2.326   1.301   9.789  0.5985  0.0100 -0.1733
  165SOPE   H6R18538   2.237   1.250   9.747  0.3140 -0.6523  1.1727
  165SOPE   H6S18539   2.297   1.406   9.808 -0.7119  0.0336 -1.9947
  165SOPE   C2718540   2.433   1.286   9.682 -0.5016 -0.2105  0.1422
  165SOPE   H7R18541   2.519   1.348   9.716 -2.0425  1.6466  0.8178
  165SOPE   H7S18542   2.461   1.181   9.661  1.7788  0.5736 -1.2082
  165SOPE   C2818543   2.386   1.342   9.542  0.3296  0.1595  0.8288
  165SOPE   H8R18544   2.287   1.292   9.530  0.7622 -0.2466 -1.4750
  165SOPE   H8S18545   2.381   1.449   9.572  1.0227 -0.1208  2.0012
  165SOPE   C2918546   2.479   1.336   9.423 -0.2471 -0.2767 -0.4038
  165SOPE   H9118547   2.577   1.380   9.445 -0.1911  0.0325 -1.2222
  165SOPE  C21018548   2.466   1.287   9.298  0.5554 -0.0057 -0.1266
  165SOPE  H10118549   2.557   1.292   9.237  0.0192 -2.5902 -1.3054
  165SOPE  C21118550   2.342   1.213   9.239  0.5831  0.0271 -0.3928
  165SOPE  H11R18551   2.265   1.293   9.231  1.9737  1.4583  0.0150
  165SOPE  H11S18552   2.306   1.147   9.321  0.1889  1.3367  0.5200
  165SOPE  C21218553   2.364   1.133   9.114 -0.4732 -0.4385 -0.7095
  165SOPE  H12R18554   2.274   1.069   9.100 -1.1582  0.7095 -1.7065
  165SOPE  H12S18555   2.457   1.073   9.125 -0.1512  0.1548 -0.1272
  165SOPE  C21318556   2.373   1.209   8.989  0.2165 -0.5306 -0.4628
  165SOPE  H13R18557   2.456   1.283   8.987  1.0021 -1.3948 -0.7128
  165SOPE  H13S18558   2.277   1.264   8.978  0.6116  0.8040  1.9152
  165SOPE  C21418559   2.392   1.136   8.861  0.3967  0.1585  0.3057
  165SOPE  H14R18560   2.293   1.091   8.838 -1.2667  2.8164  1.6121
  165SOPE  H14S18561   2.472   1.060   8.874  0.5543  0.4945  1.4237
  165SOPE  C21518562   2.423   1.233   8.740  0.4080 -0.2989 -0.3647
  165SOPE  H15R18563   2.514   1.289   8.766  0.9742 -1.8441  1.2346
  165SOPE  H15S18564   2.341   1.308   8.740  0.5338 -0.1626 -0.6545
  165SOPE  C21618565   2.450   1.158   8.606  0.6918 -0.0137 -0.4003
  165SOPE  H16R18566   2.539   1.094   8.623 -0.3807 -1.3243  0.3759
  165SOPE  H16S18567   2.472   1.227   8.521  0.2715 -2.3103 -2.4640
  165SOPE  C21718568   2.348   1.059   8.560  0.3799 -0.5249  0.2480
  165SOPE  H17R18569   2.262   1.116   8.520  0.8776  1.3125  1.6299
  165SOPE  H17S18570   2.312   0.988   8.637 -1.1571  0.8822  0.8856
  165SOPE  C21818571   2.400   0.965   8.443  0.6297 -0.3307  0.5274
  165SOPE  H18R18572   2.459   1.022   8.368 -1.4452  1.2288 -0.0193
  165SOPE  H18S18573   2.309   0.938   8.386 -0.0456  3.2518 -0.3046
  165SOPE  H18T18574   2.448   0.874   8.486 -2.6794 -0.6371  4.2722
  165SOPE   C3318575   1.933   1.258   9.728 -0.0348 -0.2129 -0.5255
  165SOPE   H3X18576   2.013   1.251   9.805 -2.2478 -0.1225  1.9391
  165SOPE   H3Y18577   1.876   1.354   9.722  0.6005  0.1473 -0.8231
  165SOPE   C3418578   1.988   1.220   9.597  0.2401 -0.2672 -0.3355
  165SOPE   H4X18579   2.016   1.113   9.589  0.9970 -0.0165 -1.3134
  165SOPE   H4Y18580   2.084   1.275   9.585 -0.1080  0.2233 -0.9416
  165SOPE   C3518581   1.893   1.248   9.474  0.5281 -0.1016 -0.5054
  165SOPE   H5X18582   1.861   1.354   9.476  0.7122 -0.0489 -0.3613
  165SOPE   H5Y18583   1.800   1.189   9.489  1.0728 -1.0110 -0.5805
  165SOPE   C3618584   1.967   1.217   9.339  0.3556 -0.8139  0.4048
  165SOPE   H6X18585   1.989   1.109   9.328  2.2386 -0.3698 -0.5297
  165SOPE   H6Y18586   2.055   1.284   9.349  0.1309 -0.2650 -1.0110
  165SOPE   C3718587   1.878   1.257   9.218  0.1316 -0.1372 -0.5371
  165SOPE   H7X18588   1.832   1.356   9.238 -0.2778 -0.0290 -1.8852
  165SOPE   H7Y18589   1.793   1.188   9.199  0.6763 -1.2858  1.0320
  165SOPE   C3818590   1.971   1.278   9.100 -0.1431 -0.2758  0.3887
  165SOPE   H8X18591   2.050   1.201   9.082  1.6656  1.8440 -1.3200
  165SOPE   H8Y18592   2.030   1.370   9.122  1.2416 -1.1884  0.6454
  165SOPE   C3918593   1.893   1.295   8.972 -0.3002 -0.1038 -0.8217
  165SOPE   H9X18594   1.961   1.349   8.902 -0.0061 -0.0172 -0.4757
  165SOPE   H9Y18595   1.803   1.358   8.989 -1.3777 -1.8850  0.5337
  165SOPE  C31018596   1.871   1.159   8.908  0.5019 -0.4260  0.3194
  165SOPE  H10X18597   1.800   1.098   8.969 -0.9866  1.8005  0.9479
  165SOPE  H10Y18598   1.970   1.109   8.902 -0.1483 -1.8127  0.6675
  165SOPE  C31118599   1.816   1.175   8.764  0.0942 -0.0982  0.1328
  165SOPE  H11X18600   1.887   1.245   8.714  0.9039 -0.7491  0.3479
  165SOPE  H11Y18601   1.711   1.212   8.761  0.4691  0.9401 -1.2329
  165SOPE  C31218602   1.833   1.053   8.678  0.3751  1.1294  0.4085
  165SOPE  H12X18603   1.769   0.972   8.720  3.2289 -1.2533  0.5075
  165SOPE  H12Y18604   1.940   1.024   8.679 -0.1348 -0.9050  0.4469
  165SOPE  C31318605   1.794   1.077   8.530  0.9370  0.1295 -0.2125
  165SOPE  H13X18606   1.879   1.124   8.475 -0.6782  0.7726 -2.3031
  165SOPE  H13Y18607   1.702   1.137   8.510  0.3599 -0.6731 -0.0137
  165SOPE  C31418608   1.772   0.953   8.451  0.6903  0.5495 -0.4262
  165SOPE  H14X18609   1.692   0.882   8.483  2.6123 -1.0764  1.0492
  165SOPE  H14Y18610   1.868   0.898   8.460  0.2379  0.1638  3.4763
  165SOPE  C31518611   1.729   0.984   8.303 -0.0254 -0.4115 -0.5639
  165SOPE  H15X18612   1.789   1.072   8.273 -1.3855  0.6880 -0.1486
  165SOPE  H15Y18613   1.622   1.010   8.290 -0.1898 -1.0814 -0.6207
  165SOPE  C31618614   1.756   0.861   8.217  0.8882  0.6260 -0.6601
  165SOPE  H16X18615   1.830   0.789   8.257  0.8755  1.0264  0.1015
  165SOPE  H16Y18616   1.803   0.897   8.123 -2.5646  0.3996 -2.6468
  165SOPE  C31718617   1.623   0.775   8.206 -0.1491 -0.4254 -0.1852
  165SOPE  H17X18618   1.547   0.850   8.175 -0.2560  0.3475  1.7943
  165SOPE  H17Y18619   1.585   0.752   8.308 -0.3607  0.5712 -0.0319
  165SOPE  C31818620   1.649   0.661   8.106  0.4795  1.0392 -0.2322
  165SOPE  H18X18621   1.557   0.600   8.103  1.0126  0.0070  2.3332
  165SOPE  H18Y18622   1.734   0.593   8.127  0.2274  0.6765 -0.3721
  165SOPE  H18Z18623   1.665   0.705   8.005 -1.0107 -1.2465 -1.5275
  166SOPE     N18624   3.471   0.642  10.886 -0.4973  0.1563 -0.1984
  166SOPE   HN118625   3.555   0.666  10.942 -1.2193 -0.8886  1.4113
  166SOPE   HN218626   3.396   0.685  10.944  0.0991  0.7934  0.1221
  166SOPE   HN318627   3.462   0.539  10.881  2.4075 -0.1433 -0.7911
  166SOPE   C1218628   3.465   0.694  10.749  0.3631 -0.4165 -0.1848
  166SOPE  H12A18629   3.423   0.620  10.677 -1.2544  0.3558 -0.0869
  166SOPE  H12B18630   3.567   0.722  10.715  0.6057  0.6777  1.3610
  166SOPE   C1118631   3.384   0.824  10.747  0.0857  0.4378  0.0014
  166SOPE  H11A18632   3.280   0.809  10.781  0.2328  0.0453  0.2796
  166SOPE  H11B18633   3.382   0.858  10.641  0.6308  1.1369  0.2052
  166SOPE     P18634   3.489   1.073  10.769 -0.2664  0.1628 -0.2545
  166SOPE   O1318635   3.630   1.096  10.804  0.0471 -0.2567  0.1519
  166SOPE   O1418636   3.389   1.176  10.801 -0.3000  0.6129 -0.3040
  166SOPE   O1218637   3.444   0.926  10.829  0.2045 -0.4556  0.1232
  166SOPE   O1118638   3.482   1.045  10.616  0.2545 -0.5730 -0.3600
  166SOPE    C118639   3.602   0.985  10.552  0.2601 -0.6179  0.4983
  166SOPE    HA18640   3.568   0.912  10.475  1.9821 -0.2889 -0.6349
  166SOPE    HB18641   3.657   0.912  10.616 -2.2490 -1.6792  1.5656
  166SOPE    C218642   3.702   1.089  10.491 -0.2027  0.6953 -0.6905
  166SOPE    HS18643   3.724   1.163  10.571 -3.0088  0.9937 -0.0876
  166SOPE   O2118644   3.642   1.160  10.381 -0.0968  0.1224 -0.4805
  166SOPE   C2118645   3.712   1.270  10.353 -0.6448 -0.6834  0.0011
  166SOPE   O2218646   3.812   1.308  10.411 -0.3904 -0.4616 -0.6908
  166SOPE   C2218647   3.654   1.345  10.233  0.1265  0.4178 -0.2474
  166SOPE   H2R18648   3.734   1.417  10.203  0.3886  0.3674  0.3104
  166SOPE   H2S18649   3.566   1.402  10.271  1.5042  2.4319  0.1158
  166SOPE    C318650   3.832   1.007  10.460 -0.5662  0.1376 -0.2045
  166SOPE    HX18651   3.902   0.995  10.546  1.5913  2.9343 -1.4099
  166SOPE    HY18652   3.898   1.070  10.397 -0.6204  1.0930  0.6557
  166SOPE   O3118653   3.806   0.883  10.404 -0.1906  0.4811  0.5738
  166SOPE   C3118654   3.868   0.859  10.285  0.0860  0.1895 -0.0502
  166SOPE   O3218655   3.943   0.934  10.230  0.0086  0.2193  0.1245
  166SOPE   C3218656   3.836   0.714  10.242 -0.2395  0.0461  0.9471
  166SOPE   H2X18657   3.726   0.705  10.257 -0.7031 -1.0794 -2.3673
  166SOPE   H2Y18658   3.870   0.643  10.320  0.1324  0.2067  0.9319
  166SOPE   C2318659   3.614   1.265  10.113 -0.6078  0.0234 -0.1109
  166SOPE   H3R18660   3.524   1.211  10.147 -1.7612  1.2157 -1.1628
  166SOPE   H3S18661   3.697   1.195  10.089 -0.2982  0.1597  0.5296
  166SOPE   C2418662   3.591   1.337   9.976  0.0640  0.2749  0.6565
  166SOPE   H4R18663   3.523   1.274   9.915  0.9081 -0.4233  0.4004
  166SOPE   H4S18664   3.539   1.432  10.002 -0.7561 -0.0428  0.1933
  166SOPE   C2518665   3.717   1.368   9.880  0.1114  0.5133 -0.3382
  166SOPE   H5R18666   3.794   1.391   9.956  0.5252 -3.3779  0.6055
  166SOPE   H5S18667   3.737   1.281   9.814  0.5441 -0.2079  0.7229
  166SOPE   C2618668   3.681   1.480   9.787 -0.4323  0.4266 -0.1336
  166SOPE   H6R18669   3.584   1.456   9.737  0.0073 -1.2647 -0.2320
  166SOPE   H6S18670   3.656   1.567   9.852 -2.8735  0.1309 -0.5578
  166SOPE   C2718671   3.783   1.508   9.674  0.3925  0.3123  0.1642
  166SOPE   H7R18672   3.756   1.605   9.629  1.0293 -0.1117 -1.1945
  166SOPE   H7S18673   3.887   1.517   9.712  0.4723  1.9602 -0.3690
  166SOPE   C2818674   3.775   1.406   9.553 -0.3949 -0.2850 -0.1356
  166SOPE   H8R18675   3.790   1.307   9.602  0.0375 -0.9894 -1.6154
  166SOPE   H8S18676   3.668   1.399   9.525 -0.1674 -2.1343 -0.6983
  166SOPE   C2918677   3.870   1.436   9.443  0.1986  0.0074  0.5512
  166SOPE   H9118678   3.972   1.398   9.458  0.0375 -1.1407 -1.0072
  166SOPE  C21018679   3.833   1.497   9.326  0.6495  0.6355  0.2833
  166SOPE  H10118680   3.906   1.513   9.245 -0.1157 -1.1317 -0.8118
  166SOPE  C21118681   3.695   1.559   9.283 -0.2603  0.5731 -0.2171
  166SOPE  H11R18682   3.716   1.668   9.291  1.3107  0.2352  0.8205
  166SOPE  H11S18683   3.626   1.523   9.363  1.1661  0.1180  0.8592
  166SOPE  C21218684   3.643   1.510   9.147 -0.4274 -0.5955  0.1291
  166SOPE  H12R18685   3.535   1.537   9.145 -0.8066 -1.8558  1.6246
  166SOPE  H12S18686   3.643   1.399   9.137  1.2210 -0.5697 -0.3396
  166SOPE  C21318687   3.726   1.568   9.034  0.0013  1.1312  0.6263
  166SOPE  H13R18688   3.820   1.507   9.038 -1.1875 -0.7341  1.9179
  166SOPE  H13S18689   3.743   1.677   9.040  5.1140  0.6264  0.2524
  166SOPE  C21418690   3.664   1.540   8.897  0.3287 -1.1603 -0.1484
  166SOPE  H14R18691   3.638   1.434   8.876 -1.2243 -0.8692  0.2138
  166SOPE  H14S18692   3.735   1.561   8.814 -0.9028 -0.5953 -1.0987
  166SOPE  C21518693   3.548   1.636   8.876  0.1308 -0.4557  0.3908
  166SOPE  H15R18694   3.594   1.737   8.878  1.0662 -0.8828  1.6682
  166SOPE  H15S18695   3.472   1.626   8.956 -1.5799 -2.2539 -1.3512
  166SOPE  C21618696   3.469   1.617   8.739 -0.7957  0.3742  0.7555
  166SOPE  H16R18697   3.379   1.678   8.717 -0.1334  0.8452 -0.8427
  166SOPE  H16S18698   3.439   1.512   8.722  0.4494  0.1322 -0.0863
  166SOPE  C21718699   3.571   1.646   8.627 -0.3042  0.0983 -0.3738
  166SOPE  H17R18700   3.665   1.587   8.639 -0.6609 -0.0897  1.8490
  166SOPE  H17S18701   3.604   1.752   8.633  0.0076 -0.0249  0.1231
  166SOPE  C21818702   3.508   1.626   8.499  0.5139  0.6714  0.1791
  166SOPE  H18R18703   3.579   1.655   8.419  1.2691 -1.7486 -0.1272
  166SOPE  H18S18704   3.418   1.688   8.479 -1.7676 -2.1988  0.8588
  166SOPE  H18T18705   3.492   1.516   8.488  1.7353  0.5331 -0.3445
  166SOPE   C3318706   3.904   0.673  10.110  1.0679 -0.3968 -0.5769
  166SOPE   H3X18707   4.013   0.675  10.129  0.5995 -0.2488  2.8168
  166SOPE   H3Y18708   3.875   0.745  10.031 -1.3794 -1.4625 -0.7508
  166SOPE   C3418709   3.856   0.536  10.061  0.0713 -0.1573 -0.0342
  166SOPE   H4X18710   3.750   0.536  10.027  0.4151  1.5398 -1.2386
  166SOPE   H4Y18711   3.853   0.457  10.140 -1.3949  0.4534  0.5604
  166SOPE   C3518712   3.940   0.474   9.950  0.0391 -0.3542 -0.6584
  166SOPE   H5X18713   3.875   0.394   9.909 -0.9401 -0.0374  0.2430
  166SOPE   H5Y18714   4.038   0.428   9.975 -0.1145 -1.3167 -1.7646
  166SOPE   C3618715   3.980   0.588   9.846  0.2378 -0.4202  0.8892
  166SOPE   H6X18716   4.049   0.656   9.902 -1.8033  1.1524  1.6191
  166SOPE   H6Y18717   3.887   0.648   9.842  0.8550  0.6799  2.0082
  166SOPE   C3718718   4.039   0.537   9.709  0.4211  0.4326  0.5106
  166SOPE   H7X18719   3.996   0.435   9.702  0.8815  0.2951 -0.6423
  166SOPE   H7Y18720   4.149   0.539   9.729  0.5425  1.3508 -0.1733
  166SOPE   C3818721   4.014   0.620   9.580 -0.0859  0.6093 -0.0719
  166SOPE   H8X18722   4.048   0.724   9.600  3.0777 -0.0194 -1.6284
  166SOPE   H8Y18723   3.904   0.633   9.567 -0.0046  1.1536 -0.2600
  166SOPE   C3918724   4.081   0.559   9.455 -0.4577 -0.7107 -0.0373
  166SOPE   H9X18725   4.186   0.525   9.467  0.3347  0.6403 -2.3019
  166SOPE   H9Y18726   4.081   0.639   9.377 -1.3763 -3.0627 -2.6300
  166SOPE  C31018727   4.004   0.443   9.396 -0.2077 -0.1496  0.2784
  166SOPE  H10X18728   3.909   0.472   9.347 -0.4365  0.0403  0.8332
  166SOPE  H10Y18729   3.978   0.372   9.478 -0.7721  0.9931  1.1135
  166SOPE  C31118730   4.084   0.368   9.288 -0.2134 -0.6274  0.1893
  166SOPE  H11X18731   4.171   0.325   9.342  0.8065  1.3400  0.1949
  166SOPE  H11Y18732   4.115   0.442   9.211 -2.3622  0.4670  0.2855
  166SOPE  C31218733   4.008   0.249   9.215 -0.1740 -0.9477 -0.1247
  166SOPE  H12X18734   3.966   0.191   9.300  0.1486  2.0589  2.2577
  166SOPE  H12Y18735   4.074   0.180   9.158 -0.7921 -1.3287 -0.3838
  166SOPE  C31318736   3.900   0.296   9.116  0.2993  0.1641 -0.8250
  166SOPE  H13X18737   3.946   0.362   9.039 -0.1183  0.7066 -0.6167
  166SOPE  H13Y18738   3.837   0.366   9.174 -0.1662 -1.5726  0.8985
  166SOPE  C31418739   3.817   0.185   9.047  0.8297 -0.4831 -0.3160
  166SOPE  H14X18740   3.751   0.222   8.965  0.5364 -0.3099 -0.0061
  166SOPE  H14Y18741   3.755   0.128   9.120 -1.0601  0.2386 -1.2861
  166SOPE  C31518742   3.907   0.081   8.972 -0.9817  0.6437 -0.8258
  166SOPE  H15X18743   3.834   0.005   8.937 -0.3373 -0.0526 -0.7055
  166SOPE  H15Y18744   3.967   0.022   9.045 -3.2091 -0.7002  0.0307
  166SOPE  C31618745   4.015   0.126   8.868 -0.3527 -0.3433  0.3866
  166SOPE  H16X18746   4.068   0.032   8.840  0.2198  0.0861  0.0248
  166SOPE  H16Y18747   4.095   0.195   8.902 -1.4457  0.8815  0.5566
  166SOPE  C31718748   3.941   0.198   8.756 -0.1949 -0.4713 -0.5034
  166SOPE  H17X18749   3.909   0.294   8.801  0.3770 -1.4359  2.1221
  166SOPE  H17Y18750   3.850   0.138   8.737  0.7314 -2.0287 -0.2069
  166SOPE  C31818751   4.026   0.220   8.633 -0.4070  0.1231  0.0833
  166SOPE  H18X18752   4.134   0.219   8.658 -0.7223 -1.0232  1.5074
  166SOPE  H18Y18753   3.987   0.306   8.575  0.6933  0.6294  0.0624
  166SOPE  H18Z18754   4.011   0.129   8.571  1.8006  0.0962 -0.5142
  167SOPE     N18755   6.283   5.053   6.068 -0.3502 -0.0679 -0.3215
  167SOPE   HN118756   6.313   4.980   6.135 -2.1342 -0.1100  0.4962
  167SOPE   HN218757   6.313   5.145   6.107  0.3372 -0.2136 -0.4975
  167SOPE   HN318758   6.179   5.044   6.066 -0.4682  1.2157 -1.1148
  167SOPE   C1218759   6.344   5.039   5.935 -0.2298  0.5143  0.0363
  167SOPE  H12A18760   6.336   5.133   5.877 -1.5107 -0.8726 -2.2352
  167SOPE  H12B18761   6.293   4.956   5.880  2.6074  0.4250 -2.7285
  167SOPE   C1118762   6.496   4.995   5.951 -0.3778 -0.4423 -0.2011
  167SOPE  H11A18763   6.555   5.079   5.993 -1.0380 -0.2245  0.3145
  167SOPE  H11B18764   6.545   4.987   5.852  0.5632  1.1005  0.1069
  167SOPE     P18765   6.637   4.836   6.104 -0.2031  0.2854  0.0047
  167SOPE   O1318766   6.695   4.944   6.182  0.2262  0.1865  0.4545
  167SOPE   O1418767   6.727   4.748   6.021 -0.4024 -0.3644  0.0049
  167SOPE   O1218768   6.506   4.875   6.026  0.8910  0.3099 -0.3765
  167SOPE   O1118769   6.586   4.737   6.203 -0.5132 -0.1964  0.5023
  167SOPE    C118770   6.466   4.755   6.283 -0.1161  1.0934  0.9026
  167SOPE    HA18771   6.421   4.654   6.292  2.7971 -0.4435 -0.2802
  167SOPE    HB18772   6.390   4.808   6.221  2.2093  1.7359 -1.6028
  167SOPE    C218773   6.495   4.793   6.426 -0.1450 -1.1478 -0.1854
  167SOPE    HS18774   6.398   4.794   6.480  0.1832 -0.8862  0.4105
  167SOPE   O2118775   6.543   4.928   6.433 -0.0112  0.2321  0.1269
  167SOPE   C2118776   6.466   5.026   6.410 -0.1611  0.0593 -0.4259
  167SOPE   O2218777   6.349   5.022   6.373  0.0912  0.2926 -0.4951
  167SOPE   C2218778   6.537   5.154   6.459 -0.3925 -0.1156 -0.0259
  167SOPE   H2R18779   6.604   5.194   6.379 -0.7746 -0.6686 -0.6316
  167SOPE   H2S18780   6.596   5.138   6.552  0.0917  1.6375  0.0101
  167SOPE    C318781   6.594   4.700   6.506 -0.3444  0.0250 -0.0738
  167SOPE    HX18782   6.687   4.717   6.447 -1.4758  1.1986 -1.6117
  167SOPE    HY18783   6.588   4.591   6.487  0.4748  0.0488 -0.5332
  167SOPE   O3118784   6.601   4.731   6.649  0.0712  1.0249  0.1100
  167SOPE   C3118785   6.687   4.811   6.698  0.0290  0.1780  0.2297
  167SOPE   O3218786   6.779   4.862   6.640 -0.1616 -0.3418 -0.7896
  167SOPE   C3218787   6.652   4.839   6.845  0.4931 -0.3097 -0.6979
  167SOPE   H2X18788   6.650   4.748   6.908 -0.1643 -1.3651 -2.1681
  167SOPE   H2Y18789   6.547   4.874   6.840  1.3660  2.4517 -2.0496
  167SOPE   C2318790   6.442   5.270   6.495 -0.1102 -0.9139 -0.1374
  167SOPE   H3R18791   6.364   5.289   6.417  0.4648  0.7181 -0.3687
  167SOPE   H3S18792   6.491   5.370   6.499 -2.0571  0.0547  3.1333
  167SOPE   C2418793   6.360   5.255   6.623 -0.6548 -0.2600 -0.2630
  167SOPE   H4R18794   6.291   5.169   6.616 -1.4071  0.1749  1.3047
  167SOPE   H4S18795   6.429   5.235   6.708  0.4631  1.6126 -0.6694
  167SOPE   C2518796   6.262   5.371   6.663 -0.0023  0.0183  1.4111
  167SOPE   H5R18797   6.215   5.414   6.572 -0.8210 -0.4243  1.6150
  167SOPE   H5S18798   6.179   5.345   6.733 -0.9222  0.0020  0.3482
  167SOPE   C2618799   6.335   5.491   6.724  0.0590  0.3468  0.2904
  167SOPE   H6R18800   6.420   5.522   6.660 -0.6295  0.7239 -0.4491
  167SOPE   H6S18801   6.269   5.580   6.729 -1.4962 -0.8232  1.7054
  167SOPE   C2718802   6.384   5.451   6.865  0.7512 -0.5370  0.0377
  167SOPE   H7R18803   6.316   5.391   6.928  1.5589 -0.7745  0.7041
  167SOPE   H7S18804   6.479   5.393   6.866  0.8880 -0.3190  0.8250
  167SOPE   C2818805   6.408   5.581   6.947  1.2452  0.9500  0.0903
  167SOPE   H8R18806   6.475   5.644   6.885  0.0015  2.9049  0.6395
  167SOPE   H8S18807   6.308   5.629   6.952  0.2760 -0.7316 -1.5277
  167SOPE   C2918808   6.479   5.545   7.077 -0.4343  0.6515  0.0745
  167SOPE   H9118809   6.580   5.503   7.066 -0.3291  1.2520 -1.4400
  167SOPE  C21018810   6.446   5.597   7.204 -0.1367 -0.2238  0.7556
  167SOPE  H10118811   6.511   5.581   7.292 -0.0992 -0.8933  0.6067
  167SOPE  C21118812   6.329   5.686   7.235 -0.0724 -0.0410  0.8141
  167SOPE  H11R18813   6.237   5.627   7.249 -0.2148 -0.3118 -1.1059
  167SOPE  H11S18814   6.322   5.771   7.164 -1.1045  0.3446  1.3636
  167SOPE  C21218815   6.338   5.764   7.373 -0.4812 -0.0947 -0.1781
  167SOPE  H12R18816   6.270   5.852   7.369 -1.0247 -0.5129 -0.2733
  167SOPE  H12S18817   6.441   5.799   7.392 -2.0311  4.1861  1.6894
  167SOPE  C21318818   6.304   5.659   7.482  0.3414  0.0013 -1.0309
  167SOPE  H13R18819   6.382   5.580   7.476 -0.3022 -0.5933 -1.6482
  167SOPE  H13S18820   6.212   5.606   7.451 -0.3791  0.2543  0.6003
  167SOPE  C21418821   6.284   5.727   7.615  0.2128 -0.0828  0.5439
  167SOPE  H14R18822   6.234   5.825   7.601 -1.2211 -0.9280 -0.5831
  167SOPE  H14S18823   6.385   5.752   7.654 -0.7340  0.8616  2.5580
  167SOPE  C21518824   6.214   5.639   7.716 -0.8873 -0.6728  0.1463
  167SOPE  H15R18825   6.254   5.536   7.704  1.4692  0.2289 -0.3060
  167SOPE  H15S18826   6.104   5.651   7.705 -0.9028  0.2779  1.2181
  167SOPE  C21618827   6.247   5.674   7.857  0.3572 -1.0339 -0.0891
  167SOPE  H16R18828   6.357   5.660   7.866  0.5303 -1.4517 -2.2598
  167SOPE  H16S18829   6.201   5.593   7.918 -0.3927 -0.7341 -0.2492
  167SOPE  C21718830   6.203   5.818   7.901  0.0232  0.2958  0.0960
  167SOPE  H17R18831   6.092   5.824   7.896  0.0986  0.7565 -2.3034
  167SOPE  H17S18832   6.238   5.898   7.832 -0.5475  0.1194 -0.4042
  167SOPE  C21818833   6.245   5.853   8.039  0.4609 -0.0897  0.6315
  167SOPE  H18R18834   6.228   5.769   8.109 -0.8555  1.1099  1.8191
  167SOPE  H18S18835   6.189   5.943   8.074 -0.8292 -0.2957 -0.7540
  167SOPE  H18T18836   6.353   5.875   8.027  0.4499 -1.0815 -1.9451
  167SOPE   C3318837   6.733   4.958   6.902 -0.4909  0.2838  0.6305
  167SOPE   H3X18838   6.722   5.051   6.843 -0.2048 -0.0441  0.0582
  167SOPE   H3Y18839   6.840   4.926   6.899 -0.1929  1.3344 -0.6827
  167SOPE   C3418840   6.704   5.009   7.044  0.3428 -0.7981 -0.1526
  167SOPE   H4X18841   6.601   5.050   7.039  0.2311 -1.1557 -0.9103
  167SOPE   H4Y18842   6.779   5.086   7.072 -1.1704  0.2537  1.2005
  167SOPE   C3518843   6.694   4.896   7.156 -0.0543  0.5725  0.0115
  167SOPE   H5X18844   6.788   4.837   7.150  0.1571  1.0052 -1.2458
  167SOPE   H5Y18845   6.616   4.820   7.135  2.3470 -1.9532 -0.3481
  167SOPE   C3618846   6.667   4.942   7.295 -0.3193  0.2138 -0.4208
  167SOPE   H6X18847   6.582   5.013   7.287 -2.9875 -2.8675 -1.2339
  167SOPE   H6Y18848   6.745   5.014   7.329 -2.3709  2.0222  0.6647
  167SOPE   C3718849   6.641   4.834   7.394 -0.1621 -1.0451  0.3701
  167SOPE   H7X18850   6.742   4.790   7.408  1.6680  2.4626 -0.5222
  167SOPE   H7Y18851   6.565   4.766   7.350  1.4105 -1.9496 -1.1076
  167SOPE   C3818852   6.595   4.888   7.530  0.0529  0.2300  0.7646
  167SOPE   H8X18853   6.568   4.812   7.606 -1.4702  0.1968  0.2278
  167SOPE   H8Y18854   6.502   4.944   7.505 -0.9555 -1.5321  0.3196
  167SOPE   C3918855   6.696   4.978   7.602 -0.0698 -0.3472  0.3053
  167SOPE   H9X18856   6.709   5.072   7.544  0.9304  0.4822  1.7936
  167SOPE   H9Y18857   6.796   4.932   7.598  0.7884  1.5142 -1.5056
  167SOPE  C31018858   6.666   5.020   7.748  0.5044  0.0511 -0.0608
  167SOPE  H10X18859   6.741   5.096   7.778 -0.0742  1.3179 -1.6855
  167SOPE  H10Y18860   6.675   4.941   7.825  0.6592 -0.9606 -1.0788
  167SOPE  C31118861   6.516   5.070   7.754  0.1191  0.4409  1.3280
  167SOPE  H11X18862   6.449   4.983   7.771 -1.4809  1.4529  0.4504
  167SOPE  H11Y18863   6.495   5.110   7.652  3.5917 -1.4819 -0.3095
  167SOPE  C31218864   6.503   5.175   7.859  0.0745  0.2402  0.4333
  167SOPE  H12X18865   6.569   5.263   7.839 -0.8512  0.9747  0.5225
  167SOPE  H12Y18866   6.537   5.130   7.955  2.3515 -0.6038 -0.6873
  167SOPE  C31318867   6.360   5.233   7.862  0.6570 -0.1401  0.3551
  167SOPE  H13X18868   6.282   5.155   7.867 -0.5114  0.8955 -0.9461
  167SOPE  H13Y18869   6.346   5.280   7.762  1.2136  2.3393  1.3595
  167SOPE  C31418870   6.330   5.334   7.981  0.1913 -0.0836 -0.1802
  167SOPE  H14X18871   6.229   5.378   7.966 -0.5479 -1.5415  0.3686
  167SOPE  H14Y18872   6.397   5.423   7.978 -0.5101  0.4664  0.0564
  167SOPE  C31518873   6.319   5.265   8.112 -0.8519  0.1309  0.3984
  167SOPE  H15X18874   6.411   5.205   8.129 -0.9585 -1.6013 -3.7932
  167SOPE  H15Y18875   6.239   5.191   8.095  1.2844 -2.3236  0.3453
  167SOPE  C31618876   6.295   5.363   8.236 -0.5848  0.2321  0.4010
  167SOPE  H16X18877   6.237   5.315   8.317  1.0359  1.8161  2.6544
  167SOPE  H16Y18878   6.242   5.452   8.195  0.6940  0.9369  0.1917
  167SOPE  C31718879   6.428   5.421   8.297 -0.3137 -0.7149  0.1306
  167SOPE  H17X18880   6.483   5.481   8.221 -1.4905 -0.5279 -0.5904
  167SOPE  H17Y18881   6.505   5.345   8.321  1.0112  0.4139 -0.4064
  167SOPE  C31818882   6.410   5.508   8.418  0.4031 -0.3551 -0.2661
  167SOPE  H18X18883   6.353   5.602   8.402  0.6395 -0.1211  0.2540
  167SOPE  H18Y18884   6.504   5.531   8.471 -0.8157  2.6573  0.7868
  167SOPE  H18Z18885   6.341   5.444   8.478 -1.3245 -0.7902 -2.5539
  168SOPE     N18886   6.430   3.974   6.075  0.6911 -0.5432  0.5041
  168SOPE   HN118887   6.485   3.949   5.990  1.8537  3.0987  0.0138
  168SOPE   HN218888   6.480   3.970   6.166  0.1887  1.9108  0.9617
  168SOPE   HN318889   6.347   3.913   6.085  0.1890  0.0357 -0.0110
  168SOPE   C1218890   6.381   4.114   6.045  0.3334 -0.1030 -0.4816
  168SOPE  H12A18891   6.340   4.118   5.942 -1.7575 -1.2312  0.2417
  168SOPE  H12B18892   6.471   4.178   6.050  2.5708 -2.9522 -1.1437
  168SOPE   C1118893   6.273   4.149   6.144 -0.5589 -0.3253 -0.4071
  168SOPE  H11A18894   6.197   4.069   6.132  0.7325 -1.5005 -1.0733
  168SOPE  H11B18895   6.229   4.248   6.122  0.0735 -0.3193 -1.8049
  168SOPE     P18896   6.382   4.264   6.359  0.1280 -0.0688 -0.4404
  168SOPE   O1318897   6.297   4.275   6.485 -0.4790  0.5369  0.0540
  168SOPE   O1418898   6.393   4.381   6.273 -0.0676 -0.5049 -0.1539
  168SOPE   O1218899   6.330   4.146   6.275  0.2883  0.3246  0.8917
  168SOPE   O1118900   6.532   4.225   6.373  0.1086  0.0791  0.1197
  168SOPE    C118901   6.569   4.106   6.447 -0.1441 -1.1004  0.6185
  168SOPE    HA18902   6.665   4.071   6.405 -0.8692 -1.0556 -1.1735
  168SOPE    HB18903   6.503   4.018   6.434 -0.9951 -0.2953 -0.7889
  168SOPE    C218904   6.583   4.137   6.602  0.1051 -0.7347  0.2397
  168SOPE    HS18905   6.482   4.148   6.647 -0.9512 -3.2885 -1.2887
  168SOPE   O2118906   6.661   4.261   6.619 -0.1004  0.8325 -0.4170
  168SOPE   C2118907   6.642   4.331   6.726  0.4863  0.5242  0.2570
  168SOPE   O2218908   6.549   4.318   6.807  0.1509  0.4981  0.1975
  168SOPE   C2218909   6.762   4.432   6.746 -0.1154  0.1935 -0.2488
  168SOPE   H2R18910   6.742   4.506   6.666  2.6050 -0.3037 -1.5067
  168SOPE   H2S18911   6.855   4.371   6.739 -1.6540 -2.1415 -1.6703
  168SOPE    C318912   6.638   4.014   6.679 -0.4538  0.3893  0.1597
  168SOPE    HX18913   6.692   3.957   6.601  1.4517  0.0813  1.6113
  168SOPE    HY18914   6.553   3.955   6.719  0.2373 -0.8497 -0.1768
  168SOPE   O3118915   6.729   4.055   6.790  1.3324  0.1865  0.6013
  168SOPE   C3118916   6.806   3.960   6.840  0.4695 -0.7204 -0.1207
  168SOPE   O3218917   6.781   3.840   6.823 -0.6996 -0.2035  0.1616
  168SOPE   C3218918   6.915   4.019   6.933  0.3598  0.4945 -0.6468
  168SOPE   H2X18919   6.871   4.039   7.032  0.6919  0.0093 -0.3918
  168SOPE   H2Y18920   6.956   4.114   6.893  0.7888 -0.5935 -2.9841
  168SOPE   C2318921   6.759   4.507   6.884  0.3381 -0.5271  0.0029
  168SOPE   H3R18922   6.653   4.527   6.910  0.1150 -2.3950  0.6422
  168SOPE   H3S18923   6.813   4.604   6.874  0.7638 -0.6969  0.6075
  168SOPE   C2418924   6.828   4.427   6.993  0.4097 -0.4580  0.0016
  168SOPE   H4R18925   6.777   4.332   7.020 -3.2676  0.9320 -1.4060
  168SOPE   H4S18926   6.937   4.411   6.978  0.9872  3.3606 -0.9578
  168SOPE   C2518927   6.806   4.518   7.121  0.8233  0.5013  0.6595
  168SOPE   H5R18928   6.847   4.617   7.095  2.6523 -0.9291 -2.5246
  168SOPE   H5S18929   6.697   4.537   7.132  0.6083 -0.7357  0.8746
  168SOPE   C2618930   6.866   4.479   7.252 -0.0366 -0.1478 -0.4198
  168SOPE   H6R18931   6.834   4.556   7.325  0.2261  1.1431 -1.6238
  168SOPE   H6S18932   6.839   4.377   7.284  1.3771 -0.1300  0.9631
  168SOPE   C2718933   7.020   4.469   7.253 -0.1377  0.0837  0.0053
  168SOPE   H7R18934   7.033   4.365   7.217 -0.3813 -0.5543  1.6695
  168SOPE   H7S18935   7.051   4.542   7.175 -0.7053  0.0718 -0.2367
  168SOPE   C2818936   7.083   4.484   7.390 -0.3140  0.4746  0.2016
  168SOPE   H8R18937   7.059   4.394   7.450  1.6355  1.9116  3.4401
  168SOPE   H8S18938   7.193   4.475   7.381 -0.1133  2.9247 -0.5347
  168SOPE   C2918939   7.050   4.614   7.458  0.2307  0.1332  0.3848
  168SOPE   H9118940   7.099   4.703   7.418 -2.0929  1.6622  0.7408
  168SOPE  C21018941   6.962   4.630   7.564 -0.4443  0.0828  0.2869
  168SOPE  H10118942   6.936   4.730   7.602  0.6465  0.6338 -0.3726
  168SOPE  C21118943   6.890   4.519   7.635  1.1309 -0.5343 -0.2856
  168SOPE  H11R18944   6.914   4.521   7.744  1.2811  0.4871 -0.3298
  168SOPE  H11S18945   6.908   4.419   7.591  1.0870 -0.1190 -1.2627
  168SOPE  C21218946   6.737   4.535   7.631  0.4759  0.3191 -0.1974
  168SOPE  H12R18947   6.714   4.563   7.526  0.9938  0.0491 -0.3845
  168SOPE  H12S18948   6.713   4.625   7.692  1.5547 -0.3316  1.2748
  168SOPE  C21318949   6.649   4.421   7.682  0.1311 -0.6392  0.2094
  168SOPE  H13R18950   6.681   4.336   7.618 -0.4558  0.6947 -1.9286
  168SOPE  H13S18951   6.545   4.451   7.660 -0.2872 -0.5753  2.0810
  168SOPE  C21418952   6.658   4.392   7.831  0.1807  0.0093 -0.5874
  168SOPE  H14R18953   6.641   4.490   7.880 -0.2770 -0.5170  0.3237
  168SOPE  H14S18954   6.759   4.357   7.863 -0.2981  0.6871  1.8056
  168SOPE  C21518955   6.546   4.290   7.867  0.4924  0.2786 -0.2846
  168SOPE  H15R18956   6.556   4.203   7.798 -1.3432 -0.1684 -0.0360
  168SOPE  H15S18957   6.452   4.347   7.852  0.8208  0.8813 -0.0650
  168SOPE  C21618958   6.547   4.238   8.011  0.3812  0.5278 -0.3732
  168SOPE  H16R18959   6.539   4.326   8.079 -0.3137  0.6997 -0.6642
  168SOPE  H16S18960   6.637   4.177   8.029 -1.3426 -1.4788  2.2351
  168SOPE  C21718961   6.425   4.140   8.036 -0.4793 -0.2493 -0.0931
  168SOPE  H17R18962   6.410   4.075   7.947 -0.0836 -1.7878  0.9241
  168SOPE  H17S18963   6.332   4.201   8.038  0.3096  0.9873 -0.0781
  168SOPE  C21818964   6.428   4.062   8.168 -0.3660 -0.4635 -0.0508
  168SOPE  H18R18965   6.525   4.007   8.168  0.9732  1.7681 -0.3166
  168SOPE  H18S18966   6.351   3.982   8.176 -1.8166  0.7230 -1.4748
  168SOPE  H18T18967   6.415   4.127   8.257 -0.0678 -2.2884  1.3900
  168SOPE   C3318968   7.031   3.917   6.951  0.1620  0.2845 -0.3200
  168SOPE   H3X18969   7.076   3.909   6.850  1.5743  2.2365  0.0773
  168SOPE   H3Y18970   6.992   3.820   6.987 -0.3782  0.3168 -0.8160
  168SOPE   C3418971   7.149   3.962   7.040  0.1022 -0.0563  0.2819
  168SOPE   H4X18972   7.210   4.045   6.998 -0.1962 -0.1496 -0.3536
  168SOPE   H4Y18973   7.220   3.877   7.038 -1.6891 -1.6881  1.6464
  168SOPE   C3518974   7.112   4.006   7.182  0.1703  0.1246 -0.6789
  168SOPE   H5X18975   7.070   3.917   7.233  3.7584 -0.3281  1.8044
  168SOPE   H5Y18976   7.036   4.087   7.181 -2.1095 -1.8396  1.1931
  168SOPE   C3618977   7.239   4.062   7.254 -0.3381  0.1603 -0.4098
  168SOPE   H6X18978   7.290   4.139   7.193 -2.6205  1.1532 -1.1671
  168SOPE   H6Y18979   7.310   3.977   7.260  0.5141  0.8861 -0.0351
  168SOPE   C3718980   7.202   4.109   7.397  0.3805  0.4604 -0.2067
  168SOPE   H7X18981   7.154   4.021   7.444 -1.3274  1.6633  0.3727
  168SOPE   H7Y18982   7.128   4.191   7.388  1.1683  1.3187  0.8488
  168SOPE   C3818983   7.323   4.153   7.474  0.4736 -0.1045 -0.6267
  168SOPE   H8X18984   7.365   4.250   7.439  1.3786 -0.5875 -0.8894
  168SOPE   H8Y18985   7.403   4.079   7.458 -0.7263 -2.9425  4.4032
  168SOPE   C3918986   7.294   4.162   7.624  0.1419 -0.4746 -0.3262
  168SOPE   H9X18987   7.210   4.234   7.638  1.2295  0.7494  0.1296
  168SOPE   H9Y18988   7.386   4.206   7.668  0.7145 -1.0634 -0.9197
  168SOPE  C31018989   7.275   4.033   7.700 -0.4080 -0.0490 -0.3859
  168SOPE  H10X18990   7.358   3.964   7.674 -0.1849 -0.0035  0.1884
  168SOPE  H10Y18991   7.192   3.978   7.650 -0.9909 -0.7889  1.2999
  168SOPE  C31118992   7.262   4.055   7.847 -0.2557  0.6046  0.7205
  168SOPE  H11X18993   7.362   4.066   7.895  0.5789 -1.5500 -0.3751
  168SOPE  H11Y18994   7.225   3.960   7.891 -0.8573  0.8133  0.6661
  168SOPE  C31218995   7.166   4.169   7.889 -0.1266 -0.0984 -0.2731
  168SOPE  H12X18996   7.060   4.145   7.863 -0.2144 -1.7217  1.3702
  168SOPE  H12Y18997   7.200   4.266   7.848 -1.2425  1.9814  3.2190
  168SOPE  C31318998   7.170   4.183   8.044  0.2909 -0.0187  0.4324
  168SOPE  H13X18999   7.265   4.238   8.062 -0.5003  1.2365  0.8978
  168SOPE  H13Y19000   7.198   4.083   8.084 -1.0634 -0.2383  0.8857
  168SOPE  C31419001   7.050   4.260   8.101  0.5862 -0.3220 -0.0113
  168SOPE  H14X19002   7.034   4.355   8.045  1.0581 -1.3305 -1.9280
  168SOPE  H14Y19003   7.079   4.288   8.205  1.3223 -0.2016 -0.2474
  168SOPE  C31519004   6.917   4.175   8.101 -0.6598  0.2247  0.2950
  168SOPE  H15X19005   6.948   4.069   8.115  1.8358  0.8072 -0.3095
  168SOPE  H15Y19006   6.868   4.184   8.002 -1.3255 -1.7866  0.3849
  168SOPE  C31619007   6.825   4.214   8.211  0.4140  0.3637  0.3937
  168SOPE  H16X19008   6.726   4.170   8.185  0.3837  1.4244 -1.4185
  168SOPE  H16Y19009   6.816   4.325   8.213 -3.5754  0.1994 -0.3096
  168SOPE  C31719010   6.865   4.160   8.344  0.3396  0.6774 -0.3341
  168SOPE  H17X19011   6.972   4.189   8.358  0.4425 -0.7063  2.6063
  168SOPE  H17Y19012   6.863   4.049   8.346 -1.4162  0.6921  0.4557
  168SOPE  C31819013   6.803   4.210   8.471 -0.1551  0.7216 -0.5982
  168SOPE  H18X19014   6.825   4.317   8.490  1.0900  1.0138 -3.2891
  168SOPE  H18Y19015   6.841   4.148   8.556  1.6333 -1.9320 -3.1450
  168SOPE  H18Z19016   6.692   4.201   8.480  0.0426 -1.9405  0.0639
  169SOPE     N19017   0.795   5.857   6.320 -0.2516 -0.1320 -0.0172
  169SOPE   HN119018   0.855   5.824   6.241 -0.1607 -1.2896  0.5295
  169SOPE   HN219019   0.744   5.773   6.353  0.6795 -0.8015 -0.2449
  169SOPE   HN319020   0.740   5.932   6.274  1.1108  1.7639  1.3039
  169SOPE   C1219021   0.881   5.919   6.429  0.3700  1.0745 -0.2996
  169SOPE  H12A19022   0.951   5.839   6.460  0.7428  1.0828 -1.0921
  169SOPE  H12B19023   0.807   5.941   6.509 -0.3334 -2.4159  0.1385
  169SOPE   C1119024   0.966   6.037   6.377  0.0820 -0.0694 -0.2754
  169SOPE  H11A19025   1.016   6.000   6.285 -0.2037 -0.2769 -0.3519
  169SOPE  H11B19026   1.026   6.076   6.462 -0.9567  1.3345 -0.1443
  169SOPE     P19027   0.932   6.290   6.311 -0.2241  0.8742  0.0067
  169SOPE   O1319028   0.837   6.392   6.366  0.9665 -0.2304  0.1164
  169SOPE   O1419029   0.960   6.297   6.167 -0.5687  0.0242 -0.1613
  169SOPE   O1219030   0.879   6.144   6.346 -0.5242 -0.2189 -0.4759
  169SOPE   O1119031   1.069   6.297   6.394  0.3994  0.0242  0.5769
  169SOPE    C119032   1.137   6.418   6.403 -0.2359  0.5019  0.0930
  169SOPE    HA19033   1.093   6.497   6.339 -0.4934 -1.1370 -1.8428
  169SOPE    HB19034   1.239   6.390   6.370 -1.2967 -2.0196 -1.3399
  169SOPE    C219035   1.155   6.452   6.554 -0.0351  0.3020 -0.5773
  169SOPE    HS19036   1.190   6.556   6.564 -0.3742  0.6616 -2.6987
  169SOPE   O2119037   1.234   6.348   6.600 -0.5240  0.1262 -0.2517
  169SOPE   C2119038   1.314   6.381   6.713  0.1652 -0.8063  0.4075
  169SOPE   O2219039   1.336   6.496   6.751  0.6695 -0.0302  0.3718
  169SOPE   C2219040   1.372   6.256   6.778 -0.2664 -0.1741 -0.2059
  169SOPE   H2R19041   1.401   6.190   6.694  1.3789 -0.3591  0.4631
  169SOPE   H2S19042   1.279   6.211   6.819 -1.3852  1.5052 -0.8062
  169SOPE    C319043   1.026   6.449   6.642  0.3500 -0.3728 -0.5449
  169SOPE    HX19044   0.988   6.344   6.643  0.0085 -0.2496  0.1340
  169SOPE    HY19045   0.959   6.509   6.577  1.4646 -0.7598 -2.0809
  169SOPE   O3119046   1.035   6.487   6.783 -0.3369  0.2042 -0.1307
  169SOPE   C3119047   1.036   6.612   6.819  0.4482 -0.5028 -0.2361
  169SOPE   O3219048   1.011   6.706   6.747  0.2325 -0.6936  0.9878
  169SOPE   C3219049   1.057   6.633   6.968 -0.1198 -0.6910 -0.4068
  169SOPE   H2X19050   1.157   6.592   6.993 -0.6379 -1.2071  0.9334
  169SOPE   H2Y19051   0.985   6.574   7.029  0.0427  0.3871  0.8499
  169SOPE   C2319052   1.494   6.276   6.874 -0.0255 -0.0608 -0.3474
  169SOPE   H3R19053   1.533   6.379   6.862 -2.5830  0.8526 -1.5677
  169SOPE   H3S19054   1.571   6.201   6.850  0.6878  1.1138 -1.8797
  169SOPE   C2419055   1.443   6.253   7.016 -0.8455 -0.2918 -0.1953
  169SOPE   H4R19056   1.385   6.160   7.031  0.4762 -0.9912  0.8349
  169SOPE   H4S19057   1.531   6.248   7.085  0.2942 -2.0573 -1.6674
  169SOPE   C2519058   1.368   6.377   7.065  0.0996 -0.1828 -0.3368
  169SOPE   H5R19059   1.413   6.473   7.030  1.8335 -0.6860  0.3923
  169SOPE   H5S19060   1.269   6.381   7.015 -0.2662  1.2861  0.4362
  169SOPE   C2619061   1.343   6.389   7.217 -0.6932 -0.7103 -0.4969
  169SOPE   H6R19062   1.275   6.477   7.219  2.3227  1.7633 -0.1876
  169SOPE   H6S19063   1.286   6.299   7.250 -0.6927 -0.2695  0.7543
  169SOPE   C2719064   1.454   6.428   7.307 -0.0061 -0.3229  0.2463
  169SOPE   H7R19065   1.537   6.354   7.311  1.8538  1.7209  1.2398
  169SOPE   H7S19066   1.500   6.527   7.284 -0.2605 -0.3138 -0.2525
  169SOPE   C2819067   1.394   6.465   7.450  0.0798 -0.3149 -0.2463
  169SOPE   H8R19068   1.354   6.567   7.430  3.8686  0.8881 -2.7933
  169SOPE   H8S19069   1.319   6.393   7.490  1.0027 -1.3495 -0.3380
  169SOPE   C2919070   1.499   6.468   7.559  0.1436 -0.1585 -0.3087
  169SOPE   H9119071   1.551   6.372   7.573 -0.8898 -0.8037 -0.7860
  169SOPE  C21019072   1.555   6.580   7.612 -0.5301 -0.0280  0.1427
  169SOPE  H10119073   1.634   6.571   7.689 -0.7452 -0.4642  0.3146
  169SOPE  C21119074   1.529   6.728   7.580  0.4877 -0.1207 -0.1102
  169SOPE  H11R19075   1.486   6.782   7.667  1.2270 -1.7846  1.3719
  169SOPE  H11S19076   1.452   6.744   7.502  0.5423 -0.4325 -0.2292
  169SOPE  C21219077   1.653   6.815   7.531 -0.3351  0.1229  0.3171
  169SOPE  H12R19078   1.723   6.828   7.616  0.5224  2.7968 -0.7012
  169SOPE  H12S19079   1.610   6.914   7.506 -2.9128 -1.5380 -2.6013
  169SOPE  C21319080   1.718   6.765   7.401 -0.3551 -0.6713 -0.0574
  169SOPE  H13R19081   1.736   6.656   7.406 -0.7749 -1.0093 -3.2842
  169SOPE  H13S19082   1.820   6.805   7.385  0.1891 -2.0672 -0.2107
  169SOPE  C21419083   1.643   6.777   7.266  0.3004 -0.0656 -0.5245
  169SOPE  H14R19084   1.618   6.885   7.256  0.9589  0.3169  1.3874
  169SOPE  H14S19085   1.545   6.729   7.286  0.5021 -0.7382 -1.1429
  169SOPE  C21519086   1.711   6.710   7.141  0.2542 -0.0250 -0.3305
  169SOPE  H15R19087   1.742   6.610   7.180  1.5675  1.3067  2.2665
  169SOPE  H15S19088   1.799   6.773   7.121  0.7279  0.1302  1.9386
  169SOPE  C21619089   1.627   6.706   7.012 -0.2902 -0.6875  0.8960
  169SOPE  H16R19090   1.566   6.799   7.002 -0.6481 -0.8758  1.3113
  169SOPE  H16S19091   1.559   6.618   7.013  1.8258 -2.4475 -0.3352
  169SOPE  C21719092   1.720   6.684   6.888  0.2341 -0.0211 -0.1139
  169SOPE  H17R19093   1.804   6.755   6.899 -0.9371  1.4114 -0.0750
  169SOPE  H17S19094   1.657   6.704   6.798 -0.4627 -0.4573  0.2694
  169SOPE  C21819095   1.791   6.553   6.883  0.4101 -0.7604 -0.4397
  169SOPE  H18R19096   1.826   6.519   6.983 -1.3223 -1.8000 -0.1336
  169SOPE  H18S19097   1.875   6.561   6.811  0.4617 -1.4493 -0.4665
  169SOPE  H18T19098   1.719   6.473   6.855  1.3655 -2.3662  1.4556
  169SOPE   C3319099   1.044   6.786   7.017  0.1514  0.7921  0.5201
  169SOPE   H3X19100   0.937   6.816   7.015  0.3361  1.4334 -0.3314
  169SOPE   H3Y19101   1.099   6.852   6.947 -2.3619 -0.9138 -3.4352
  169SOPE   C3419102   1.099   6.815   7.159 -0.7100  0.0185  0.4434
  169SOPE   H4X19103   1.079   6.922   7.179 -0.2206  0.1568  0.1916
  169SOPE   H4Y19104   1.206   6.788   7.152 -1.3577 -2.5114 -1.1748
  169SOPE   C3519105   1.033   6.738   7.278  0.3247 -0.0802  1.0749
  169SOPE   H5X19106   1.045   6.629   7.260 -1.7833 -0.0453 -0.9633
  169SOPE   H5Y19107   0.924   6.757   7.271  0.5840  2.0756  2.1484
  169SOPE   C3619108   1.082   6.790   7.414  0.6238 -0.4595  0.1022
  169SOPE   H6X19109   1.030   6.884   7.443  0.1010 -0.5253 -0.6120
  169SOPE   H6Y19110   1.193   6.805   7.415  0.7350 -1.1411 -0.8412
  169SOPE   C3719111   1.056   6.694   7.531  0.0262 -0.4710  0.4411
  169SOPE   H7X19112   1.125   6.608   7.519 -1.9286 -1.8320 -1.7092
  169SOPE   H7Y19113   0.954   6.659   7.507 -0.5624 -0.3300  2.5490
  169SOPE   C3819114   1.074   6.764   7.663  0.0327 -0.2940 -0.9549
  169SOPE   H8X19115   1.017   6.859   7.659 -2.1353 -1.2283  2.9748
  169SOPE   H8Y19116   1.033   6.702   7.746 -2.1277 -2.5633 -3.4843
  169SOPE   C3919117   1.216   6.795   7.714  1.0870  0.3472 -0.3127
  169SOPE   H9X19118   1.258   6.875   7.649  3.3646 -3.0289 -3.3926
  169SOPE   H9Y19119   1.267   6.696   7.714 -0.6773 -0.6199  1.0252
  169SOPE  C31019120   1.218   6.846   7.856  1.1714 -0.5979 -0.6327
  169SOPE  H10X19121   1.194   6.758   7.920  0.8690  0.1738  0.3373
  169SOPE  H10Y19122   1.139   6.923   7.870  1.4457 -0.5114  0.6366
  169SOPE  C31119123   1.362   6.882   7.892 -0.5820 -0.2180  0.2535
  169SOPE  H11X19124   1.393   6.956   7.816 -1.8237 -0.9227 -0.9970
  169SOPE  H11Y19125   1.429   6.794   7.883  1.4654  1.3627 -0.8218
  169SOPE  C31219126   1.364   6.951   8.031 -0.7530  0.3477  0.4700
  169SOPE  H12X19127   1.296   7.037   8.049 -1.6493 -0.4308  0.8409
  169SOPE  H12Y19128   1.463   7.001   8.034 -0.4672 -0.2395  3.0070
  169SOPE  C31319129   1.345   6.852   8.148 -0.3387 -0.0984 -0.3438
  169SOPE  H13X19130   1.380   6.753   8.112  1.7211  0.2668  0.5276
  169SOPE  H13Y19131   1.236   6.837   8.166 -0.2303 -2.4392 -1.3474
  169SOPE  C31419132   1.424   6.883   8.276  0.2797 -0.3593  0.3903
  169SOPE  H14X19133   1.523   6.924   8.246 -0.5195 -0.1778 -2.2311
  169SOPE  H14Y19134   1.443   6.784   8.323  2.1331 -0.7001 -0.9684
  169SOPE  C31519135   1.349   6.972   8.369  0.1245 -0.4530 -0.0839
  169SOPE  H15X19136   1.254   6.934   8.413 -0.4593  0.1237 -0.8322
  169SOPE  H15Y19137   1.318   7.067   8.320 -0.9477  0.2202  1.7856
  169SOPE  C31619138   1.443   7.021   8.487 -0.0008  0.2744  0.5894
  169SOPE  H16X19139   1.400   7.085   8.567 -0.4621  1.5611 -0.6402
  169SOPE  H16Y19140   1.522   7.076   8.431 -0.4975 -0.8974 -1.3353
  169SOPE  C31719141   1.519   6.901   8.554  0.1803 -0.8185  0.8899
  169SOPE  H17X19142   1.591   6.857   8.482 -1.1824  1.0537 -1.8255
  169SOPE  H17Y19143   1.439   6.827   8.576 -1.3787  0.7903  0.8902
  169SOPE  C31819144   1.588   6.941   8.682  0.7330 -0.7154  0.5750
  169SOPE  H18X19145   1.644   6.860   8.733  2.2907  0.8627  1.4859
  169SOPE  H18Y19146   1.508   6.958   8.757  0.6850 -0.6648  0.5129
  169SOPE  H18Z19147   1.655   7.028   8.665 -1.6181  0.9918 -0.4345
  170SOPE     N19148   4.404   4.981   6.007  0.3761  0.0914  0.5973
  170SOPE   HN119149   4.411   5.067   5.948 -2.4858  0.3216  0.4699
  170SOPE   HN219150   4.450   4.899   5.961  2.6960  0.7040  1.6757
  170SOPE   HN319151   4.302   4.966   6.018  0.2141  0.6806 -0.0116
  170SOPE   C1219152   4.460   5.004   6.143 -0.6260 -0.6591  0.1054
  170SOPE  H12A19153   4.555   5.061   6.147 -2.1659  2.0341  0.5036
  170SOPE  H12B19154   4.479   4.902   6.184  1.8238  0.5779  2.3986
  170SOPE   C1119155   4.356   5.080   6.234  0.0498  0.4044 -0.2402
  170SOPE  H11A19156   4.320   5.174   6.189 -0.1777 -1.1984 -3.6854
  170SOPE  H11B19157   4.404   5.110   6.330  1.1076  2.0698 -1.2540
  170SOPE     P19158   4.114   4.996   6.193  0.0047  0.0284  0.4149
  170SOPE   O1319159   4.152   4.989   6.051 -0.2597 -0.2043  0.0774
  170SOPE   O1419160   4.031   5.116   6.230 -0.0706  0.9204 -0.1392
  170SOPE   O1219161   4.249   4.995   6.273  0.0623 -0.0381  0.0709
  170SOPE   O1119162   4.044   4.861   6.239  0.5225  0.2078  0.5842
  170SOPE    C119163   4.126   4.743   6.226 -0.7223  0.6009  0.0324
  170SOPE    HA19164   4.226   4.762   6.180  0.8139  0.6996  3.1208
  170SOPE    HB19165   4.074   4.670   6.161  1.7399  0.5612 -2.0636
  170SOPE    C219166   4.169   4.677   6.365 -0.2846  0.9585 -0.2967
  170SOPE    HS19167   4.165   4.567   6.352 -0.4308  1.0676 -1.3222
  170SOPE   O2119168   4.083   4.726   6.472  0.2145 -0.2471 -0.3358
  170SOPE   C2119169   3.960   4.700   6.444  0.2884  0.2302  0.2674
  170SOPE   O2219170   3.913   4.621   6.358  0.3612 -0.1898 -0.1696
  170SOPE   C2219171   3.874   4.777   6.543 -1.1803 -0.1165  0.2202
  170SOPE   H2R19172   3.771   4.783   6.500 -0.9300  3.8541 -0.2289
  170SOPE   H2S19173   3.899   4.885   6.533 -0.9493 -0.2061 -0.1859
  170SOPE    C319174   4.318   4.706   6.392 -0.1450  0.3314 -0.2706
  170SOPE    HX19175   4.334   4.816   6.398  0.2343  0.2542  0.1246
  170SOPE    HY19176   4.379   4.670   6.306  1.8076  3.3145 -0.2659
  170SOPE   O3119177   4.350   4.634   6.518 -0.4244 -0.4836  0.2323
  170SOPE   C3119178   4.448   4.686   6.585 -0.1810 -0.2445 -0.9378
  170SOPE   O3219179   4.519   4.777   6.551  0.1192 -0.0214  0.3809
  170SOPE   C3219180   4.460   4.607   6.715  0.4765  0.2584  0.2031
  170SOPE   H2X19181   4.538   4.529   6.702  0.9088  0.4880  1.2827
  170SOPE   H2Y19182   4.365   4.553   6.733 -0.7154  2.3713  0.5774
  170SOPE   C2319183   3.867   4.726   6.688 -0.4451 -0.1068  0.0803
  170SOPE   H3R19184   3.827   4.623   6.699 -0.6458 -0.1925 -1.2693
  170SOPE   H3S19185   3.795   4.782   6.750  0.4106  0.4478  0.5979
  170SOPE   C2419186   4.001   4.730   6.764 -0.1412  0.3648  0.2582
  170SOPE   H4R19187   4.081   4.680   6.707 -1.0762 -1.7363  0.6976
  170SOPE   H4S19188   4.033   4.834   6.790  1.5355 -0.5487  2.0754
  170SOPE   C2519189   3.977   4.654   6.903 -0.5899 -0.4872 -0.3452
  170SOPE   H5R19190   3.901   4.708   6.963  2.5362  4.0129 -0.0057
  170SOPE   H5S19191   3.921   4.559   6.885  0.6837 -1.2279 -0.5137
  170SOPE   C2619192   4.108   4.622   6.976 -0.3249  0.5876  0.3620
  170SOPE   H6R19193   4.187   4.582   6.908 -1.9041 -0.5416 -0.8765
  170SOPE   H6S19194   4.148   4.724   6.996  0.5885  0.8347 -2.2338
  170SOPE   C2719195   4.086   4.551   7.107  0.1074  0.2562 -0.8774
  170SOPE   H7R19196   4.014   4.614   7.163  2.6261  2.0775  0.5132
  170SOPE   H7S19197   4.047   4.448   7.099  2.1612 -0.6707  0.2967
  170SOPE   C2819198   4.205   4.547   7.203  0.1489 -0.8803 -0.1627
  170SOPE   H8R19199   4.286   4.523   7.131 -0.1184  0.0084 -0.7771
  170SOPE   H8S19200   4.210   4.648   7.249  1.7015 -1.3997  0.9229
  170SOPE   C2919201   4.197   4.453   7.324 -0.1004  0.4738 -0.5139
  170SOPE   H9119202   4.119   4.376   7.308 -0.6089  1.1875 -1.5593
  170SOPE  C21019203   4.265   4.453   7.441 -0.7393  0.0507 -0.7417
  170SOPE  H10119204   4.229   4.389   7.523  0.7742  1.1879  0.8501
  170SOPE  C21119205   4.382   4.540   7.490  0.2804  0.5591 -0.1583
  170SOPE  H11R19206   4.416   4.608   7.409 -1.4927  1.4623 -0.1824
  170SOPE  H11S19207   4.472   4.477   7.511  0.1904  0.0496 -1.2089
  170SOPE  C21219208   4.355   4.634   7.616 -0.3675 -0.2562 -0.0013
  170SOPE  H12R19209   4.305   4.583   7.701 -3.0539  2.4537  0.1698
  170SOPE  H12S19210   4.280   4.705   7.576 -1.0332 -0.9678 -0.0382
  170SOPE  C21319211   4.481   4.691   7.678  0.1712 -0.3813  0.3497
  170SOPE  H13R19212   4.543   4.755   7.612  1.4450 -2.3819 -0.4807
  170SOPE  H13S19213   4.550   4.610   7.708 -0.7375 -1.4408 -0.3185
  170SOPE  C21419214   4.447   4.783   7.796  0.5697 -0.1943 -0.2245
  170SOPE  H14R19215   4.363   4.849   7.764 -0.5555 -1.8206 -0.7695
  170SOPE  H14S19216   4.543   4.836   7.807  2.3818 -3.0247 -1.2879
  170SOPE  C21519217   4.402   4.721   7.932  0.4581  0.1997 -0.4101
  170SOPE  H15R19218   4.370   4.618   7.908  0.7642  0.3047 -1.2870
  170SOPE  H15S19219   4.319   4.785   7.968  0.8074  1.1677 -1.2701
  170SOPE  C21619220   4.522   4.722   8.030 -0.3331 -0.3234 -0.2830
  170SOPE  H16R19221   4.481   4.707   8.132 -3.3676  0.1367 -1.3341
  170SOPE  H16S19222   4.563   4.826   8.029  0.6262 -0.5927  2.1907
  170SOPE  C21719223   4.637   4.621   8.000 -0.1967 -0.3838 -0.3239
  170SOPE  H17R19224   4.687   4.662   7.909 -0.3240  0.9871  0.2047
  170SOPE  H17S19225   4.607   4.514   7.996  0.1030 -0.5281  0.8706
  170SOPE  C21819226   4.754   4.615   8.101 -0.2637  0.3333  1.4931
  170SOPE  H18R19227   4.713   4.569   8.193 -1.4078 -0.1964  0.7427
  170SOPE  H18S19228   4.789   4.718   8.123  0.4621  0.3740  0.2458
  170SOPE  H18T19229   4.842   4.553   8.077 -0.0666 -0.1251  3.2614
  170SOPE   C3319230   4.525   4.682   6.831 -0.9950 -0.0056 -0.5140
  170SOPE   H3X19231   4.450   4.761   6.854  1.9218  2.2631  2.2859
  170SOPE   H3Y19232   4.621   4.725   6.796 -2.0391  1.4599 -1.7173
  170SOPE   C3419233   4.528   4.595   6.960  0.1213  0.3476  0.0191
  170SOPE   H4X19234   4.432   4.539   6.952 -0.4433  0.8804  2.2766
  170SOPE   H4Y19235   4.514   4.655   7.052 -0.4327  0.4979 -0.1576
  170SOPE   C3519236   4.644   4.491   6.978  0.2786  0.1129 -0.7276
  170SOPE   H5X19237   4.740   4.545   6.989  0.5510 -0.5670  0.3035
  170SOPE   H5Y19238   4.651   4.439   6.880 -1.9872  0.9732 -1.4195
  170SOPE   C3619239   4.622   4.386   7.095  0.8171 -0.6053 -0.0877
  170SOPE   H6X19240   4.718   4.329   7.090  0.3852 -1.2689 -3.0793
  170SOPE   H6Y19241   4.537   4.318   7.077 -0.3232  0.9053 -0.5928
  170SOPE   C3719242   4.607   4.448   7.236 -0.1667 -0.3462 -0.7568
  170SOPE   H7X19243   4.588   4.372   7.315  1.2999  0.5474  0.5008
  170SOPE   H7Y19244   4.523   4.520   7.229 -0.3841 -0.5604 -0.4115
  170SOPE   C3819245   4.738   4.516   7.283 -0.0803 -0.0759  0.6268
  170SOPE   H8X19246   4.712   4.600   7.350  0.4104  0.4402  0.1826
  170SOPE   H8Y19247   4.801   4.551   7.198  1.5285  1.8173  2.4968
  170SOPE   C3919248   4.831   4.431   7.373  0.2453 -0.3351 -0.2916
  170SOPE   H9X19249   4.925   4.490   7.381 -0.7708  1.3293 -0.0867
  170SOPE   H9Y19250   4.863   4.336   7.325  0.9537  0.1825 -0.8589
  170SOPE  C31019251   4.780   4.414   7.512 -0.6384 -0.2174 -0.1434
  170SOPE  H10X19252   4.681   4.364   7.515 -0.3000 -0.9627 -1.0305
  170SOPE  H10Y19253   4.774   4.513   7.563 -0.6778 -0.2461 -0.0916
  170SOPE  C31119254   4.872   4.323   7.597  0.5668  0.1096 -0.3077
  170SOPE  H11X19255   4.973   4.362   7.576  0.9539 -1.4407 -1.5098
  170SOPE  H11Y19256   4.854   4.226   7.545 -5.1275  0.7081 -0.1755
  170SOPE  C31219257   4.830   4.335   7.741  0.4824  0.3192 -0.2330
  170SOPE  H12X19258   4.743   4.267   7.752  2.1362 -1.6777  1.4743
  170SOPE  H12Y19259   4.796   4.435   7.776 -0.3422  0.0075 -0.1240
  170SOPE  C31319260   4.933   4.278   7.837 -0.5527 -0.0507 -0.2901
  170SOPE  H13X19261   5.022   4.343   7.846  1.0741 -2.2810  0.8478
  170SOPE  H13Y19262   4.980   4.192   7.785 -0.8487 -0.5342  0.2278
  170SOPE  C31419263   4.864   4.246   7.968 -0.0806 -0.3880 -0.1346
  170SOPE  H14X19264   4.789   4.165   7.956 -0.3210 -0.1473 -0.2902
  170SOPE  H14Y19265   4.811   4.340   7.996  0.3766  0.2903 -1.4488
  170SOPE  C31519266   4.961   4.204   8.076 -0.2307  0.5304  0.0104
  170SOPE  H15X19267   5.017   4.293   8.112 -1.2758  1.0230  0.4393
  170SOPE  H15Y19268   5.042   4.149   8.022 -0.5808 -0.0030  0.0174
  170SOPE  C31619269   4.904   4.123   8.194  0.2220 -0.1593  0.7508
  170SOPE  H16X19270   4.883   4.020   8.158  0.2739  0.3743 -0.8952
  170SOPE  H16Y19271   4.802   4.168   8.202  0.4803  0.6801 -0.4580
  170SOPE  C31719272   4.984   4.133   8.323 -1.0402 -0.4249  1.0917
  170SOPE  H17X19273   5.006   4.241   8.337  0.9980 -0.6968  0.3449
  170SOPE  H17Y19274   5.079   4.076   8.320 -1.2034 -0.7297  1.6740
  170SOPE  C31819275   4.911   4.077   8.443 -0.2266 -0.4363  0.2983
  170SOPE  H18X19276   4.976   4.059   8.531 -2.6351 -1.2033  1.9830
  170SOPE  H18Y19277   4.886   3.975   8.407 -0.6244 -0.6318  1.1313
  170SOPE  H18Z19278   4.818   4.133   8.463  1.0796  2.6421 -1.4593
  171SOPE     N19279   0.936   1.190   6.189 -0.5154 -0.3464  0.1235
  171SOPE   HN119280   1.012   1.144   6.134  0.2566  0.4649  0.4919
  171SOPE   HN219281   0.858   1.215   6.126 -2.2828 -1.0768  1.8943
  171SOPE   HN319282   0.969   1.282   6.224  1.5999  0.1503 -2.7788
  171SOPE   C1219283   0.898   1.105   6.302 -0.7636  0.0163  0.0505
  171SOPE  H12A19284   0.989   1.071   6.356 -0.1118  1.1923 -0.2845
  171SOPE  H12B19285   0.856   1.013   6.257  2.4241 -2.5326  1.8177
  171SOPE   C1119286   0.786   1.162   6.389  0.1234  0.3683  0.3779
  171SOPE  H11A19287   0.829   1.257   6.428  3.0958 -0.6384 -0.2256
  171SOPE  H11B19288   0.760   1.103   6.480  0.2029  0.8920  0.7447
  171SOPE     P19289   0.557   1.279   6.348 -0.0416 -0.2470  0.3310
  171SOPE   O1319290   0.507   1.245   6.482 -0.5449  0.4236 -0.0585
  171SOPE   O1419291   0.461   1.293   6.239 -0.5855  0.1011 -0.0062
  171SOPE   O1219292   0.672   1.179   6.301 -0.2744  0.3267  0.2391
  171SOPE   O1119293   0.621   1.423   6.362 -0.4640 -0.0075 -0.4938
  171SOPE    C119294   0.541   1.533   6.402  0.0004  0.2319  0.1704
  171SOPE    HA19295   0.476   1.503   6.487 -0.0896 -2.2400 -0.7000
  171SOPE    HB19296   0.476   1.559   6.316  1.1694 -0.4903 -0.9728
  171SOPE    C219297   0.628   1.663   6.420 -0.5127  0.6946  0.8243
  171SOPE    HS19298   0.672   1.682   6.320  0.4261 -0.8248  0.9020
  171SOPE   O2119299   0.737   1.636   6.511 -0.2184 -0.5077 -0.4333
  171SOPE   C2119300   0.839   1.724   6.510 -0.1458 -1.0602  0.5964
  171SOPE   O2219301   0.840   1.822   6.436 -0.4975 -0.3042  0.2757
  171SOPE   C2219302   0.957   1.663   6.592 -0.5155  0.7258  0.1501
  171SOPE   H2R19303   1.002   1.580   6.534 -2.4200 -0.6664  0.5942
  171SOPE   H2S19304   0.912   1.622   6.685 -0.0350  2.2287  1.0918
  171SOPE    C319305   0.538   1.779   6.465  0.4413 -0.1572 -0.3712
  171SOPE    HX19306   0.472   1.811   6.382 -1.2325 -0.9479  0.6000
  171SOPE    HY19307   0.599   1.871   6.480  0.2722 -0.0341 -0.4419
  171SOPE   O3119308   0.468   1.731   6.590  1.0192 -0.0523  0.1130
  171SOPE   C3119309   0.534   1.752   6.700 -0.4858 -0.3174  0.4629
  171SOPE   O3219310   0.639   1.818   6.706 -0.4443 -0.4879 -0.0843
  171SOPE   C3219311   0.444   1.704   6.821  0.4478  0.7445  0.2643
  171SOPE   H2X19312   0.390   1.614   6.784 -0.5781  1.6063 -0.4171
  171SOPE   H2Y19313   0.364   1.780   6.832 -1.0013 -0.8926  1.6887
  171SOPE   C2319314   1.055   1.781   6.627 -0.3823  0.0596 -0.7843
  171SOPE   H3R19315   1.089   1.826   6.532 -2.2515 -0.5814 -1.8041
  171SOPE   H3S19316   1.139   1.741   6.688 -0.7934 -0.4579 -0.5518
  171SOPE   C2419317   0.993   1.891   6.724  0.5850  0.2540  0.8425
  171SOPE   H4R19318   1.074   1.968   6.730 -0.9839  2.0607  0.1209
  171SOPE   H4S19319   0.906   1.944   6.678  2.0392  2.2694  0.2512
  171SOPE   C2519320   0.960   1.842   6.863 -0.0417  0.5364 -0.1354
  171SOPE   H5R19321   0.900   1.749   6.854  1.6286 -0.7798  1.4693
  171SOPE   H5S19322   1.053   1.815   6.917 -0.2532  0.7469  0.3498
  171SOPE   C2619323   0.883   1.935   6.957  1.1682  0.2058 -0.0190
  171SOPE   H6R19324   0.928   2.036   6.947  1.3189  0.0753 -0.6842
  171SOPE   H6S19325   0.777   1.933   6.925  0.3653  0.9374  2.3932
  171SOPE   C2719326   0.897   1.875   7.101 -0.1743 -0.2212 -0.6068
  171SOPE   H7R19327   0.808   1.911   7.157  1.6585  0.3136  2.1918
  171SOPE   H7S19328   0.889   1.765   7.091  2.5087 -0.5166 -0.2995
  171SOPE   C2819329   1.023   1.916   7.175  0.2874  0.1021 -0.3401
  171SOPE   H8R19330   1.117   1.894   7.120  1.3258 -0.2205  1.4819
  171SOPE   H8S19331   1.021   2.027   7.178 -0.3657  0.0701  1.5919
  171SOPE   C2919332   1.048   1.855   7.303  0.2924  0.2536 -0.4552
  171SOPE   H9119333   1.105   1.761   7.301 -1.5452 -1.0065  1.5158
  171SOPE  C21019334   0.997   1.886   7.421 -0.4307  0.0857 -0.1069
  171SOPE  H10119335   1.044   1.834   7.506 -0.8046 -0.9297 -0.5079
  171SOPE  C21119336   0.907   2.001   7.450 -0.7308 -0.0509  0.8371
  171SOPE  H11R19337   0.813   1.957   7.490 -1.3261  1.4792  1.1847
  171SOPE  H11S19338   0.875   2.045   7.353 -0.5417 -2.5496 -0.4441
  171SOPE  C21219339   0.965   2.112   7.531  0.2842 -0.4796  0.0153
  171SOPE  H12R19340   0.890   2.193   7.549 -0.1892 -0.8214 -0.3886
  171SOPE  H12S19341   1.047   2.166   7.479 -0.5279  1.1557  0.3361
  171SOPE  C21319342   1.002   2.076   7.677 -0.4660 -0.1931  0.2774
  171SOPE  H13R19343   1.009   2.177   7.722  0.4981  0.2616 -0.8506
  171SOPE  H13S19344   1.103   2.031   7.670  0.0838  0.7276  1.6990
  171SOPE  C21419345   0.900   1.983   7.756 -0.2637  0.3051  0.2925
  171SOPE  H14R19346   0.868   1.891   7.704  1.0402 -0.5526  0.9526
  171SOPE  H14S19347   0.806   2.033   7.788 -2.1839 -3.4395  0.9854
  171SOPE  C21519348   0.960   1.934   7.896  0.1959  0.3470 -0.5645
  171SOPE  H15R19349   0.987   2.011   7.972 -0.3825  0.9516 -0.9629
  171SOPE  H15S19350   1.053   1.877   7.877 -0.1936 -0.7496  0.6859
  171SOPE  C21619351   0.855   1.847   7.962 -0.2012  0.0378  0.4353
  171SOPE  H16R19352   0.834   1.759   7.897 -1.2035 -0.0932  0.9236
  171SOPE  H16S19353   0.756   1.897   7.969 -0.5312 -0.6192  0.5867
  171SOPE  C21719354   0.900   1.801   8.099  0.0206  0.2511 -0.4207
  171SOPE  H17R19355   1.005   1.773   8.076  0.0046  2.0160 -3.1012
  171SOPE  H17S19356   0.851   1.709   8.137 -3.2577  1.7630 -0.6490
  171SOPE  C21819357   0.887   1.912   8.206 -0.3452  0.2871  0.2542
  171SOPE  H18R19358   0.783   1.932   8.241 -0.7612 -0.5626 -0.4419
  171SOPE  H18S19359   0.938   2.007   8.179  0.9231 -0.0972  1.2440
  171SOPE  H18T19360   0.936   1.868   8.295  1.4996  0.3111 -0.7011
  171SOPE   C3319361   0.518   1.662   6.945 -0.1464  0.8177  0.7911
  171SOPE   H3X19362   0.627   1.681   6.936 -0.2829  1.2035 -0.1637
  171SOPE   H3Y19363   0.514   1.552   6.956  1.8223  0.7540  1.3161
  171SOPE   C3419364   0.473   1.732   7.073  0.3951 -0.3183  0.0029
  171SOPE   H4X19365   0.365   1.708   7.083  0.5060 -0.2753  1.5216
  171SOPE   H4Y19366   0.485   1.841   7.054  1.8565 -0.5235 -0.3536
  171SOPE   C3519367   0.546   1.691   7.200 -0.1816 -0.0882 -0.5023
  171SOPE   H5X19368   0.647   1.738   7.203 -0.7984  1.4171 -1.8349
  171SOPE   H5Y19369   0.544   1.581   7.215  0.1704 -0.2563 -1.6695
  171SOPE   C3619370   0.464   1.756   7.319  0.6142 -0.6852  0.3119
  171SOPE   H6X19371   0.363   1.713   7.333  0.8890 -0.4378  3.8194
  171SOPE   H6Y19372   0.459   1.866   7.309  3.9424 -0.4969 -0.4172
  171SOPE   C3719373   0.537   1.737   7.458  0.4212 -0.0739 -0.4984
  171SOPE   H7X19374   0.639   1.780   7.464 -0.5518  2.1936  1.5484
  171SOPE   H7Y19375   0.557   1.630   7.480 -1.0747  0.1627  2.5729
  171SOPE   C3819376   0.455   1.790   7.582 -0.5422 -0.3911 -0.4526
  171SOPE   H8X19377   0.489   1.732   7.670 -0.0874  0.0394 -0.3363
  171SOPE   H8Y19378   0.346   1.770   7.570 -0.3574 -1.6052 -0.2712
  171SOPE   C3919379   0.466   1.941   7.607 -0.4192  0.3035  0.2311
  171SOPE   H9X19380   0.413   1.988   7.522 -0.9529 -0.9472 -0.1582
  171SOPE   H9Y19381   0.576   1.955   7.596 -0.0651 -1.0711  1.6381
  171SOPE  C31019382   0.412   2.001   7.740  0.4078 -0.2413  0.1417
  171SOPE  H10X19383   0.308   1.964   7.745  0.3250 -0.3122 -1.4982
  171SOPE  H10Y19384   0.421   2.111   7.739  1.0879 -0.2889  0.3836
  171SOPE  C31119385   0.488   1.962   7.862  0.2520  0.1994 -0.5678
  171SOPE  H11X19386   0.592   2.002   7.855  0.4006 -0.4595 -3.0046
  171SOPE  H11Y19387   0.499   1.852   7.851 -1.0665  0.0855 -0.9049
  171SOPE  C31219388   0.415   1.987   8.004 -0.9446 -0.3532  0.3731
  171SOPE  H12X19389   0.316   1.939   8.012 -1.4468  0.6331  0.2446
  171SOPE  H12Y19390   0.391   2.096   8.003  0.4405 -0.0276  0.2100
  171SOPE  C31319391   0.496   1.969   8.132 -0.0324  0.2172  0.0112
  171SOPE  H13X19392   0.587   2.034   8.125 -0.2139  0.5281  0.4476
  171SOPE  H13Y19393   0.527   1.862   8.131  1.9339  0.7197 -2.4511
  171SOPE  C31419394   0.415   2.009   8.253 -0.2645  0.2032  0.4422
  171SOPE  H14X19395   0.328   1.940   8.261  0.1070 -0.1831  1.2305
  171SOPE  H14Y19396   0.372   2.112   8.246 -1.5677 -0.3810 -0.6400
  171SOPE  C31519397   0.514   1.989   8.380  0.2219  0.5877 -0.2873
  171SOPE  H15X19398   0.603   2.055   8.364  0.1246  1.4664  2.3638
  171SOPE  H15Y19399   0.552   1.885   8.384 -0.3301  0.4342  2.1148
  171SOPE  C31619400   0.450   2.022   8.520 -0.7528 -0.1061  0.2195
  171SOPE  H16X19401   0.515   2.002   8.608  0.1608 -2.6279 -0.9246
  171SOPE  H16Y19402   0.364   1.954   8.539 -0.4451 -0.3830  0.6652
  171SOPE  C31719403   0.411   2.170   8.539  0.4243  0.2113 -0.9377
  171SOPE  H17X19404   0.331   2.198   8.467  1.1120  4.0492 -0.4243
  171SOPE  H17Y19405   0.495   2.238   8.514  0.4197  0.1132 -1.2211
  171SOPE  C31819406   0.369   2.211   8.686 -0.2765 -0.0572  0.9450
  171SOPE  H18X19407   0.352   2.319   8.707 -0.1945 -0.2953  2.3342
  171SOPE  H18Y19408   0.441   2.165   8.757  3.1456  1.2466 -1.3951
  171SOPE  H18Z19409   0.271   2.167   8.711 -0.7860  0.3569 -0.2454
  172SOPE     N19410   3.624   1.796   6.199 -0.1876  0.0566 -0.6058
  172SOPE   HN119411   3.570   1.840   6.122  0.6959  1.6889 -0.3512
  172SOPE   HN219412   3.585   1.825   6.292 -0.4575 -1.8481 -0.0949
  172SOPE   HN319413   3.713   1.850   6.199 -0.0490 -0.0621  1.4475
  172SOPE   C1219414   3.633   1.646   6.192 -0.4873 -0.3282  0.1223
  172SOPE  H12A19415   3.707   1.622   6.112 -0.1073 -0.4025  0.4947
  172SOPE  H12B19416   3.531   1.604   6.181 -1.5342  1.4029  2.4486
  172SOPE   C1119417   3.693   1.602   6.330  0.2596 -0.3665  0.1974
  172SOPE  H11A19418   3.697   1.491   6.332  1.4770 -0.3752 -1.3571
  172SOPE  H11B19419   3.614   1.622   6.406 -0.5411  0.4537 -0.8384
  172SOPE     P19420   3.955   1.598   6.345 -0.0713 -0.3404  0.3280
  172SOPE   O1319421   4.057   1.695   6.291  0.5874  0.0795 -0.0432
  172SOPE   O1419422   3.948   1.471   6.273  0.6615  0.4690 -0.5862
  172SOPE   O1219423   3.817   1.667   6.362 -0.1282 -0.3553 -0.4593
  172SOPE   O1119424   3.996   1.556   6.490 -0.0670 -0.2111 -0.0411
  172SOPE    C119425   3.916   1.497   6.582  0.6245  0.0796 -0.0272
  172SOPE    HA19426   3.967   1.402   6.609  1.2484  1.0411  2.5025
  172SOPE    HB19427   3.813   1.482   6.544  1.0386 -0.3986 -1.0047
  172SOPE    C219428   3.914   1.566   6.723 -0.5543 -0.5203  0.0593
  172SOPE    HS19429   3.894   1.486   6.797 -2.4613  0.4847  0.7224
  172SOPE   O2119430   3.820   1.675   6.735  0.0535 -0.0684  0.5473
  172SOPE   C2119431   3.701   1.630   6.741  0.1669  0.2891  0.2236
  172SOPE   O2219432   3.667   1.512   6.746 -0.2085  0.6804 -0.5886
  172SOPE   C2219433   3.604   1.750   6.755 -0.3558  0.1561 -0.4178
  172SOPE   H2R19434   3.517   1.733   6.687  0.2228 -0.8511 -0.9356
  172SOPE   H2S19435   3.654   1.843   6.723 -1.0923  1.0970  1.0581
  172SOPE    C319436   4.051   1.627   6.756 -0.5457  0.3577  0.7348
  172SOPE    HX19437   4.067   1.709   6.684 -0.4315 -0.3540 -0.0625
  172SOPE    HY19438   4.131   1.552   6.735 -1.2981 -0.4711  0.7805
  172SOPE   O3119439   4.058   1.666   6.897  0.1723 -0.2413  0.5356
  172SOPE   C3119440   4.020   1.795   6.920  0.0175 -0.2907 -0.6395
  172SOPE   O3219441   4.018   1.885   6.840 -0.0141 -0.4473 -0.1011
  172SOPE   C3219442   4.014   1.803   7.075 -0.3592 -0.6229  0.4982
  172SOPE   H2X19443   4.107   1.751   7.106 -0.0930 -0.3819  0.1218
  172SOPE   H2Y19444   3.929   1.742   7.113  0.1088 -0.5126  1.7399
  172SOPE   C2319445   3.560   1.768   6.901 -0.1953 -0.4418 -0.1488
  172SOPE   H3R19446   3.513   1.868   6.905  1.9588  0.5762  1.5852
  172SOPE   H3S19447   3.647   1.770   6.969 -0.3159  0.4697 -0.0096
  172SOPE   C2419448   3.460   1.672   6.951  0.1778  0.6790  0.1163
  172SOPE   H4R19449   3.384   1.656   6.872  0.2662  2.4374 -0.3682
  172SOPE   H4S19450   3.509   1.578   6.983  1.4173  1.2019 -0.1892
  172SOPE   C2519451   3.380   1.717   7.078  0.1278  0.0609 -0.2146
  172SOPE   H5R19452   3.344   1.819   7.053  0.3941  0.2042 -0.0256
  172SOPE   H5S19453   3.316   1.633   7.111  1.5719 -0.6544  0.8651
  172SOPE   C2619454   3.474   1.742   7.201  0.6035  0.1958  0.7385
  172SOPE   H6R19455   3.547   1.822   7.176  2.3342 -0.0532  4.4533
  172SOPE   H6S19456   3.414   1.796   7.277 -0.1388 -0.0489  0.3436
  172SOPE   C2719457   3.539   1.612   7.259  0.7734 -0.8795  0.6399
  172SOPE   H7R19458   3.468   1.526   7.259  1.2629 -1.2963  1.1219
  172SOPE   H7S19459   3.617   1.583   7.184  0.2976  2.6183 -1.4064
  172SOPE   C2819460   3.597   1.641   7.403  0.6386  0.1465 -0.2681
  172SOPE   H8R19461   3.664   1.558   7.432  1.2548  0.3795 -1.0005
  172SOPE   H8S19462   3.659   1.733   7.397 -0.3180  0.8282 -0.0962
  172SOPE   C2919463   3.484   1.665   7.501 -0.4272  0.5216  0.3337
  172SOPE   H9119464   3.391   1.709   7.463  0.3948  0.6700 -1.6123
  172SOPE  C21019465   3.492   1.634   7.633 -0.2799  0.1188 -0.0155
  172SOPE  H10119466   3.412   1.673   7.698 -1.8860 -2.4557 -0.3202
  172SOPE  C21119467   3.606   1.579   7.716  0.1184  0.2601 -0.2214
  172SOPE  H11R19468   3.699   1.612   7.664 -0.8124  0.6215 -1.7279
  172SOPE  H11S19469   3.599   1.469   7.719 -1.6433  0.3301 -0.5896
  172SOPE  C21219470   3.622   1.626   7.860 -0.2530  0.1625  0.3977
  172SOPE  H12R19471   3.613   1.736   7.872  0.9374  0.2079  1.0531
  172SOPE  H12S19472   3.724   1.603   7.897 -0.5234 -0.0397  1.0263
  172SOPE  C21319473   3.527   1.554   7.961  0.0899 -0.4898  0.3776
  172SOPE  H13R19474   3.429   1.536   7.913  0.2766  0.6198 -0.4619
  172SOPE  H13S19475   3.501   1.605   8.057  0.4384  0.5715 -0.0823
  172SOPE  C21419476   3.574   1.413   8.010 -0.1770  0.6524 -0.0400
  172SOPE  H14R19477   3.591   1.355   7.917 -0.0251 -0.0386  0.4093
  172SOPE  H14S19478   3.489   1.360   8.059 -0.0833 -1.2447 -1.7787
  172SOPE  C21519479   3.716   1.406   8.071 -0.1676 -0.7188  0.1399
  172SOPE  H15R19480   3.786   1.447   7.994 -2.6205  3.7331 -0.0795
  172SOPE  H15S19481   3.745   1.299   8.077  0.7488 -0.5903 -1.3091
  172SOPE  C21619482   3.737   1.474   8.203  0.7680 -0.0894 -0.3502
  172SOPE  H16R19483   3.669   1.422   8.273  0.3727  0.1152 -0.5832
  172SOPE  H16S19484   3.722   1.584   8.207 -0.0862 -0.2096 -0.2481
  172SOPE  C21719485   3.868   1.438   8.269 -0.0955 -0.3207 -0.0040
  172SOPE  H17R19486   3.870   1.327   8.270  1.0437 -0.3221  1.9885
  172SOPE  H17S19487   3.878   1.470   8.375 -0.1638 -3.3381  0.9966
  172SOPE  C21819488   3.995   1.481   8.180  0.1329 -0.4043 -0.4991
  172SOPE  H18R19489   4.084   1.441   8.233  0.0896 -1.4612 -1.1943
  172SOPE  H18S19490   3.994   1.592   8.174  1.0372 -0.2863  1.0041
  172SOPE  H18T19491   3.992   1.428   8.082  1.0872  0.2361 -0.8874
  172SOPE   C3319492   4.021   1.953   7.134  0.4173 -0.0671 -0.0731
  172SOPE   H3X19493   3.925   2.009   7.134  0.8749  0.9111  2.6018
  172SOPE   H3Y19494   4.077   2.017   7.063 -0.1304  1.8893  1.1722
  172SOPE   C3419495   4.095   1.959   7.273 -0.1917 -0.5661  1.0789
  172SOPE   H4X19496   4.091   2.067   7.302  0.4546 -0.5246  1.0214
  172SOPE   H4Y19497   4.196   1.916   7.262 -0.6027 -1.5991  1.2019
  172SOPE   C3519498   4.019   1.883   7.378 -0.1998  1.0197  0.7561
  172SOPE   H5X19499   4.030   1.775   7.358  1.1758  1.5683 -2.0096
  172SOPE   H5Y19500   3.913   1.915   7.365 -0.6835 -0.9288 -0.4557
  172SOPE   C3619501   4.076   1.921   7.515  0.5921  0.8124 -0.5408
  172SOPE   H6X19502   4.096   2.029   7.533 -1.0163  1.2932 -1.4454
  172SOPE   H6Y19503   4.174   1.870   7.529  2.7254  4.5572 -0.5390
  172SOPE   C3719504   3.981   1.858   7.626 -1.0712 -0.0347 -0.5919
  172SOPE   H7X19505   3.988   1.748   7.613  0.8583 -0.2894  1.7766
  172SOPE   H7Y19506   3.878   1.901   7.621 -0.8133  0.5067 -1.4420
  172SOPE   C3819507   4.026   1.888   7.768 -0.1960 -0.1378  0.0265
  172SOPE   H8X19508   4.054   1.995   7.777  1.1549 -0.3924 -0.7996
  172SOPE   H8Y19509   4.127   1.845   7.784 -0.2581  0.1101  1.1669
  172SOPE   C3919510   3.934   1.859   7.888  0.5999 -0.7039 -0.0415
  172SOPE   H9X19511   3.910   1.751   7.900 -0.5477 -0.3637  0.8993
  172SOPE   H9Y19512   3.837   1.913   7.883  0.8253 -0.3223 -0.3398
  172SOPE  C31019513   3.998   1.900   8.024  0.3924 -0.3032 -0.1889
  172SOPE  H10X19514   3.926   1.872   8.103  0.9742  0.8300  0.7707
  172SOPE  H10Y19515   4.002   2.011   8.025  0.5394 -0.3100  0.2392
  172SOPE  C31119516   4.135   1.842   8.059  0.1688 -0.0592 -0.2489
  172SOPE  H11X19517   4.211   1.900   8.001 -1.2668  1.3437 -0.8018
  172SOPE  H11Y19518   4.149   1.737   8.026  3.3709  0.0267  0.5199
  172SOPE  C31219519   4.184   1.859   8.203 -0.1695  0.2519 -0.5737
  172SOPE  H12X19520   4.272   1.794   8.221 -0.9698 -0.9584 -0.9302
  172SOPE  H12Y19521   4.101   1.827   8.269  0.1987  0.8327  0.1991
  172SOPE  C31319522   4.226   2.003   8.240 -0.0350  0.0135 -0.1683
  172SOPE  H13X19523   4.143   2.072   8.214  0.6500  0.8758 -0.0931
  172SOPE  H13Y19524   4.313   2.032   8.177  2.1007 -2.5325  1.3622
  172SOPE  C31419525   4.262   2.028   8.386 -0.0762  0.2628  0.1204
  172SOPE  H14X19526   4.351   1.963   8.402 -1.4763 -1.6239  0.5342
  172SOPE  H14Y19527   4.190   1.992   8.462 -0.4000 -0.2818 -0.4389
  172SOPE  C31519528   4.283   2.175   8.409 -0.6925  0.4255  0.5974
  172SOPE  H15X19529   4.185   2.224   8.429  0.1782  1.8636  1.5169
  172SOPE  H15Y19530   4.321   2.221   8.316 -0.2685  0.0170  0.5657
  172SOPE  C31619531   4.367   2.206   8.534  0.2313  0.2065 -0.2582
  172SOPE  H16X19532   4.372   2.317   8.533 -1.8926  0.3668  1.1545
  172SOPE  H16Y19533   4.469   2.164   8.527  0.3722  0.5195 -0.1061
  172SOPE  C31719534   4.301   2.159   8.670  0.1798  0.5617 -0.4465
  172SOPE  H17X19535   4.284   2.049   8.672  0.9540  0.4254  1.8358
  172SOPE  H17Y19536   4.199   2.202   8.672 -0.9216 -1.8773 -0.3761
  172SOPE  C31819537   4.371   2.196   8.799 -0.1948 -0.4121  0.1715
  172SOPE  H18X19538   4.397   2.304   8.798 -3.1153  0.4836  2.9092
  172SOPE  H18Y19539   4.463   2.137   8.817  1.6269  1.8389 -1.1761
  172SOPE  H18Z19540   4.302   2.169   8.882  1.1106 -1.3935  0.9656
  173SAPI   C1219541   5.038   5.615  11.075 -0.2598  0.2852 -0.4726
  173SAPI    H219542   5.149   5.624  11.073 -0.0769 -1.5914 -1.1310
  173SAPI    O219543   5.018   5.475  11.047 -0.1356  1.2150  0.0120
  173SAPI   HO219544   5.098   5.433  11.014 -0.9618  1.6476 -2.8275
  173SAPI   C1319545   4.981   5.650  11.219  0.0831  0.3948 -0.2581
  173SAPI    H319546   5.008   5.753  11.249 -2.1898  2.0178 -3.2306
  173SAPI    O319547   5.039   5.568  11.325  0.5294 -0.7810 -0.2174
  173SAPI   HO319548   5.007   5.480  11.304 -0.5575 -0.1075 -1.4684
  173SAPI   C1419549   4.829   5.651  11.212  0.0993 -0.4721 -0.4223
  173SAPI    H419550   4.783   5.553  11.188 -1.6392 -0.2580  1.7104
  173SAPI    O419551   4.772   5.685  11.343  0.2062  0.1043  0.6835
  173SAPI   HO419552   4.732   5.605  11.379 -1.1456  1.1183  1.5186
  173SAPI   C1519553   4.769   5.730  11.096  0.6380 -0.1121 -0.6270
  173SAPI    H519554   4.795   5.835  11.122  1.0284 -0.8376  2.1113
  173SAPI    O519555   4.625   5.725  11.087 -0.0052  0.2139  0.2950
  173SAPI   HO519556   4.594   5.637  11.064  0.6209 -1.0400  3.6461
  173SAPI   C1619557   4.833   5.703  10.965  0.8560 -0.0251  0.3176
  173SAPI    H619558   4.814   5.597  10.938 -0.8740  0.6609 -1.3629
  173SAPI    O619559   4.785   5.795  10.863 -0.6002 -0.2909 -1.0078
  173SAPI   HO619560   4.689   5.791  10.858 -0.5271 -1.0450 -3.2594
  173SAPI   C1119561   4.983   5.711  10.971 -0.3734 -0.1945 -0.6348
  173SAPI    H119562   5.007   5.816  10.996 -1.4114 -0.1153  0.0800
  173SAPI     P19563   5.163   5.729  10.766  0.0620  0.1350 -0.0512
  173SAPI   O1319564   5.226   5.617  10.696 -0.4041  0.2227  0.5205
  173SAPI   O1419565   5.247   5.830  10.844 -0.6224  1.5335 -0.2071
  173SAPI   O1219566   5.033   5.667  10.848 -0.6242  0.4667 -0.6619
  173SAPI   O1119567   5.073   5.805  10.664 -0.2732  0.0056  0.5526
  173SAPI    C119568   5.100   5.931  10.602  0.0938  0.2245  0.0529
  173SAPI    HA19569   5.040   6.017  10.638 -0.2815  0.7031 -1.6312
  173SAPI    HB19570   5.205   5.963  10.620  1.1761 -3.2648  0.6911
  173SAPI    C219571   5.085   5.937  10.439  0.0517 -0.4209 -0.7077
  173SAPI    HS19572   4.976   5.926  10.421  0.0068  0.1894 -0.8134
  173SAPI   O2119573   5.160   5.834  10.378  0.7439 -0.1530  0.5051
  173SAPI   C2119574   5.099   5.713  10.373  0.6302 -1.0466  0.1723
  173SAPI   O2219575   4.983   5.692  10.404 -0.0327 -0.6635  0.4429
  173SAPI   C2219576   5.184   5.600  10.316  0.0527  0.4742 -0.0702
  173SAPI   H2R19577   5.232   5.561  10.408 -0.8114 -0.3864  0.0341
  173SAPI   H2S19578   5.119   5.533  10.256  0.1328  0.4400 -0.1168
  173SAPI    C319579   5.139   6.069  10.381  0.2422  0.2073 -0.9492
  173SAPI    HX19580   5.241   6.074  10.423 -1.0455  0.6898  2.4367
  173SAPI    HY19581   5.082   6.154  10.423  1.1305  0.0174  0.7462
  173SAPI   O3119582   5.128   6.072  10.236 -0.6262  0.4669 -0.3661
  173SAPI   C3119583   5.244   6.037  10.168  0.6355 -0.7239 -0.2576
  173SAPI   O3219584   5.354   6.027  10.217  0.1011 -0.2535 -0.1022
  173SAPI   C3219585   5.208   6.010  10.027  0.5332  0.0873  0.1790
  173SAPI   H2X19586   5.146   6.097   9.997  0.9507  1.1273  2.1920
  173SAPI   H2Y19587   5.146   5.918  10.037  0.0365  0.5254  1.2517
  173SAPI   C2319588   5.303   5.635  10.224  0.4001  0.0267 -0.3394
  173SAPI   H3R19589   5.373   5.550  10.239 -1.9078 -1.6745  1.3740
  173SAPI   H3S19590   5.340   5.731  10.267 -1.9549 -0.4032  2.9882
  173SAPI   C2419591   5.273   5.651  10.074 -0.0666 -0.0622 -0.4208
  173SAPI   H4R19592   5.350   5.712  10.023  1.2152 -1.1852  0.1310
  173SAPI   H4S19593   5.179   5.711  10.070  2.3983  4.1778 -0.9676
  173SAPI   C2519594   5.256   5.521   9.996 -0.1045 -0.2597 -0.4148
  173SAPI   H5R19595   5.224   5.435  10.057  0.1677  0.1986  0.3985
  173SAPI   C2619596   5.275   5.506   9.861 -0.4344 -0.5596 -0.3586
  173SAPI   H6R19597   5.275   5.403   9.823  0.4426  0.1083 -2.3076
  173SAPI   C2719598   5.303   5.618   9.763  0.2032  0.6219  0.4542
  173SAPI   H7R19599   5.215   5.685   9.746  0.4021  1.0031  0.9130
  173SAPI   H7S19600   5.307   5.556   9.670 -1.1734  1.8940 -0.5126
  173SAPI   C2819601   5.432   5.690   9.785  1.1727 -0.5987 -0.1384
  173SAPI   H8R19602   5.476   5.676   9.885 -0.4577 -1.1416  0.5276
  173SAPI   C2919603   5.492   5.771   9.694 -0.0149 -0.0729  0.1788
  173SAPI   H9R19604   5.590   5.814   9.717  0.8469 -1.1050 -1.3812
  173SAPI  C21019605   5.442   5.792   9.557 -0.1363 -0.1038 -0.5095
  173SAPI  H10R19606   5.332   5.774   9.550  0.0300 -2.8320  1.8915
  173SAPI  H10S19607   5.485   5.721   9.484  1.8430 -0.9490  1.3778
  173SAPI  C21119608   5.469   5.932   9.506 -0.2921  0.2649 -0.0334
  173SAPI  H11R19609   5.454   6.011   9.581  0.6765 -0.2485  0.7250
  173SAPI  C21219610   5.514   5.962   9.380  0.0410 -0.4215 -0.0609
  173SAPI  H12R19611   5.542   6.064   9.351  2.5064 -1.1785 -0.6415
  173SAPI  C21319612   5.550   5.871   9.266 -0.8077 -0.8923 -0.2660
  173SAPI  H13R19613   5.624   5.801   9.311 -1.8826 -2.9885 -1.5359
  173SAPI  H13S19614   5.593   5.926   9.180 -0.1233  0.4241  0.8868
  173SAPI  C21419615   5.440   5.790   9.208  0.0851  0.2504  0.8625
  173SAPI  H14R19616   5.357   5.780   9.280 -0.1450  1.2715  0.7479
  173SAPI  C21519617   5.436   5.734   9.091 -0.4558  0.2855  0.1983
  173SAPI  H15R19618   5.359   5.660   9.063  0.8442 -1.6331  1.4604
  173SAPI  C21619619   5.549   5.745   8.991  0.0525 -0.3236  0.0358
  173SAPI  H16R19620   5.619   5.827   9.018  2.3764 -2.0619 -0.2893
  173SAPI  H16S19621   5.511   5.771   8.889 -0.3884 -1.3713 -0.0780
  173SAPI  C21719622   5.637   5.619   8.986  0.0158 -0.7988  0.2728
  173SAPI  H17R19623   5.711   5.640   8.906  2.2374  1.0107  2.6115
  173SAPI  H17S19624   5.570   5.536   8.956  1.4170 -1.1594 -2.0633
  173SAPI  C21819625   5.704   5.584   9.122  1.0037 -0.4949 -0.0442
  173SAPI  H18R19626   5.630   5.583   9.205 -1.8338  2.8645 -2.2701
  173SAPI  H18S19627   5.759   5.678   9.145  0.7063  0.1520 -1.7998
  173SAPI  C21919628   5.794   5.460   9.121 -0.7441  0.2476 -0.0726
  173SAPI  H19R19629   5.864   5.464   9.034 -0.4678 -0.5298  0.1103
  173SAPI  H19S19630   5.744   5.361   9.121  0.6028 -0.4536  0.3968
  173SAPI  C22019631   5.884   5.471   9.240  0.6860 -0.1738  0.2420
  173SAPI  H20R19632   5.962   5.547   9.217  0.7349 -0.3570 -0.1966
  173SAPI  H20S19633   5.938   5.375   9.248  1.2899  0.1862  0.6068
  173SAPI  H20T19634   5.840   5.494   9.340  0.3616 -0.5509  0.1855
  173SAPI   C3319635   5.330   5.994   9.931  0.6345  0.3622  0.1410
  173SAPI   H3X19636   5.289   5.952   9.836 -1.5942  2.0337  0.2902
  173SAPI   H3Y19637   5.406   5.920   9.965 -0.2528 -0.9463 -0.5969
  173SAPI   C3419638   5.404   6.126   9.890  0.5049  0.4420  0.0282
  173SAPI   H4X19639   5.513   6.114   9.868  0.0547 -0.4701 -2.0376
  173SAPI   H4Y19640   5.394   6.200   9.971 -1.0380 -0.5332  0.7581
  173SAPI   C3519641   5.338   6.201   9.772 -0.3459 -0.6257 -0.1995
  173SAPI   H5X19642   5.246   6.248   9.812  1.7006  2.4945  1.1544
  173SAPI   H5Y19643   5.317   6.114   9.706 -0.3000  0.4563 -1.6910
  173SAPI   C3619644   5.435   6.294   9.693  0.3762  0.7061 -0.3029
  173SAPI   H6X19645   5.523   6.236   9.660 -1.6506 -2.7044 -0.1730
  173SAPI   H6Y19646   5.469   6.380   9.754  2.4160  0.1809 -0.6251
  173SAPI   C3719647   5.366   6.370   9.575  0.9625 -0.3020 -0.1151
  173SAPI   H7X19648   5.268   6.406   9.613  0.3093  0.2721 -2.1673
  173SAPI   H7Y19649   5.335   6.310   9.487  2.5254 -0.2885 -0.7084
  173SAPI   C3819650   5.448   6.494   9.539  0.5605  0.7097  0.9572
  173SAPI   H8X19651   5.553   6.467   9.512  1.2188  2.3424  1.7507
  173SAPI   H8Y19652   5.455   6.572   9.618  0.9616  1.8172 -0.1330
  173SAPI   C3919653   5.387   6.551   9.404 -0.3452 -0.3517 -0.6340
  173SAPI   H9X19654   5.276   6.547   9.408 -0.4945  2.7666  1.3012
  173SAPI   H9Y19655   5.418   6.483   9.321 -1.3518 -0.2321 -1.1234
  173SAPI  C31019656   5.437   6.694   9.372  0.5697  0.4826 -0.4892
  173SAPI  H10X19657   5.544   6.705   9.400  0.4344  1.1652 -0.2146
  173SAPI  H10Y19658   5.391   6.772   9.437 -0.2327 -1.1415  0.9757
  173SAPI  C31119659   5.430   6.725   9.227  0.2754 -0.1026 -0.6245
  173SAPI  H11X19660   5.426   6.836   9.227 -1.3709 -0.1263 -1.6248
  173SAPI  H11Y19661   5.338   6.700   9.170  0.1219  0.9207 -0.8350
  173SAPI  C31219662   5.543   6.681   9.135 -0.0246 -0.1518 -0.2364
  173SAPI  H12X19663   5.541   6.570   9.128  1.6365 -0.1128 -2.4867
  173SAPI  H12Y19664   5.640   6.706   9.184  0.5495 -1.0209 -0.8972
  173SAPI  C31319665   5.531   6.733   8.994  0.3041  0.3541  0.3882
  173SAPI  H13X19666   5.494   6.837   8.996 -0.7743  0.0564 -1.5696
  173SAPI  H13Y19667   5.453   6.670   8.946 -0.4247  1.2086  0.4416
  173SAPI  C31419668   5.663   6.713   8.907 -0.5436  0.1114 -0.0690
  173SAPI  H14X19669   5.693   6.607   8.921  2.3948  0.9170  0.4089
  173SAPI  H14Y19670   5.744   6.773   8.956 -1.8246  2.1809 -0.3489
  173SAPI  C31519671   5.656   6.760   8.760 -0.2398  0.0629  0.2867
  173SAPI  H15X19672   5.680   6.869   8.757  0.2774  0.0352  2.0508
  173SAPI  H15Y19673   5.551   6.761   8.726 -0.2139  2.6098  0.0837
  173SAPI  C31619674   5.751   6.694   8.661  0.7699  1.1463 -0.4250
  173SAPI  H16X19675   5.714   6.704   8.557 -1.1917  0.4524  0.1537
  173SAPI  H16Y19676   5.744   6.587   8.687 -0.5991  1.2369 -0.3320
  173SAPI  C31719677   5.891   6.742   8.662 -0.3243  0.7782 -0.6653
  173SAPI  H17X19678   5.941   6.721   8.759 -0.7321  1.2709 -0.3490
  173SAPI  H17Y19679   5.909   6.849   8.641  0.2864  0.4975 -1.6832
  173SAPI  C31819680   5.971   6.665   8.557  0.3232  0.5250  0.0240
  173SAPI  H18X19681   5.932   6.702   8.460 -0.1321  1.1037  0.4231
  173SAPI  H18Y19682   5.950   6.556   8.560  0.8331  0.3900 -0.9285
  173SAPI  H18Z19683   6.078   6.692   8.568 -0.0089  3.2232 -2.3243
  174SAPI   C1219684   6.544   6.535  10.795 -0.7984  0.2332  0.5433
  174SAPI    H219685   6.531   6.598  10.886  1.4745  1.3363  0.1549
  174SAPI    O219686   6.669   6.460  10.807  0.8334 -0.2542 -0.7224
  174SAPI   HO219687   6.743   6.520  10.811  1.6873 -1.3481  1.4949
  174SAPI   C1319688   6.416   6.456  10.782  0.7397  0.4363  0.5040
  174SAPI    H319689   6.331   6.527  10.773  1.1081  0.9285  0.8047
  174SAPI    O319690   6.393   6.384  10.900  0.3465  0.6014 -0.5269
  174SAPI   HO319691   6.298   6.387  10.917  0.2825 -0.9863 -0.4751
  174SAPI   C1419692   6.415   6.367  10.656  0.1715  0.6548  0.7357
  174SAPI    H419693   6.507   6.305  10.663  0.2875  0.8477  0.9238
  174SAPI    O419694   6.298   6.280  10.646  0.3656  0.3743  0.6293
  174SAPI   HO419695   6.332   6.205  10.596 -1.3662 -0.1252  0.1375
  174SAPI   C1519696   6.431   6.458  10.533 -0.4145 -0.4540  0.0101
  174SAPI    H519697   6.348   6.532  10.525  1.0806  1.1706 -1.4540
  174SAPI    O519698   6.426   6.386  10.407 -0.0340 -0.0741 -0.4473
  174SAPI   HO519699   6.338   6.402  10.372  0.1115  0.2802 -0.6467
  174SAPI   C1619700   6.555   6.542  10.542 -0.2598  0.4104 -0.4557
  174SAPI    H619701   6.644   6.475  10.545 -1.7811 -1.6759  1.6191
  174SAPI    O619702   6.558   6.635  10.433  0.1985  0.5529 -0.1012
  174SAPI   HO619703   6.570   6.724  10.467 -1.3176  0.3852  0.9923
  174SAPI   C1119704   6.552   6.619  10.673  0.1404 -0.0885 -0.3512
  174SAPI    H119705   6.459   6.680  10.681 -1.4520 -2.1747 -1.8464
  174SAPI     P19706   6.665   6.871  10.676 -0.3938  0.3686 -0.3388
  174SAPI   O1319707   6.795   6.935  10.705  0.0296  0.7972  0.0741
  174SAPI   O1419708   6.548   6.918  10.751 -0.1834  0.1698  0.1005
  174SAPI   O1219709   6.673   6.710  10.685  0.1829  0.8346 -0.3745
  174SAPI   O1119710   6.621   6.876  10.529 -0.0313  0.5608  0.5389
  174SAPI    C119711   6.626   7.006  10.462  0.4497  1.0961  0.3437
  174SAPI    HA19712   6.533   7.066  10.473 -0.3705 -0.0272 -0.1953
  174SAPI    HB19713   6.701   7.075  10.507  0.5217  0.9392  0.4653
  174SAPI    C219714   6.672   7.000  10.316 -0.0220  0.0006  0.3947
  174SAPI    HS19715   6.680   7.100  10.268  1.3105  0.0909  0.7722
  174SAPI   O2119716   6.593   6.907  10.246 -0.6128 -0.0750  0.6313
  174SAPI   C2119717   6.471   6.951  10.208 -0.0936 -0.2969 -0.1473
  174SAPI   O2219718   6.428   7.057  10.242 -0.0641 -0.3151 -0.2641
  174SAPI   C2219719   6.388   6.850  10.120 -0.0767 -0.6213 -0.1079
  174SAPI   H2R19720   6.316   6.796  10.185 -0.5662 -0.5094 -0.5518
  174SAPI   H2S19721   6.334   6.924  10.056 -2.0244 -0.0739  2.0410
  174SAPI    C319722   6.815   6.948  10.307 -0.2214 -0.3255  0.0682
  174SAPI    HX19723   6.814   6.839  10.332  1.1500 -0.3184  0.2292
  174SAPI    HY19724   6.883   6.991  10.384  3.4576 -2.3994 -1.7306
  174SAPI   O3119725   6.874   6.972  10.181  0.5432 -0.4991 -0.2167
  174SAPI   C3119726   6.933   6.871  10.114 -0.7803 -0.6386  0.2712
  174SAPI   O3219727   6.957   6.757  10.150 -0.1428 -0.5193 -0.3317
  174SAPI   C3219728   6.950   6.926   9.969  0.2200  0.6485 -0.0088
  174SAPI   H2X19729   7.028   7.004   9.968  0.4184  0.4700 -1.7986
  174SAPI   H2Y19730   6.849   6.955   9.931 -0.6856 -1.4049  0.6759
  174SAPI   C2319731   6.479   6.761  10.024  0.4089 -0.6434 -0.5447
  174SAPI   H3R19732   6.414   6.700   9.958  1.5019 -2.7869  0.2621
  174SAPI   H3S19733   6.519   6.678  10.087 -1.7346 -1.1521  0.2328
  174SAPI   C2419734   6.590   6.829   9.938  0.1087  0.8115 -0.2237
  174SAPI   H4R19735   6.646   6.755   9.878 -0.7961  0.3012 -0.4578
  174SAPI   H4S19736   6.670   6.865  10.005  0.6762  1.2620 -1.1326
  174SAPI   C2519737   6.538   6.931   9.841  0.5047  0.0006 -0.0494
  174SAPI   H5R19738   6.525   7.034   9.875 -2.5489 -0.3675  0.1521
  174SAPI   C2619739   6.497   6.903   9.711  0.3949  0.6331  0.1602
  174SAPI   H6R19740   6.449   6.986   9.657 -2.4326 -1.8431 -1.4510
  174SAPI   C2719741   6.499   6.771   9.635  0.4883 -0.0183 -0.1716
  174SAPI   H7R19742   6.394   6.745   9.612  0.9502  0.1546 -2.8649
  174SAPI   H7S19743   6.551   6.699   9.702  0.4225  1.6309  1.7524
  174SAPI   C2819744   6.576   6.783   9.515 -0.2071 -0.0582  0.2129
  174SAPI   H8R19745   6.685   6.773   9.526  0.1136  1.2362 -1.3454
  174SAPI   C2919746   6.539   6.802   9.389  0.0190  0.1466 -0.8072
  174SAPI   H9R19747   6.620   6.808   9.316  0.4655 -0.5062 -0.3703
  174SAPI  C21019748   6.398   6.832   9.336  1.0167  0.3710 -0.3626
  174SAPI  H10R19749   6.394   6.941   9.316  0.2089  0.2434 -0.9095
  174SAPI  H10S19750   6.320   6.811   9.412  1.7722 -0.4433  0.2120
  174SAPI  C21119751   6.364   6.754   9.206 -0.6706 -0.1671 -0.8256
  174SAPI  H11R19752   6.301   6.665   9.220 -2.8181  1.5150  0.8676
  174SAPI  C21219753   6.390   6.791   9.078  0.1696  0.4407  0.2402
  174SAPI  H12R19754   6.379   6.717   8.997  1.4083  0.3651  0.1152
  174SAPI  C21319755   6.461   6.917   9.035  0.1767 -0.2829 -0.3317
  174SAPI  H13R19756   6.476   6.990   9.117  0.2417 -0.1733 -0.4405
  174SAPI  H13S19757   6.400   6.969   8.958 -1.7158 -1.6589  0.1667
  174SAPI  C21419758   6.595   6.875   8.980 -0.0227 -0.0027  0.0183
  174SAPI  H14R19759   6.674   6.879   9.057  0.5342  0.2793 -0.5611
  174SAPI  C21519760   6.627   6.849   8.855  0.0190  0.3094  0.3090
  174SAPI  H15R19761   6.734   6.832   8.837  0.1389 -0.0483  1.2779
  174SAPI  C21619762   6.541   6.857   8.731  0.4303  0.3988 -0.3245
  174SAPI  H16R19763   6.441   6.836   8.774 -0.5066  0.5908 -2.2978
  174SAPI  H16S19764   6.564   6.777   8.657 -0.5572  1.0513 -1.3537
  174SAPI  C21719765   6.533   6.991   8.660  0.4727  0.0045  0.3829
  174SAPI  H17R19766   6.512   7.072   8.734 -0.9366 -1.3286  1.5263
  174SAPI  H17S19767   6.443   6.980   8.596 -0.1260  1.1578  0.9881
  174SAPI  C21819768   6.653   7.033   8.570  0.2457 -0.0093  0.6106
  174SAPI  H18R19769   6.743   7.043   8.634  0.1935  0.4734  0.6132
  174SAPI  H18S19770   6.629   7.133   8.527 -1.5082 -1.2671 -1.5505
  174SAPI  C21919771   6.679   6.931   8.456  0.6060 -0.4873 -0.3164
  174SAPI  H19R19772   6.577   6.894   8.431 -0.4376  1.8010  0.3204
  174SAPI  H19S19773   6.727   6.841   8.499 -0.9706 -0.5282  1.4921
  174SAPI  C22019774   6.733   6.988   8.325  0.2768 -0.0757  0.0688
  174SAPI  H20R19775   6.719   6.907   8.250 -1.5840 -0.0665  0.3392
  174SAPI  H20S19776   6.840   7.015   8.333 -0.0451  0.9984  1.1259
  174SAPI  H20T19777   6.692   7.080   8.277  1.4700 -0.5029 -1.8651
  174SAPI   C3319778   6.998   6.811   9.877  0.1786 -0.5883 -0.5655
  174SAPI   H3X19779   6.938   6.718   9.886  0.6704 -0.8091  0.5606
  174SAPI   H3Y19780   7.100   6.781   9.909  0.0296 -0.6435 -0.1363
  174SAPI   C3419781   7.017   6.844   9.728  0.5634  0.1660  0.3085
  174SAPI   H4X19782   7.089   6.927   9.709  0.5810  0.4831  1.6027
  174SAPI   H4Y19783   6.917   6.871   9.689  0.6084 -0.3460 -0.1654
  174SAPI   C3519784   7.070   6.726   9.650  0.2706 -0.2494  0.1092
  174SAPI   H5X19785   7.003   6.638   9.650  1.8888 -1.6029  2.5153
  174SAPI   H5Y19786   7.160   6.684   9.700  1.4139  0.0102 -1.6552
  174SAPI   C3619787   7.111   6.758   9.501  0.0151  0.4844 -0.5306
  174SAPI   H6X19788   7.174   6.674   9.463 -0.1845  0.7009 -1.3421
  174SAPI   H6Y19789   7.166   6.854   9.510 -0.8550  0.9552 -0.1838
  174SAPI   C3719790   6.985   6.778   9.406 -0.8208 -0.0379  0.0835
  174SAPI   H7X19791   6.926   6.861   9.450 -0.6508  1.5483 -2.5024
  174SAPI   H7Y19792   6.940   6.680   9.433  0.8282 -1.2282 -1.2547
  174SAPI   C3819793   7.016   6.770   9.264  0.3405  0.0590 -0.1919
  174SAPI   H8X19794   6.926   6.727   9.214  0.3673 -0.5350  0.2667
  174SAPI   H8Y19795   7.103   6.702   9.254  1.9841  2.2646 -2.1336
  174SAPI   C3919796   7.070   6.902   9.205  0.3170 -0.3194 -0.1091
  174SAPI   H9X19797   7.166   6.926   9.255 -0.1431 -1.4091  1.3959
  174SAPI   H9Y19798   7.007   6.988   9.236  0.2867  0.8018 -3.0637
  174SAPI  C31019799   7.086   6.896   9.053  0.4415 -0.5112  0.4382
  174SAPI  H10X19800   6.994   6.856   9.005  0.8271 -0.4631 -0.3442
  174SAPI  H10Y19801   7.170   6.835   9.015  1.1153  0.7310 -0.1451
  174SAPI  C31119802   7.080   7.037   8.986 -0.0897  0.0538 -0.7522
  174SAPI  H11X19803   7.138   7.109   9.048 -1.0945 -0.0472  0.3560
  174SAPI  H11Y19804   6.972   7.064   8.980 -0.1951 -0.2986 -0.4869
  174SAPI  C31219805   7.119   7.031   8.837  0.1502  0.6468 -0.2846
  174SAPI  H12X19806   7.076   6.950   8.774 -0.2915  0.6870 -0.0412
  174SAPI  H12Y19807   7.229   7.038   8.826  0.3204  0.7843  1.2386
  174SAPI  C31319808   7.067   7.159   8.760  1.0895 -0.1957  0.1637
  174SAPI  H13X19809   7.121   7.252   8.788  0.1427  1.2274 -2.4151
  174SAPI  H13Y19810   6.957   7.167   8.769  1.0299 -0.6769 -0.0973
  174SAPI  C31419811   7.084   7.145   8.607  0.6771 -0.4487  0.2525
  174SAPI  H14X19812   7.024   7.059   8.571 -0.5788  0.0166  1.1675
  174SAPI  H14Y19813   7.187   7.117   8.579 -0.0653 -3.0130 -0.1934
  174SAPI  C31519814   7.053   7.280   8.531 -0.1936 -0.5651  0.0897
  174SAPI  H15X19815   7.140   7.349   8.541  0.0996 -0.6863 -1.3972
  174SAPI  H15Y19816   6.963   7.324   8.579  0.3455 -0.3333  0.9168
  174SAPI  C31619817   7.024   7.257   8.380 -0.0485  0.2635 -0.2797
  174SAPI  H16X19818   6.955   7.169   8.378 -0.5288  0.6491 -1.7461
  174SAPI  H16Y19819   7.113   7.225   8.323 -0.4450 -0.5732 -0.4477
  174SAPI  C31719820   6.956   7.380   8.312  0.0501 -0.2660  0.3275
  174SAPI  H17X19821   7.024   7.465   8.288 -0.5003  0.1302  0.1457
  174SAPI  H17Y19822   6.882   7.418   8.386  1.2147  0.0722  1.3405
  174SAPI  C31819823   6.880   7.340   8.182  0.1087 -0.4538  0.1428
  174SAPI  H18X19824   6.957   7.321   8.105 -1.1133 -3.6697 -0.4687
  174SAPI  H18Y19825   6.815   7.422   8.145  0.6906 -0.4708 -0.9473
  174SAPI  H18Z19826   6.825   7.243   8.190  0.9509 -1.2815 -2.8855
  175SAPI   C1219827   5.354   3.730   6.004  0.1789 -0.0667 -0.2345
  175SAPI    H219828   5.451   3.689   6.040  1.3634  2.9632  0.2717
  175SAPI    O219829   5.378   3.868   5.986 -0.3303  0.3697 -0.0281
  175SAPI   HO219830   5.461   3.891   6.028 -0.7837  2.4193 -0.1601
  175SAPI   C1319831   5.311   3.662   5.880 -0.6402  0.0322  0.5357
  175SAPI    H319832   5.307   3.553   5.905  0.9064 -0.4125 -0.9550
  175SAPI    O319833   5.406   3.679   5.771  0.2814 -0.5464 -0.1639
  175SAPI   HO319834   5.477   3.728   5.814  0.0939 -0.4247  0.0084
  175SAPI   C1419835   5.175   3.710   5.837 -0.2298 -0.0505  0.6211
  175SAPI    H419836   5.176   3.818   5.813 -0.9057  0.2288  1.7759
  175SAPI    O419837   5.140   3.651   5.708  0.1229 -0.2642 -0.2445
  175SAPI   HO419838   5.164   3.558   5.714 -1.4080 -0.6262  0.8263
  175SAPI   C1519839   5.075   3.681   5.940  0.2525 -0.5633 -0.5623
  175SAPI    H519840   5.074   3.573   5.968  2.0281 -0.2723  0.8149
  175SAPI    O519841   4.938   3.704   5.901  0.7146  0.2759 -0.1765
  175SAPI   HO519842   4.946   3.773   5.835  2.3813  2.0320  1.6913
  175SAPI   C1619843   5.109   3.751   6.065  0.3456  0.0061  0.0448
  175SAPI    H619844   5.105   3.860   6.041  1.8537  0.0572 -0.0402
  175SAPI    O619845   5.015   3.728   6.165 -0.0704  0.5393 -0.0739
  175SAPI   HO619846   5.072   3.745   6.240  0.2948 -1.1264  0.0539
  175SAPI   C1119847   5.247   3.710   6.113 -0.3292 -0.2811  0.0872
  175SAPI    H119848   5.238   3.601   6.133  0.2560 -0.2367  0.6000
  175SAPI     P19849   5.328   3.705   6.370 -0.5676 -0.0007 -0.2898
  175SAPI   O1319850   5.421   3.797   6.451  0.4292 -0.1126 -0.1719
  175SAPI   O1419851   5.386   3.575   6.330  0.2733 -0.2113 -0.6397
  175SAPI   O1219852   5.278   3.776   6.233 -0.1996  0.6547  1.0301
  175SAPI   O1119853   5.190   3.688   6.440 -0.2661 -0.2230 -0.0786
  175SAPI    C119854   5.123   3.792   6.516  0.6995  0.5567 -0.7796
  175SAPI    HA19855   5.162   3.895   6.500  0.7152  0.9241  1.2524
  175SAPI    HB19856   5.016   3.800   6.486  0.6879  0.5257 -0.7474
  175SAPI    C219857   5.120   3.763   6.669 -0.3722  0.5358 -0.7395
  175SAPI    HS19858   5.030   3.816   6.707 -0.3178  0.1715 -0.0886
  175SAPI   O2119859   5.245   3.806   6.739  0.4352  0.0986  0.2130
  175SAPI   C2119860   5.256   3.930   6.786 -0.8621  0.0788  0.1375
  175SAPI   O2219861   5.183   4.022   6.772 -0.3316 -0.5453 -0.2163
  175SAPI   C2219862   5.398   3.948   6.843  0.0753  0.0581 -0.2922
  175SAPI   H2R19863   5.467   3.975   6.760 -0.3053  3.0047  0.2391
  175SAPI   H2S19864   5.388   4.041   6.903 -1.0783  0.7037 -1.4382
  175SAPI    C319865   5.099   3.609   6.696 -0.3874  0.2795  0.2872
  175SAPI    HX19866   5.176   3.555   6.638 -1.1558 -1.0311  0.4538
  175SAPI    HY19867   5.002   3.581   6.650  0.9766 -0.9424 -2.0155
  175SAPI   O3119868   5.084   3.569   6.832 -0.3268 -0.2953 -0.4380
  175SAPI   C3119869   5.187   3.508   6.888  0.5121  0.0769 -0.6895
  175SAPI   O3219870   5.292   3.483   6.832 -0.4868 -0.4777  0.1198
  175SAPI   C3219871   5.143   3.486   7.033  0.0232 -0.0595  0.1786
  175SAPI   H2X19872   5.170   3.384   7.069 -0.6347 -0.1244  0.4978
  175SAPI   H2Y19873   5.033   3.502   7.037  0.1588  0.7862  0.7235
  175SAPI   C2319874   5.452   3.833   6.928  0.2035 -0.3607 -0.3362
  175SAPI   H3R19875   5.414   3.733   6.898 -0.1323 -0.6665  1.0455
  175SAPI   H3S19876   5.423   3.851   7.034  0.5176 -1.2308 -0.0900
  175SAPI   C2419877   5.608   3.840   6.908 -0.1868  0.0074  0.0122
  175SAPI   H4R19878   5.628   3.822   6.800 -0.5935 -0.7057  0.0461
  175SAPI   H4S19879   5.649   3.754   6.966  0.8932  1.9506  2.2672
  175SAPI   C2519880   5.679   3.964   6.955  0.4177  0.2205 -0.3925
  175SAPI   H5R19881   5.679   4.049   6.885  1.4619  1.4593  1.0385
  175SAPI   C2619882   5.722   3.990   7.081 -0.0370  0.1750  0.3051
  175SAPI   H6R19883   5.768   4.086   7.109  1.2885 -0.6363  1.0166
  175SAPI   C2719884   5.710   3.901   7.203 -0.1059 -0.0477  0.1677
  175SAPI   H7R19885   5.707   3.799   7.159  1.5249  0.3884 -1.0930
  175SAPI   H7S19886   5.608   3.916   7.243 -0.9146 -0.6532 -1.5632
  175SAPI   C2819887   5.829   3.924   7.288  0.1876 -0.0046 -0.5598
  175SAPI   H8R19888   5.924   3.936   7.234  0.4028 -0.3734 -0.2687
  175SAPI   C2919889   5.822   3.931   7.425 -0.3093 -0.4783  0.6746
  175SAPI   H9R19890   5.910   3.962   7.482 -0.6173  2.2982 -0.1970
  175SAPI  C21019891   5.700   3.916   7.506 -0.2787  0.5360 -0.3499
  175SAPI  H10R19892   5.682   3.807   7.515 -1.6259  0.7985  0.4438
  175SAPI  H10S19893   5.604   3.954   7.464  0.0054  0.4534 -1.0991
  175SAPI  C21119894   5.718   3.974   7.646 -0.1783 -0.0516  0.4475
  175SAPI  H11R19895   5.808   4.035   7.667 -0.3389 -0.5606  2.9263
  175SAPI  C21219896   5.626   3.958   7.745  0.3738 -0.3136 -0.6434
  175SAPI  H12R19897   5.658   3.995   7.843  0.3709  2.0579 -1.4760
  175SAPI  C21319898   5.494   3.880   7.744 -1.3960 -0.8785 -0.2275
  175SAPI  H13R19899   5.486   3.820   7.837 -0.4839 -0.1671  0.3284
  175SAPI  H13S19900   5.499   3.813   7.656  1.5823 -3.0874  1.4458
  175SAPI  C21419901   5.386   3.975   7.738  0.7778  0.9261  0.1896
  175SAPI  H14R19902   5.386   4.024   7.640  0.5714 -0.5633 -0.5840
  175SAPI  C21519903   5.306   4.020   7.836 -0.2718  0.1394  0.3118
  175SAPI  H15R19904   5.225   4.087   7.804 -0.2752  0.5727  1.1916
  175SAPI  C21619905   5.300   3.977   7.984  0.7526  0.0996 -0.0983
  175SAPI  H16R19906   5.337   3.874   8.005 -1.2630 -0.7673 -0.5984
  175SAPI  H16S19907   5.191   3.972   8.006  0.7291  3.0444  0.8020
  175SAPI  C21719908   5.360   4.071   8.088 -0.1278 -0.7992 -0.2185
  175SAPI  H17R19909   5.292   4.157   8.105 -0.8817 -1.1200 -1.4865
  175SAPI  H17S19910   5.448   4.121   8.041 -0.0549  2.4645  2.9550
  175SAPI  C21819911   5.393   4.018   8.226 -0.0320 -0.2030 -0.5998
  175SAPI  H18R19912   5.458   3.930   8.205  0.3533  0.2206 -1.2272
  175SAPI  H18S19913   5.296   3.984   8.269 -1.0823  1.5085 -1.5149
  175SAPI  C21919914   5.456   4.124   8.309  0.1029 -1.2247  0.1603
  175SAPI  H19R19915   5.380   4.205   8.305  1.0248 -0.0357  3.3892
  175SAPI  H19S19916   5.550   4.138   8.252 -1.4356 -0.3181 -2.2600
  175SAPI  C22019917   5.499   4.080   8.450  0.5236 -0.4509  0.4274
  175SAPI  H20R19918   5.420   4.100   8.525  0.3050  0.5518 -0.0521
  175SAPI  H20S19919   5.583   4.149   8.468  1.5873 -0.7742 -2.6816
  175SAPI  H20T19920   5.524   3.972   8.461  1.4729 -0.1686  1.0827
  175SAPI   C3319921   5.220   3.577   7.125 -0.3813 -0.7676  0.1759
  175SAPI   H3X19922   5.231   3.684   7.101  0.5544 -1.0107 -0.5072
  175SAPI   H3Y19923   5.323   3.537   7.127 -0.6320 -1.6706 -2.0161
  175SAPI   C3419924   5.171   3.577   7.274  0.7438 -0.0425 -0.1488
  175SAPI   H4X19925   5.065   3.606   7.261 -0.0895 -2.2767  1.0827
  175SAPI   H4Y19926   5.216   3.655   7.338 -1.7425  2.4338 -1.2162
  175SAPI   C3519927   5.175   3.443   7.347  0.8633  0.0574  0.1996
  175SAPI   H5X19928   5.282   3.414   7.349  0.8883  0.0459 -0.8093
  175SAPI   H5Y19929   5.111   3.372   7.290 -0.2049  1.7861 -0.8499
  175SAPI   C3619930   5.141   3.446   7.494  0.2992 -0.2256 -0.1027
  175SAPI   H6X19931   5.107   3.350   7.536 -0.0976 -0.2339 -0.4374
  175SAPI   H6Y19932   5.048   3.507   7.494 -0.4571 -1.3310 -1.8482
  175SAPI   C3719933   5.232   3.516   7.597 -0.3251 -0.9696 -0.0174
  175SAPI   H7X19934   5.211   3.625   7.594 -0.2383 -0.9616 -0.4527
  175SAPI   H7Y19935   5.339   3.493   7.579 -0.0970 -1.6601  1.9683
  175SAPI   C3819936   5.188   3.473   7.738 -0.1875 -0.1978 -0.8215
  175SAPI   H8X19937   5.234   3.373   7.757  1.5857  0.8767  0.9173
  175SAPI   H8Y19938   5.080   3.448   7.734 -0.7361  1.6971  0.6318
  175SAPI   C3919939   5.208   3.574   7.851  0.3672  0.5596 -0.2493
  175SAPI   H9X19940   5.139   3.658   7.825 -1.0061 -1.0407 -2.0670
  175SAPI   H9Y19941   5.305   3.628   7.857  0.2165  0.7496  0.6059
  175SAPI  C31019942   5.159   3.511   7.985  0.1780 -0.4611 -0.0731
  175SAPI  H10X19943   5.236   3.433   8.005 -1.0647 -1.3224  1.6347
  175SAPI  H10Y19944   5.061   3.463   7.966 -0.0214 -0.8165  1.6856
  175SAPI  C31119945   5.140   3.615   8.096  0.1686 -0.3508  0.6166
  175SAPI  H11X19946   5.080   3.703   8.067 -0.3863 -1.3440 -1.3995
  175SAPI  H11Y19947   5.242   3.650   8.124  0.2408  1.4281 -1.5698
  175SAPI  C31219948   5.067   3.555   8.215 -0.0739 -0.5013 -0.3248
  175SAPI  H12X19949   5.137   3.478   8.256 -0.0914 -0.5961 -0.4732
  175SAPI  H12Y19950   4.972   3.504   8.190 -1.1276  0.0846  2.1983
  175SAPI  C31319951   5.010   3.656   8.314  0.1349  0.6039  0.8129
  175SAPI  H13X19952   4.942   3.605   8.386 -0.6319  0.8192  0.2514
  175SAPI  H13Y19953   4.948   3.730   8.261  0.6084  2.1185  2.2826
  175SAPI  C31419954   5.116   3.736   8.394 -0.5777 -0.5994 -0.1528
  175SAPI  H14X19955   5.071   3.818   8.453  0.0402 -0.1505 -0.2876
  175SAPI  H14Y19956   5.184   3.789   8.323 -1.7322 -0.1461 -0.9535
  175SAPI  C31519957   5.199   3.645   8.487 -0.0706  0.4963 -0.3598
  175SAPI  H15X19958   5.195   3.545   8.438 -1.4794  1.7687 -3.0495
  175SAPI  H15Y19959   5.147   3.635   8.585 -1.1448 -0.9858 -1.0388
  175SAPI  C31619960   5.346   3.685   8.495 -0.0799  0.2058 -0.3516
  175SAPI  H16X19961   5.361   3.784   8.542 -0.1431  0.4654 -0.8657
  175SAPI  H16Y19962   5.382   3.697   8.390  0.7112 -1.5401 -0.3145
  175SAPI  C31719963   5.433   3.580   8.560  0.1305  0.5179 -0.4085
  175SAPI  H17X19964   5.414   3.474   8.532  1.5946  0.4314 -1.1556
  175SAPI  H17Y19965   5.418   3.591   8.670  1.4089  1.4384 -0.3083
  175SAPI  C31819966   5.575   3.612   8.529 -0.3764  0.4444 -0.4371
  175SAPI  H18X19967   5.593   3.600   8.420 -0.8944 -3.7542 -0.2359
  175SAPI  H18Y19968   5.641   3.536   8.576 -0.6515  0.5899  0.1904
  175SAPI  H18Z19969   5.599   3.715   8.562  0.4374  0.0640  0.1959
  176SAPI   C1219970   3.469   6.806   6.513  1.0037 -0.0597 -0.1104
  176SAPI    H219971   3.387   6.740   6.548  0.6305  0.3053 -0.2895
  176SAPI    O219972   3.482   6.915   6.595 -0.1670 -0.4284  0.3236
  176SAPI   HO219973   3.403   6.969   6.590  0.2502  0.1220 -0.7976
  176SAPI   C1319974   3.596   6.725   6.521 -0.2362  0.3296  0.9658
  176SAPI    H319975   3.576   6.638   6.454 -0.1415 -0.6532  2.1824
  176SAPI    O319976   3.627   6.678   6.647  0.2278  0.2938 -0.7635
  176SAPI   HO319977   3.604   6.746   6.712 -3.8706 -0.8613 -0.7143
  176SAPI   C1419978   3.712   6.796   6.457  0.0354 -0.3771  0.0723
  176SAPI    H419979   3.752   6.871   6.529 -2.1888 -0.1906  1.1895
  176SAPI    O419980   3.805   6.700   6.439 -0.3074  0.1591 -0.2713
  176SAPI   HO419981   3.796   6.627   6.500 -0.1895 -2.3731 -3.0823
  176SAPI   C1519982   3.681   6.854   6.321  0.7187 -1.3550  0.0201
  176SAPI    H519983   3.670   6.766   6.253  1.1687 -1.7272  0.4218
  176SAPI    O519984   3.792   6.931   6.288  0.6211 -0.6252 -0.3162
  176SAPI   HO519985   3.844   6.865   6.241 -0.3656 -1.5673 -0.1457
  176SAPI   C1619986   3.553   6.936   6.320 -0.0099 -0.6640  0.5590
  176SAPI    H619987   3.581   7.023   6.383 -0.5109  0.6222 -0.9515
  176SAPI    O619988   3.530   6.985   6.187  0.2055  0.0759 -0.1925
  176SAPI   HO619989   3.583   7.063   6.169  3.5467 -1.9579 -0.1011
  176SAPI   C1119990   3.447   6.857   6.374 -0.4254  0.8685  0.4546
  176SAPI    H119991   3.423   6.765   6.318 -0.0788  2.0682 -1.7807
  176SAPI     P19992   3.198   6.917   6.286 -0.0010  0.0380  0.1608
  176SAPI   O1319993   3.224   6.831   6.164 -0.1200  0.1651 -0.1670
  176SAPI   O1419994   3.150   7.053   6.257 -0.4685 -0.2758 -0.3105
  176SAPI   O1219995   3.329   6.940   6.381  0.3945  0.1949 -0.3575
  176SAPI   O1119996   3.106   6.845   6.392  0.0840  0.0356 -0.1577
  176SAPI    C119997   2.968   6.813   6.363  0.4796 -1.0066  0.3482
  176SAPI    HA19998   2.917   6.887   6.297  0.3417  0.2214  1.7905
  176SAPI    HB19999   2.960   6.713   6.315 -0.3645 -2.1358  2.6801
  176SAPI    C220000   2.876   6.804   6.496  0.2793 -0.8849  0.2142
  176SAPI    HS20001   2.873   6.906   6.541 -1.7297 -2.0181  3.0030
  176SAPI   O2120002   2.932   6.716   6.591  0.0791 -0.2246 -0.9891
  176SAPI   C2120003   2.985   6.778   6.696  0.4032  0.4372 -0.2904
  176SAPI   O2220004   2.954   6.890   6.734  0.5028  0.6362  0.2013
  176SAPI   C2220005   3.102   6.700   6.759  0.7737 -0.0256  0.2514
  176SAPI   H2R20006   3.077   6.613   6.824  2.2932  0.0666  1.0072
  176SAPI   H2S20007   3.165   6.674   6.672  0.6130 -1.7986  0.6211
  176SAPI    C320008   2.731   6.778   6.460 -0.2509  0.6438 -0.4848
  176SAPI    HX20009   2.727   6.685   6.400 -2.1733 -0.3780  1.0805
  176SAPI    HY20010   2.693   6.862   6.398  1.5819  1.1764 -0.9422
  176SAPI   O3120011   2.651   6.754   6.579  0.4379  0.0825  0.5181
  176SAPI   C3120012   2.620   6.868   6.645  0.4694  0.5414  0.3630
  176SAPI   O3220013   2.662   6.981   6.622  0.5964  0.2527 -0.2522
  176SAPI   C3220014   2.514   6.838   6.749  0.5087 -0.1666 -0.5894
  176SAPI   H2X20015   2.465   6.738   6.748 -0.6406  0.3671  0.0974
  176SAPI   H2Y20016   2.432   6.912   6.736 -0.1811 -0.6274  0.8851
  176SAPI   C2320017   3.177   6.795   6.848 -0.2288 -0.4638 -0.3865
  176SAPI   H3R20018   3.117   6.831   6.934  1.2647  0.3050  0.3629
  176SAPI   H3S20019   3.224   6.868   6.778  1.4773 -1.4282 -0.2909
  176SAPI   C2420020   3.299   6.720   6.910 -0.2009 -0.5792 -0.7316
  176SAPI   H4R20021   3.337   6.645   6.837  0.4863  0.5604 -1.5900
  176SAPI   H4S20022   3.268   6.661   6.998  1.3888 -1.2527 -0.5893
  176SAPI   C2520023   3.419   6.806   6.957 -0.6451  0.3529 -0.2802
  176SAPI   H5R20024   3.486   6.832   6.874 -1.1332 -3.8404 -2.2858
  176SAPI   C2620025   3.453   6.825   7.084 -0.0012  0.2911 -0.4069
  176SAPI   H6R20026   3.549   6.873   7.107  1.5611 -1.7883 -2.0684
  176SAPI   C2720027   3.379   6.777   7.211 -0.1563 -0.4318  0.4154
  176SAPI   H7R20028   3.281   6.732   7.185 -0.8464  1.1261  0.1451
  176SAPI   H7S20029   3.366   6.863   7.280  1.1331  1.5311 -1.5962
  176SAPI   C2820030   3.455   6.661   7.273  0.4458 -0.9473 -0.7229
  176SAPI   H8R20031   3.458   6.566   7.217  2.7238 -0.8020 -0.9438
  176SAPI   C2920032   3.517   6.663   7.398  0.0034 -0.3286  0.5716
  176SAPI   H9R20033   3.559   6.567   7.430 -1.1630 -2.0959 -2.7315
  176SAPI  C21020034   3.536   6.782   7.487 -0.1293 -0.1309  0.1617
  176SAPI  H10R20035   3.575   6.752   7.587  1.9891 -1.8182 -1.0857
  176SAPI  H10S20036   3.432   6.814   7.507 -0.3631 -0.8914  0.2092
  176SAPI  C21120037   3.633   6.884   7.435 -0.5911  0.1278  0.0077
  176SAPI  H11R20038   3.630   6.914   7.329  0.4305  2.3544  0.5403
  176SAPI  C21220039   3.733   6.937   7.516 -0.3624 -0.3938  0.1901
  176SAPI  H12R20040   3.798   7.010   7.467 -0.8874  0.0925  0.2067
  176SAPI  C21320041   3.769   6.904   7.664  0.1789  0.3591  0.2364
  176SAPI  H13R20042   3.766   6.798   7.697 -1.4758  0.6282  1.0488
  176SAPI  H13S20043   3.690   6.959   7.720 -0.4048  1.4355 -1.5706
  176SAPI  C21420044   3.904   6.964   7.704  0.0248  0.9635  0.5703
  176SAPI  H14R20045   3.975   6.974   7.620  0.2349  1.5179  0.8039
  176SAPI  C21520046   3.941   7.011   7.822 -0.5828 -0.0841 -0.2500
  176SAPI  H15R20047   4.039   7.058   7.838 -0.3288 -0.4829 -0.6064
  176SAPI  C21620048   3.860   7.007   7.946  0.1157 -0.5156 -0.3536
  176SAPI  H16R20049   3.887   6.926   8.017 -3.8425 -3.2079 -1.5864
  176SAPI  H16S20050   3.752   6.993   7.926  0.0280  0.4973 -0.6237
  176SAPI  C21720051   3.878   7.146   8.016  0.2520 -0.5303  0.1585
  176SAPI  H17R20052   3.853   7.226   7.944 -1.1643 -2.4844 -1.6525
  176SAPI  H17S20053   3.985   7.164   8.038  0.4541 -1.0195 -0.3909
  176SAPI  C21820054   3.799   7.157   8.150 -0.4832  0.3591  0.1756
  176SAPI  H18R20055   3.796   7.052   8.185 -0.3827 -0.3944 -1.8954
  176SAPI  H18S20056   3.700   7.195   8.118 -0.8581 -0.9409 -0.2489
  176SAPI  C21920057   3.870   7.254   8.245  0.5929  0.1197 -0.2082
  176SAPI  H19R20058   3.864   7.353   8.196 -0.4201  0.3870  0.4182
  176SAPI  H19S20059   3.976   7.229   8.265  0.3018 -1.8933 -0.9154
  176SAPI  C22020060   3.798   7.266   8.383  0.1765  0.2972 -0.1866
  176SAPI  H20R20061   3.851   7.327   8.460 -2.2454  1.0182  1.0018
  176SAPI  H20S20062   3.781   7.164   8.425  3.4679  0.9457  3.3280
  176SAPI  H20T20063   3.699   7.314   8.375 -0.0595 -0.0174  0.6788
  176SAPI   C3320064   2.573   6.846   6.897 -0.2583  0.1125  0.5101
  176SAPI   H3X20065   2.493   6.855   6.973 -0.3332  0.5194  0.3840
  176SAPI   H3Y20066   2.629   6.940   6.918 -0.8388  1.0259 -1.7003
  176SAPI   C3420067   2.666   6.722   6.932  0.0382 -0.7664  0.3123
  176SAPI   H4X20068   2.748   6.722   6.856 -0.2494  0.1823 -0.0131
  176SAPI   H4Y20069   2.612   6.626   6.920 -0.4983 -0.3345 -1.0313
  176SAPI   C3520070   2.713   6.728   7.073 -0.2717 -0.1322 -0.0485
  176SAPI   H5X20071   2.741   6.625   7.103  0.5860 -0.0936 -0.6735
  176SAPI   H5Y20072   2.630   6.765   7.136 -1.2527 -1.4239 -0.5325
  176SAPI   C3620073   2.837   6.818   7.084  0.2362  0.2992  0.0389
  176SAPI   H6X20074   2.801   6.920   7.060  1.2513  0.9487  1.1146
  176SAPI   H6Y20075   2.912   6.790   7.006 -0.3144  1.8454 -1.1118
  176SAPI   C3720076   2.903   6.814   7.214  0.4985  0.4959  0.3038
  176SAPI   H7X20077   2.844   6.862   7.295  0.9401  0.6409  0.5426
  176SAPI   H7Y20078   2.992   6.880   7.208 -0.8274  2.4591  1.1788
  176SAPI   C3820079   2.951   6.682   7.277  0.0355 -0.2736 -0.0008
  176SAPI   H8X20080   3.043   6.651   7.223  0.6464 -1.6391  1.7566
  176SAPI   H8Y20081   2.875   6.602   7.268  1.2289 -1.3652 -0.6511
  176SAPI   C3920082   2.993   6.694   7.424  0.5720 -0.7009  0.0759
  176SAPI   H9X20083   2.898   6.727   7.471 -0.9614 -2.1815 -1.8233
  176SAPI   H9Y20084   3.066   6.774   7.449 -1.0371  0.5972  0.8130
  176SAPI  C31020085   3.053   6.570   7.485  0.4675  0.5109  0.0254
  176SAPI  H10X20086   3.132   6.521   7.425 -0.6788 -1.7598  0.2511
  176SAPI  H10Y20087   2.964   6.504   7.501  0.3255  0.4194 -1.0922
  176SAPI  C31120088   3.093   6.604   7.630  0.3151 -0.0998 -0.3058
  176SAPI  H11X20089   3.021   6.678   7.672 -0.0952 -1.8761  2.3690
  176SAPI  H11Y20090   3.195   6.647   7.628 -0.0866  1.0346  1.3604
  176SAPI  C31220091   3.094   6.481   7.724  0.4235 -0.2572 -0.6360
  176SAPI  H12X20092   2.995   6.431   7.730 -0.3567  1.3813  0.8094
  176SAPI  H12Y20093   3.119   6.522   7.824 -0.8146  2.2891 -1.2826
  176SAPI  C31320094   3.220   6.398   7.687  0.2697  0.6487  0.2902
  176SAPI  H13X20095   3.263   6.439   7.592 -1.4602 -0.9156 -1.2560
  176SAPI  H13Y20096   3.199   6.293   7.656 -1.4240  1.3800 -1.2238
  176SAPI  C31420097   3.334   6.395   7.786  0.4795 -0.3391  0.1861
  176SAPI  H14X20098   3.418   6.335   7.745  0.1386 -3.0443  3.0549
  176SAPI  H14Y20099   3.297   6.359   7.884 -0.6738 -0.1016 -0.1397
  176SAPI  C31520100   3.395   6.539   7.811 -0.1941 -0.0582  0.0038
  176SAPI  H15X20101   3.327   6.595   7.879 -1.5218 -0.9245 -0.5723
  176SAPI  H15Y20102   3.395   6.591   7.712  0.2189  1.1287  0.6037
  176SAPI  C31620103   3.539   6.536   7.865  0.3087 -0.0644 -0.6066
  176SAPI  H16X20104   3.603   6.529   7.774  1.6090  0.6432  0.2142
  176SAPI  H16Y20105   3.553   6.452   7.935 -0.9845  0.9372  0.9096
  176SAPI  C31720106   3.577   6.658   7.950 -0.3103  0.9568 -0.2480
  176SAPI  H17X20107   3.501   6.667   8.031 -0.6178  0.8656 -0.5248
  176SAPI  H17Y20108   3.564   6.746   7.883 -1.0415  0.5972 -0.5906
  176SAPI  C31820109   3.716   6.653   8.000  0.1305  0.1634 -0.1720
  176SAPI  H18X20110   3.732   6.554   8.048 -1.2241  0.1703  0.3187
  176SAPI  H18Y20111   3.744   6.738   8.065 -2.3994 -0.7184  2.2924
  176SAPI  H18Z20112   3.787   6.651   7.914  1.6130 -1.0427  1.0310
  177SLPC     N20113   2.845   6.283  10.750  0.3725  0.2738  0.0213
  177SLPC   C1320114   2.711   6.279  10.674  0.3429  0.3638  0.2533
  177SLPC  H13A20115   2.630   6.301  10.742 -0.9542  1.1664 -1.4725
  177SLPC  H13B20116   2.716   6.357  10.599 -1.0281  1.4783  1.2700
  177SLPC  H13C20117   2.698   6.178  10.639  0.9850  0.6848 -0.9574
  177SLPC   C1420118   2.947   6.201  10.677 -0.4813 -0.1677 -0.0794
  177SLPC  H14A20119   2.970   6.265  10.593 -0.7825  0.8377  0.5780
  177SLPC  H14B20120   3.043   6.192  10.724  0.7376 -0.1675 -2.3957
  177SLPC  H14C20121   2.910   6.106  10.643 -0.0955 -0.4836  0.3803
  177SLPC   C1520122   2.832   6.225  10.884  0.2072  0.0159 -0.6927
  177SLPC  H15A20123   2.905   6.274  10.947  1.5853  0.3496 -2.4557
  177SLPC  H15B20124   2.738   6.263  10.921 -0.1069 -0.5986 -0.8541
  177SLPC  H15C20125   2.834   6.118  10.893 -2.3832 -0.0273  0.1644
  177SLPC   C1220126   2.897   6.420  10.765  0.6197 -0.1143 -0.3166
  177SLPC  H12A20127   2.979   6.400  10.833 -0.1660 -0.0433  0.6701
  177SLPC  H12B20128   2.818   6.479  10.808  0.1896 -0.3243 -0.8088
  177SLPC   C1120129   2.948   6.492  10.636  0.4120  0.2394 -0.0047
  177SLPC  H11A20130   3.032   6.430  10.599 -0.4959 -0.6464 -0.6307
  177SLPC  H11B20131   2.990   6.592  10.660 -2.8507  1.5287  0.8942
  177SLPC     P20132   2.749   6.634  10.532 -0.4726  0.1069 -0.0626
  177SLPC   O1320133   2.670   6.652  10.657  0.0457  0.3666 -0.7399
  177SLPC   O1420134   2.839   6.749  10.506  0.0878 -0.0725  0.3950
  177SLPC   O1220135   2.835   6.496  10.542  0.4137 -0.0949  0.0131
  177SLPC   O1120136   2.658   6.614  10.405 -0.1837  0.2574  0.2738
  177SLPC    C120137   2.633   6.489  10.349  0.2270 -0.6063  1.1230
  177SLPC    HA20138   2.675   6.398  10.398  0.0178 -1.6308 -0.5109
  177SLPC    HB20139   2.522   6.481  10.347  0.2251 -0.4980  0.7872
  177SLPC    C220140   2.685   6.491  10.195  0.1435  0.2567  0.0212
  177SLPC    HS20141   2.649   6.400  10.143  0.2676  0.6234 -0.7217
  177SLPC   O2120142   2.830   6.498  10.194 -0.3556  0.0188 -0.0289
  177SLPC   C2120143   2.884   6.376  10.230 -0.3840  0.0878 -0.2591
  177SLPC   O2220144   2.824   6.271  10.256  0.1230  0.2192  0.6733
  177SLPC   C2220145   3.040   6.375  10.216  0.6022 -0.2068 -0.5716
  177SLPC   H2R20146   3.069   6.477  10.183  1.6915 -0.0657  0.7354
  177SLPC   H2S20147   3.077   6.341  10.315 -1.5183 -3.3183 -0.7151
  177SLPC    C320148   2.634   6.604  10.104 -0.1162 -0.4757 -0.3701
  177SLPC    HX20149   2.701   6.687  10.134  1.9966 -1.8389 -1.0617
  177SLPC    HY20150   2.530   6.635  10.130  0.8843  0.4812  2.8229
  177SLPC   O3120151   2.629   6.564   9.964 -0.4241 -0.3045 -0.3467
  177SLPC   C3120152   2.732   6.609   9.888 -0.0233  0.2101 -0.6261
  177SLPC   O3220153   2.810   6.697   9.921 -0.0590  0.1716 -0.2281
  177SLPC   C3220154   2.727   6.551   9.746 -0.2203 -0.4975 -0.3351
  177SLPC   H2X20155   2.620   6.538   9.719 -1.0762 -0.2721  2.5717
  177SLPC   H2Y20156   2.765   6.448   9.763  1.0121  0.0555  0.3784
  177SLPC   C2320157   3.080   6.276  10.103 -0.0021 -0.2225  0.7482
  177SLPC   H3R20158   3.027   6.179  10.115  0.9257 -1.1302 -1.8215
  177SLPC   H3S20159   3.186   6.248  10.123 -0.2275 -1.9651 -0.2324
  177SLPC   C2420160   3.051   6.349   9.966  0.1422  0.1876  0.2527
  177SLPC   H4R20161   3.108   6.444   9.962  1.5419 -0.6355 -0.5006
  177SLPC   H4S20162   2.944   6.372   9.948  0.6609  1.3825 -1.5363
  177SLPC   C2520163   3.100   6.266   9.847  0.1710  0.3805  0.5367
  177SLPC   H5R20164   3.023   6.188   9.826 -0.7130  1.5725 -0.9171
  177SLPC   H5S20165   3.194   6.219   9.880 -1.1703 -0.9666  2.6915
  177SLPC   C2620166   3.127   6.358   9.724  0.2159  0.4577 -0.4801
  177SLPC   H6R20167   3.166   6.455   9.761  1.2866 -0.5085  1.0441
  177SLPC   H6S20168   3.037   6.387   9.666 -1.7511  0.6633  2.4486
  177SLPC   C2720169   3.235   6.306   9.632 -0.4444  1.1018  0.2943
  177SLPC   H7R20170   3.199   6.204   9.606 -0.9308  1.4897 -0.5914
  177SLPC   H7S20171   3.328   6.289   9.690 -0.7483 -3.0255 -0.1508
  177SLPC   C2820172   3.263   6.375   9.491 -0.3041 -0.1781 -0.3985
  177SLPC   H8R20173   3.266   6.486   9.485 -3.1455 -0.1263 -2.8161
  177SLPC   H8S20174   3.164   6.366   9.443 -0.4404 -0.0812 -0.1386
  177SLPC   C2920175   3.361   6.302   9.408  0.0433 -0.3851  0.5777
  177SLPC   H9R20176   3.362   6.193   9.423  1.3590 -0.7542 -1.6930
  177SLPC  C21020177   3.455   6.358   9.327 -0.3527  0.1286 -0.6275
  177SLPC  H10R20178   3.509   6.290   9.260 -0.9531 -0.4913 -0.5025
  177SLPC  C21120179   3.480   6.501   9.303 -0.8407 -0.4009  0.2645
  177SLPC  H11R20180   3.463   6.560   9.395  0.0935  0.2311  0.0453
  177SLPC  H11S20181   3.588   6.514   9.283 -1.1047  0.1704 -0.8714
  177SLPC  C21220182   3.399   6.567   9.189  0.4849  0.2755  0.5528
  177SLPC  H12R20183   3.293   6.543   9.180  0.5182  0.2791  0.1430
  177SLPC  C21320184   3.452   6.649   9.094  0.0266  0.3570 -0.3561
  177SLPC  H13R20185   3.386   6.703   9.024  0.2821  0.3777 -0.5807
  177SLPC  C21420186   3.594   6.695   9.093  0.1459 -0.0300  0.1605
  177SLPC  H14R20187   3.626   6.723   9.196 -2.3816  1.8316  0.5561
  177SLPC  H14S20188   3.600   6.788   9.032 -0.2275 -0.5334 -0.6591
  177SLPC  C21520189   3.694   6.592   9.034  0.3627 -0.1219 -0.5209
  177SLPC  H15R20190   3.674   6.492   9.078 -2.2239 -0.2677 -1.8570
  177SLPC  H15S20191   3.797   6.618   9.069 -0.2601  0.7312  0.7790
  177SLPC  C21620192   3.673   6.594   8.881 -0.7438 -0.0652 -0.4615
  177SLPC  H16R20193   3.658   6.700   8.854 -0.8102  0.6544  2.1730
  177SLPC  H16S20194   3.581   6.538   8.854  0.6262 -1.2205 -3.0814
  177SLPC  C21720195   3.773   6.514   8.810 -0.4676  0.0330  0.6022
  177SLPC  H17R20196   3.761   6.405   8.832 -1.0415  0.1827  1.0388
  177SLPC  H17S20197   3.876   6.543   8.838  0.0045 -1.2025  0.2567
  177SLPC  C21820198   3.756   6.535   8.657 -0.0459 -0.6421 -0.5983
  177SLPC  H18R20199   3.661   6.495   8.617 -0.7453  1.5167 -1.2079
  177SLPC  H18S20200   3.832   6.484   8.594  1.8463  0.6518  0.5105
  177SLPC  H18T20201   3.753   6.645   8.646  0.1240 -0.7588 -1.9188
  177SLPC   C3320202   2.803   6.645   9.649 -0.5456  0.2376 -0.0984
  177SLPC   H3X20203   2.911   6.651   9.672 -0.9204 -0.9441  2.3280
  177SLPC   H3Y20204   2.768   6.750   9.642 -1.5057 -0.1496 -1.3678
  177SLPC   C3420205   2.786   6.585   9.500 -0.6669 -0.0722  0.3469
  177SLPC   H4X20206   2.682   6.596   9.464 -0.8131 -0.1174  0.7530
  177SLPC   H4Y20207   2.827   6.482   9.501  1.6090  0.7777  0.9974
  177SLPC   C3520208   2.882   6.658   9.394  0.9723  0.3854  0.0088
  177SLPC   H5X20209   2.986   6.649   9.431  0.2011 -1.0342  2.0293
  177SLPC   H5Y20210   2.861   6.764   9.368 -0.7251 -0.1466 -0.9186
  177SLPC   C3620211   2.885   6.580   9.259 -0.1353 -0.2059  0.0442
  177SLPC   H6X20212   2.789   6.547   9.215  0.8440 -0.6333 -1.8641
  177SLPC   H6Y20213   2.943   6.488   9.282 -1.3966 -0.6885  1.4915
  177SLPC   C3720214   2.960   6.656   9.152  0.4662  0.8203 -0.5572
  177SLPC   H7X20215   3.059   6.690   9.189  1.3396 -1.5092 -0.6182
  177SLPC   H7Y20216   2.898   6.746   9.130 -1.9424 -0.3672  0.9310
  177SLPC   C3820217   3.003   6.583   9.022  0.0045  0.3112 -0.2460
  177SLPC   H8X20218   2.907   6.548   8.980  1.1805 -4.0749  0.1853
  177SLPC   H8Y20219   3.052   6.485   9.040 -1.7541 -0.7131 -0.8207
  177SLPC   C3920220   3.077   6.666   8.911  0.3560  0.4434 -0.0182
  177SLPC   H9X20221   3.166   6.713   8.958 -0.7768  1.1064  1.5517
  177SLPC   H9Y20222   3.000   6.743   8.889 -1.0194 -1.5507 -2.7679
  177SLPC  C31020223   3.108   6.584   8.784  0.9630 -0.7256  0.3025
  177SLPC  H10X20224   3.020   6.541   8.730 -0.2436  1.0062  0.7957
  177SLPC  H10Y20225   3.166   6.490   8.798  0.4996 -1.2643 -1.1379
  177SLPC  C31120226   3.184   6.666   8.680  0.2221  0.0741 -0.2682
  177SLPC  H11X20227   3.273   6.707   8.733 -2.3010  1.9017  2.9114
  177SLPC  H11Y20228   3.120   6.749   8.645  0.7799  0.8974  0.6272
  177SLPC  C31220229   3.209   6.573   8.561  0.4121 -0.3730  0.2332
  177SLPC  H12X20230   3.230   6.640   8.475 -1.9562 -0.1592 -0.2245
  177SLPC  H12Y20231   3.120   6.511   8.538  0.3104 -0.8357  1.7816
  177SLPC  C31320232   3.334   6.487   8.583  0.3923 -0.1936 -0.0796
  177SLPC  H13X20233   3.314   6.415   8.665  0.8743  1.4541  1.5404
  177SLPC  H13Y20234   3.412   6.562   8.607 -1.2502  1.8596 -0.7581
  177SLPC  C31420235   3.371   6.400   8.465 -0.2039 -0.1804 -0.0285
  177SLPC  H14X20236   3.283   6.347   8.423 -0.2114  1.1675 -1.8380
  177SLPC  H14Y20237   3.445   6.324   8.497  0.5631 -0.1875 -1.7111
  177SLPC  C31520238   3.445   6.479   8.359  0.1147 -0.3419 -0.6110
  177SLPC  H15X20239   3.534   6.523   8.410  0.4864 -0.4430 -1.1607
  177SLPC  H15Y20240   3.389   6.564   8.315  0.7430  0.4060 -0.0133
  177SLPC  C31620241   3.510   6.401   8.243 -0.4462 -0.0053  0.3749
  177SLPC  H16X20242   3.556   6.471   8.171 -1.0055 -1.5230 -1.5552
  177SLPC  H16Y20243   3.426   6.346   8.196 -0.0951 -0.8738  0.7374
  177SLPC  C31720244   3.614   6.293   8.283  0.2877  0.3562 -0.1806
  177SLPC  H17X20245   3.563   6.195   8.296 -0.5356  0.8226  0.2111
  177SLPC  H17Y20246   3.673   6.319   8.373  0.3747 -1.4919  0.3449
  177SLPC  C31820247   3.723   6.282   8.175  0.0540  0.9383 -0.1957
  177SLPC  H18X20248   3.779   6.377   8.158  4.3079 -0.4557  3.7218
  177SLPC  H18Y20249   3.674   6.234   8.088 -0.5523 -2.7992  1.9782
  177SLPC  H18Z20250   3.797   6.209   8.214 -0.7566  0.4715  0.5179
  178SLPC     N20251   3.816   0.144  11.121 -0.4495  0.3918 -0.3389
  178SLPC   C1320252   3.724   0.037  11.089  0.2626  0.5032  0.0711
  178SLPC  H13A20253   3.624   0.073  11.065  0.4859  1.4055  0.4451
  178SLPC  H13B20254   3.757  -0.033  11.014  2.4384 -1.6097  2.8352
  178SLPC  H13C20255   3.713  -0.028  11.174 -2.9460 -0.2960 -0.7788
  178SLPC   C1420256   3.942   0.075  11.170  0.5786 -0.8334 -0.1988
  178SLPC  H14A20257   3.993   0.017  11.095  0.8531 -1.7434  0.6579
  178SLPC  H14B20258   3.999   0.146  11.229 -2.5958  1.0813  0.8771
  178SLPC  H14C20259   3.929   0.012  11.257  2.0213 -0.3126  0.4273
  178SLPC   C1520260   3.772   0.233  11.238  0.0295  0.2155 -0.1289
  178SLPC  H15A20261   3.836   0.319  11.248  2.2895 -1.5914  2.2778
  178SLPC  H15B20262   3.669   0.261  11.219  0.5400  1.6798 -0.9513
  178SLPC  H15C20263   3.787   0.180  11.330  0.2597 -0.6212 -0.6340
  178SLPC   C1220264   3.851   0.241  11.010  0.3067 -0.0432 -0.7094
  178SLPC  H12A20265   3.900   0.183  10.933 -0.2418 -0.0642 -1.0450
  178SLPC  H12B20266   3.924   0.311  11.049  0.7688 -0.6014 -0.5528
  178SLPC   C1120267   3.728   0.308  10.948  0.4957 -0.2370  0.1202
  178SLPC  H11A20268   3.764   0.376  10.868 -0.6511  1.1910  0.7541
  178SLPC  H11B20269   3.661   0.355  11.024 -0.8381 -2.8024  0.6297
  178SLPC     P20270   3.523   0.247  10.798  0.1608 -0.4993  0.3052
  178SLPC   O1320271   3.413   0.151  10.805 -0.0520  0.2420 -0.3817
  178SLPC   O1420272   3.488   0.383  10.839 -0.3046  0.6081 -0.0585
  178SLPC   O1220273   3.645   0.207  10.894  0.1735  0.2584  0.2055
  178SLPC   O1120274   3.579   0.248  10.654  0.0649  0.0947  0.1860
  178SLPC    C120275   3.671   0.139  10.623  0.5418  0.5695 -0.0331
  178SLPC    HA20276   3.769   0.144  10.675 -0.2869  1.0057  1.5415
  178SLPC    HB20277   3.613   0.048  10.653 -2.4260  2.1509 -0.5673
  178SLPC    C220278   3.707   0.107  10.476 -0.1401 -0.2237  0.1148
  178SLPC    HS20279   3.749   0.006  10.456  2.4947  0.8603 -0.1638
  178SLPC   O2120280   3.804   0.202  10.429  0.3947 -0.6404  0.1351
  178SLPC   C2120281   3.930   0.191  10.480 -0.2079  1.1094  0.1102
  178SLPC   O2220282   3.969   0.101  10.552 -0.0942  0.0243 -0.6495
  178SLPC   C2220283   4.020   0.301  10.413 -0.1346  1.0576 -0.2330
  178SLPC   H2R20284   3.988   0.323  10.309  0.2422 -0.2468 -0.6424
  178SLPC   H2S20285   3.997   0.387  10.480  2.4279  0.5695  1.4120
  178SLPC    C320286   3.588   0.124  10.386 -0.1531  0.4956  0.7728
  178SLPC    HX20287   3.549   0.228  10.388 -0.2620  0.4550  0.7770
  178SLPC    HY20288   3.506   0.055  10.415  1.9053 -2.7554 -0.6120
  178SLPC   O3120289   3.627   0.085  10.256 -0.3532 -0.3354 -0.2225
  178SLPC   C3120290   3.637   0.176  10.160  0.8029  0.4224 -0.0766
  178SLPC   O3220291   3.585   0.288  10.162  0.3670 -0.8121  0.7610
  178SLPC   C3220292   3.706   0.117  10.035 -0.9984  0.1247 -0.5680
  178SLPC   H2X20293   3.756   0.203   9.984  2.9238 -2.7134 -1.9697
  178SLPC   H2Y20294   3.622   0.079   9.974 -1.5206 -1.6736  1.1857
  178SLPC   C2320295   4.170   0.276  10.414 -0.1852 -0.0624  0.2330
  178SLPC   H3R20296   4.206   0.236  10.512  1.7200 -1.7195 -1.0480
  178SLPC   H3S20297   4.239   0.358  10.383 -1.3590  1.2169  0.9318
  178SLPC   C2420298   4.209   0.167  10.313  0.2173 -0.3902 -0.2841
  178SLPC   H4R20299   4.213   0.190  10.205  0.0822  0.7226 -0.0705
  178SLPC   H4S20300   4.128   0.092  10.313 -1.0929  0.9665 -0.2505
  178SLPC   C2520301   4.345   0.092  10.338  0.1895  0.2081 -0.2919
  178SLPC   H5R20302   4.334   0.015  10.259 -0.6149 -0.2367  0.2334
  178SLPC   H5S20303   4.362   0.048  10.439  1.2186 -1.5819 -1.1945
  178SLPC   C2620304   4.466   0.183  10.308 -0.0139 -0.7485 -0.3219
  178SLPC   H6R20305   4.563   0.130  10.321  0.1450 -0.4774 -0.3918
  178SLPC   H6S20306   4.463   0.267  10.380 -0.1324 -1.7523  0.8635
  178SLPC   C2720307   4.485   0.229  10.168  0.3551 -0.3007  0.2961
  178SLPC   H7R20308   4.389   0.266  10.127 -0.7839 -3.4180 -0.0977
  178SLPC   H7S20309   4.503   0.131  10.119  1.7811 -0.6235  1.3879
  178SLPC   C2820310   4.596   0.340  10.139  0.0507 -0.0109 -0.1243
  178SLPC   H8R20311   4.688   0.293  10.180 -2.2480 -3.4691  1.5630
  178SLPC   H8S20312   4.573   0.415  10.219 -1.5647 -0.8761  0.2625
  178SLPC   C2920313   4.601   0.390   9.999  0.0832 -1.1212 -0.3748
  178SLPC   H9R20314   4.561   0.490   9.976  1.7938 -0.8100 -2.2256
  178SLPC  C21020315   4.659   0.325   9.899  0.2525 -0.2611  0.0730
  178SLPC  H10R20316   4.636   0.371   9.801 -3.1040  0.3386  1.0206
  178SLPC  C21120317   4.732   0.195   9.909  0.9943  0.5827 -0.7688
  178SLPC  H11R20318   4.661   0.117   9.944  2.6264 -1.5564 -1.9646
  178SLPC  H11S20319   4.807   0.211   9.989 -0.8392  0.7815  0.9970
  178SLPC  C21220320   4.811   0.156   9.788 -0.2954 -0.1607 -0.4684
  178SLPC  H12R20321   4.741   0.134   9.705 -0.4166  0.0456 -0.4202
  178SLPC  C21320322   4.945   0.161   9.775  0.7717 -0.7250  0.1408
  178SLPC  H13R20323   4.990   0.112   9.687 -1.6336 -1.2998 -0.8550
  178SLPC  C21420324   5.044   0.201   9.880 -0.3526  0.2184  0.5313
  178SLPC  H14R20325   5.134   0.136   9.876  1.1357  2.2330 -2.0323
  178SLPC  H14S20326   4.996   0.195   9.980 -4.9690  0.8307 -1.3898
  178SLPC  C21520327   5.082   0.346   9.871  0.2873 -0.2646 -0.6316
  178SLPC  H15R20328   4.997   0.409   9.907  0.7759  1.2596 -1.9950
  178SLPC  H15S20329   5.100   0.377   9.766  0.1738  0.6180 -0.4046
  178SLPC  C21620330   5.214   0.372   9.955  0.1955  0.0197  0.2842
  178SLPC  H16R20331   5.249   0.476   9.937  0.3541  0.1585  1.3129
  178SLPC  H16S20332   5.292   0.296   9.932  1.0220  0.0028  2.8550
  178SLPC  C21720333   5.184   0.371  10.110  0.7341  0.8467 -0.0532
  178SLPC  H17R20334   5.197   0.271  10.157  0.3840  1.5599  1.6262
  178SLPC  H17S20335   5.076   0.393  10.124  0.1843 -0.5813 -1.6549
  178SLPC  C21820336   5.267   0.471  10.192 -0.5504 -0.0460  0.6852
  178SLPC  H18R20337   5.216   0.497  10.287  1.4115  2.1344  1.2369
  178SLPC  H18S20338   5.265   0.569  10.140 -1.3895  0.1271  1.0206
  178SLPC  H18T20339   5.372   0.437  10.206 -0.6921 -1.1550 -0.7214
  178SLPC   C3320340   3.815   0.015  10.060 -0.4139 -0.5007 -0.6739
  178SLPC   H3X20341   3.776  -0.087  10.078 -0.8103 -0.4703 -1.3369
  178SLPC   H3Y20342   3.863   0.047  10.155  0.7315  1.8279 -1.9510
  178SLPC   C3420343   3.913   0.014   9.941  0.0169  0.0834 -0.5380
  178SLPC   H4X20344   3.862   0.054   9.851  1.4117 -0.5002 -1.6166
  178SLPC   H4Y20345   3.948  -0.087   9.910  0.7153  0.1133  0.1143
  178SLPC   C3520346   4.031   0.106   9.979  0.2705 -0.1628 -0.1773
  178SLPC   H5X20347   4.120   0.053  10.019 -0.1590  0.3578  1.5923
  178SLPC   H5Y20348   3.997   0.178  10.057  0.5809 -1.4752  1.2229
  178SLPC   C3620349   4.090   0.165   9.848  0.3393 -0.2463 -0.3644
  178SLPC   H6X20350   4.161   0.248   9.870 -1.5175  1.4040 -0.2392
  178SLPC   H6Y20351   4.001   0.204   9.793 -0.6073 -0.2820  1.0799
  178SLPC   C3720352   4.163   0.063   9.761 -0.0522  1.0356 -0.0238
  178SLPC   H7X20353   4.092  -0.018   9.734 -1.9829  3.1239 -1.5635
  178SLPC   H7Y20354   4.252   0.032   9.821 -1.6035 -0.2097  1.7525
  178SLPC   C3820355   4.197   0.120   9.622  0.6056 -0.2751  0.1623
  178SLPC   H8X20356   4.251   0.214   9.647  1.7598 -0.6769 -0.7196
  178SLPC   H8Y20357   4.099   0.136   9.572 -0.9993  0.4071  3.2792
  178SLPC   C3920358   4.290   0.035   9.531  0.1285 -0.3499 -0.7292
  178SLPC   H9X20359   4.237  -0.060   9.508 -0.3583 -0.3805  0.4240
  178SLPC   H9Y20360   4.378   0.020   9.598 -1.2832  1.3812  1.7000
  178SLPC  C31020361   4.331   0.103   9.399  0.9394  0.1675 -0.0385
  178SLPC  H10X20362   4.366   0.206   9.422  2.2305 -0.3753  0.5292
  178SLPC  H10Y20363   4.242   0.102   9.333  0.0258 -0.3223  1.1703
  178SLPC  C31120364   4.441   0.029   9.322 -0.1900  0.5252  0.2822
  178SLPC  H11X20365   4.387  -0.057   9.276 -1.8571  1.7027 -0.0797
  178SLPC  H11Y20366   4.523   0.004   9.392  0.4772 -1.0345 -1.0032
  178SLPC  C31220367   4.511   0.099   9.208  0.0948 -0.4197  0.4082
  178SLPC  H12X20368   4.568   0.031   9.141  0.1139 -0.9680  0.9713
  178SLPC  H12Y20369   4.591   0.158   9.257 -0.0680 -0.6720  0.9943
  178SLPC  C31320370   4.427   0.187   9.113 -0.1684 -0.5175  0.3356
  178SLPC  H13X20371   4.366   0.263   9.167  0.4987  0.2566  0.0270
  178SLPC  H13Y20372   4.352   0.133   9.052 -2.3191  3.8259 -1.3181
  178SLPC  C31420373   4.514   0.274   9.010 -0.2880  0.0883 -0.2329
  178SLPC  H14X20374   4.583   0.208   8.953 -0.3696 -2.4608  2.3432
  178SLPC  H14Y20375   4.577   0.333   9.079 -1.0016 -1.2704  1.6730
  178SLPC  C31520376   4.424   0.342   8.913  0.1249 -0.5847 -0.5234
  178SLPC  H15X20377   4.486   0.378   8.828 -0.6958  1.0622 -0.4650
  178SLPC  H15Y20378   4.354   0.264   8.875 -1.4928  1.1073 -1.1864
  178SLPC  C31620379   4.337   0.453   8.974 -0.6430  0.0802 -0.0854
  178SLPC  H16X20380   4.393   0.540   9.013  1.8893 -0.2057 -2.6917
  178SLPC  H16Y20381   4.265   0.430   9.055 -0.5656  2.2852  0.6520
  178SLPC  C31720382   4.247   0.508   8.866 -0.7872  0.0463  0.2347
  178SLPC  H17X20383   4.175   0.434   8.826 -0.2203 -1.3315  1.6483
  178SLPC  H17Y20384   4.310   0.547   8.784  2.8551 -1.4149  2.0992
  178SLPC  C31820385   4.167   0.629   8.916 -0.9277 -0.7080 -0.1925
  178SLPC  H18X20386   4.101   0.602   9.001  0.3928 -0.2572  1.0159
  178SLPC  H18Y20387   4.101   0.675   8.839  1.0439  2.0172 -0.4022
  178SLPC  H18Z20388   4.233   0.712   8.949 -2.1779  0.9998 -1.8097
  179SLPC     N20389   5.440   4.737  10.663 -0.4913 -0.6476  0.3751
  179SLPC   C1320390   5.529   4.653  10.746 -0.0053 -0.1871 -0.1726
  179SLPC  H13A20391   5.575   4.579  10.683 -1.8649 -1.0515 -0.5842
  179SLPC  H13B20392   5.609   4.710  10.793 -0.3225 -1.4640  2.0659
  179SLPC  H13C20393   5.469   4.608  10.824 -1.2533  2.7799  0.7435
  179SLPC   C1420394   5.528   4.850  10.605 -0.0438 -0.2741  0.2776
  179SLPC  H14A20395   5.606   4.809  10.544  0.3447 -0.2517  0.7524
  179SLPC  H14B20396   5.471   4.920  10.545  2.1948  0.4633 -1.0764
  179SLPC  H14C20397   5.570   4.908  10.686  0.9959  1.1924 -1.2475
  179SLPC   C1520398   5.335   4.797  10.748  0.9699  0.0603  0.3834
  179SLPC  H15A20399   5.272   4.714  10.778  0.4241  0.6329  0.8605
  179SLPC  H15B20400   5.365   4.844  10.841 -3.2979  1.6287  1.2162
  179SLPC  H15C20401   5.280   4.873  10.695  2.0843 -0.1723 -1.1579
  179SLPC   C1220402   5.367   4.667  10.553  0.1796  0.2059  0.3518
  179SLPC  H12A20403   5.433   4.610  10.489  1.1080 -2.2284  3.2558
  179SLPC  H12B20404   5.305   4.735  10.497  0.6701  0.4647  0.1115
  179SLPC   C1120405   5.286   4.549  10.606  0.3954 -0.0059  0.1045
  179SLPC  H11A20406   5.203   4.512  10.542  0.2041  0.3216  0.1585
  179SLPC  H11B20407   5.222   4.582  10.691 -1.1263 -0.2133 -0.9142
  179SLPC     P20408   5.393   4.330  10.529  0.2604 -0.0410 -0.1279
  179SLPC   O1320409   5.519   4.259  10.552  0.1217 -0.5497 -0.3018
  179SLPC   O1420410   5.267   4.249  10.521 -0.5525  0.0828 -0.2258
  179SLPC   O1220411   5.372   4.440  10.642 -0.0987 -0.1317 -0.3243
  179SLPC   O1120412   5.406   4.417  10.400  0.2903  0.2728 -0.6359
  179SLPC    C120413   5.530   4.473  10.358  0.2248  1.1615  0.2674
  179SLPC    HA20414   5.506   4.578  10.331  0.1836  1.8705  2.8752
  179SLPC    HB20415   5.606   4.468  10.438 -1.4792 -1.0800  1.8783
  179SLPC    C220416   5.589   4.403  10.228 -0.2151  0.3268 -0.4881
  179SLPC    HS20417   5.679   4.459  10.195 -0.5820  0.9981 -0.3676
  179SLPC   O2120418   5.485   4.413  10.128  0.2918  0.1307  0.2297
  179SLPC   C2120419   5.505   4.509  10.038 -0.9902 -0.7027 -0.4102
  179SLPC   O2220420   5.591   4.593  10.037 -0.1001  0.3227 -0.2908
  179SLPC   C2220421   5.408   4.497   9.922 -0.6288  0.6918 -0.1565
  179SLPC   H2R20422   5.391   4.390   9.900 -1.6624  0.4442  1.6498
  179SLPC   H2S20423   5.312   4.538   9.960 -0.9571 -1.7483  1.8607
  179SLPC    C320424   5.646   4.262  10.243 -0.6857 -0.4271 -0.3810
  179SLPC    HX20425   5.555   4.202  10.265 -1.0880  0.1116 -0.5597
  179SLPC    HY20426   5.715   4.263  10.331 -2.1287 -2.3003  0.8450
  179SLPC   O3120427   5.707   4.224  10.117 -0.3492  0.0454  0.3146
  179SLPC   C3120428   5.839   4.242  10.110 -0.3387 -0.2013  0.5136
  179SLPC   O3220429   5.906   4.288  10.202  0.6752 -0.0733  0.0882
  179SLPC   C3220430   5.888   4.174   9.973 -0.1757 -0.2282  0.2371
  179SLPC   H2X20431   5.965   4.249   9.942 -1.7941  1.1759 -0.5654
  179SLPC   H2Y20432   5.808   4.180   9.896 -0.0637 -0.5945  0.0925
  179SLPC   C2320433   5.455   4.583   9.803  0.2183  0.1040 -0.1835
  179SLPC   H3R20434   5.465   4.689   9.836 -0.7846  0.4412 -0.9032
  179SLPC   H3S20435   5.368   4.589   9.735 -0.8330  0.0430  1.1105
  179SLPC   C2420436   5.575   4.523   9.735 -0.1319 -0.1427  0.1109
  179SLPC   H4R20437   5.580   4.413   9.718  2.2241  0.1423 -1.5212
  179SLPC   H4S20438   5.653   4.557   9.806  0.3346 -1.5865  0.3121
  179SLPC   C2520439   5.599   4.599   9.597  0.3491 -0.9719  0.2829
  179SLPC   H5R20440   5.709   4.611   9.590  0.5521 -0.3563  3.0818
  179SLPC   H5S20441   5.551   4.698   9.615 -0.4697 -0.8366 -2.3148
  179SLPC   C2620442   5.542   4.527   9.470  0.0253  0.2668  0.1512
  179SLPC   H6R20443   5.432   4.510   9.479  0.2679 -1.4475  0.1339
  179SLPC   H6S20444   5.581   4.423   9.461 -0.8287  0.0698 -1.8489
  179SLPC   C2720445   5.573   4.613   9.342  0.3362  0.2301 -0.7051
  179SLPC   H7R20446   5.530   4.559   9.255 -1.2367 -0.8479  0.6846
  179SLPC   H7S20447   5.684   4.616   9.332  0.3714  1.5730 -0.0539
  179SLPC   C2820448   5.521   4.759   9.347  0.4923  0.3636 -0.8411
  179SLPC   H8R20449   5.600   4.817   9.401  2.3534  1.0045 -3.9983
  179SLPC   H8S20450   5.438   4.766   9.421 -0.2269  1.1926 -1.7010
  179SLPC   C2920451   5.487   4.840   9.226 -0.0407  0.7966 -0.0203
  179SLPC   H9R20452   5.385   4.829   9.188  0.4108  1.5526 -1.5080
  179SLPC  C21020453   5.574   4.913   9.154 -0.1230 -0.3942 -0.1185
  179SLPC  H10R20454   5.538   4.971   9.067 -2.0989  0.3599  1.1430
  179SLPC  C21120455   5.723   4.928   9.196 -0.2407 -0.3225  0.1247
  179SLPC  H11R20456   5.792   4.920   9.109  0.5508 -0.9412  0.7925
  179SLPC  H11S20457   5.754   4.846   9.265 -0.0585 -1.1721 -0.9458
  179SLPC  C21220458   5.752   5.057   9.264  0.3836 -0.7687 -0.4142
  179SLPC  H12R20459   5.674   5.132   9.244  0.4555 -0.4757  0.3673
  179SLPC  C21320460   5.843   5.095   9.352  0.1466  0.0826  0.0195
  179SLPC  H13R20461   5.852   5.200   9.382  0.4502  0.4979 -1.4641
  179SLPC  C21420462   5.949   5.000   9.399 -0.3430 -0.0783 -0.2698
  179SLPC  H14R20463   6.051   5.033   9.368 -1.2980  1.2258 -2.2463
  179SLPC  H14S20464   5.935   4.900   9.353  0.2022 -0.9777  1.4369
  179SLPC  C21520465   5.955   4.998   9.548 -0.3321 -0.5045 -1.0805
  179SLPC  H15R20466   5.994   5.094   9.588 -0.2885 -1.1057  0.3953
  179SLPC  H15S20467   6.029   4.920   9.576  0.0162  0.0711 -0.3414
  179SLPC  C21620468   5.823   4.960   9.618 -1.0979  0.9408  0.0337
  179SLPC  H16R20469   5.763   4.880   9.569 -1.7991  1.7642 -0.4946
  179SLPC  H16S20470   5.758   5.049   9.602 -1.6304  0.4788 -0.3724
  179SLPC  C21720471   5.845   4.949   9.768 -0.0845  0.5843  0.0206
  179SLPC  H17R20472   5.874   5.050   9.805  0.6233 -0.3046  2.0549
  179SLPC  H17S20473   5.927   4.878   9.793  0.2882  1.7477  2.3424
  179SLPC  C21820474   5.720   4.903   9.844  0.3349  0.3112  1.1185
  179SLPC  H18R20475   5.622   4.927   9.797 -0.2087 -1.9849  0.9838
  179SLPC  H18S20476   5.714   4.933   9.950  1.4683 -1.8492  1.8465
  179SLPC  H18T20477   5.711   4.793   9.856 -3.0022  0.4282  0.7285
  179SLPC   C3320478   5.942   4.029   9.996 -0.2505 -0.5100 -0.5656
  179SLPC   H3X20479   5.884   3.992  10.083  1.1453  0.6166  0.9033
  179SLPC   H3Y20480   6.049   4.023  10.028 -0.8424 -1.1360  1.4225
  179SLPC   C3420481   5.926   3.948   9.869 -0.1663  0.1465 -0.4115
  179SLPC   H4X20482   5.818   3.951   9.843 -0.8588  1.2803  2.2316
  179SLPC   H4Y20483   5.958   3.844   9.889  0.0594  0.4931  1.1931
  179SLPC   C3520484   6.020   4.002   9.757 -0.2309 -0.9226 -1.0397
  179SLPC   H5X20485   6.127   3.997   9.787 -0.8617 -2.2499  1.2437
  179SLPC   H5Y20486   5.983   4.106   9.748  1.2107 -0.2831  0.0900
  179SLPC   C3620487   6.012   3.936   9.620  0.0062 -0.2645  0.3088
  179SLPC   H6X20488   5.911   3.895   9.601  0.2661 -0.7782  0.0270
  179SLPC   H6Y20489   6.081   3.849   9.618 -1.1802 -1.2244 -1.7072
  179SLPC   C3720490   6.063   4.025   9.511 -0.7285 -0.4579  0.4783
  179SLPC   H7X20491   6.167   4.061   9.526 -1.1234  1.6072 -1.2688
  179SLPC   H7Y20492   6.004   4.119   9.508 -1.1069 -0.7038 -1.6568
  179SLPC   C3820493   6.048   3.957   9.373  0.6176 -0.5477  0.3991
  179SLPC   H8X20494   5.942   3.924   9.363  0.3596  0.8100 -2.2475
  179SLPC   H8Y20495   6.109   3.865   9.358 -0.6914 -1.6746  1.7172
  179SLPC   C3920496   6.076   4.057   9.255  0.4297 -0.1965 -0.7454
  179SLPC   H9X20497   6.184   4.082   9.248  0.2303  0.1569 -3.6012
  179SLPC   H9Y20498   6.023   4.151   9.280  0.1167 -0.9698  1.7371
  179SLPC  C31020499   6.051   3.985   9.122 -0.2033  0.0115 -0.1962
  179SLPC  H10X20500   5.943   3.968   9.103 -0.7650  3.4630 -0.8646
  179SLPC  H10Y20501   6.107   3.890   9.133  1.4525  1.2033  2.8126
  179SLPC  C31120502   6.111   4.066   8.999  0.4554 -0.3387  0.2567
  179SLPC  H11X20503   6.098   4.014   8.902 -0.5411  0.0183  0.1936
  179SLPC  H11Y20504   6.218   4.066   9.029  0.0214  2.8926  2.3579
  179SLPC  C31220505   6.049   4.206   8.986  0.4721  0.2182  0.6773
  179SLPC  H12X20506   6.079   4.257   9.080  2.6139 -4.8232  3.0665
  179SLPC  H12Y20507   5.940   4.184   8.991  0.1068  1.6919  0.0172
  179SLPC  C31320508   6.086   4.282   8.856 -0.4552  0.3852 -0.2524
  179SLPC  H13X20509   6.054   4.215   8.774 -0.0370  0.2610 -0.3182
  179SLPC  H13Y20510   6.195   4.305   8.854  0.1574 -2.2281 -0.7000
  179SLPC  C31420511   5.993   4.397   8.841 -0.3901  0.0573 -0.5033
  179SLPC  H14X20512   5.993   4.448   8.940 -1.7346 -2.1177  0.7198
  179SLPC  H14Y20513   5.888   4.366   8.821 -1.1253  0.0109  2.8369
  179SLPC  C31520514   6.033   4.498   8.735  0.1185  0.5692  0.3135
  179SLPC  H15X20515   6.048   4.453   8.634  1.6978 -2.0940  1.6209
  179SLPC  H15Y20516   6.126   4.548   8.768  1.4097 -1.2892 -0.3291
  179SLPC  C31620517   5.916   4.595   8.727  0.0036  0.2055  0.0127
  179SLPC  H16X20518   5.832   4.540   8.679 -0.7018  1.6265 -0.4122
  179SLPC  H16Y20519   5.931   4.666   8.643 -0.0443  0.3679  0.1407
  179SLPC  C31720520   5.891   4.684   8.852 -0.2063 -0.1875  0.9765
  179SLPC  H17X20521   5.855   4.626   8.939  1.4062 -1.0632  1.0906
  179SLPC  H17Y20522   5.809   4.754   8.823  1.4308  2.0958  1.6251
  179SLPC  C31820523   6.013   4.770   8.895 -0.5239  0.5054  0.7685
  179SLPC  H18X20524   6.046   4.822   8.803 -0.5550 -2.5854 -1.1586
  179SLPC  H18Y20525   6.086   4.699   8.939  1.1601  0.0483 -2.4413
  179SLPC  H18Z20526   5.994   4.835   8.983 -0.2835 -2.3529  3.0825
  180SLPC     N20527   2.736   3.674  10.584  0.5395  0.1303 -0.1077
  180SLPC   C1320528   2.656   3.683  10.454  0.2463  0.3933  0.1939
  180SLPC  H13A20529   2.653   3.585  10.409  0.7752  0.6244 -0.3530
  180SLPC  H13B20530   2.553   3.710  10.474  0.4000  1.2048 -0.0919
  180SLPC  H13C20531   2.702   3.756  10.389 -0.0780  2.4502  2.1441
  180SLPC   C1420532   2.653   3.599  10.683  0.6611 -0.2191 -0.1392
  180SLPC  H14A20533   2.637   3.499  10.646 -1.0120  0.4751 -1.4473
  180SLPC  H14B20534   2.707   3.595  10.776  0.8659 -2.2075 -0.3108
  180SLPC  H14C20535   2.556   3.642  10.709  1.6595  0.5823  2.6362
  180SLPC   C1520536   2.751   3.822  10.618 -0.0873 -0.1858  0.0541
  180SLPC  H15A20537   2.778   3.829  10.722 -0.4126 -1.3411  0.2352
  180SLPC  H15B20538   2.826   3.881  10.569 -1.9152  2.9939  0.8009
  180SLPC  H15C20539   2.658   3.877  10.624  1.0423  1.8548 -0.3434
  180SLPC   C1220540   2.875   3.623  10.571 -0.5226  0.2549  0.3687
  180SLPC  H12A20541   2.911   3.624  10.673 -2.5995 -1.3091  1.1859
  180SLPC  H12B20542   2.923   3.699  10.511  0.3902 -2.4757 -2.5968
  180SLPC   C1120543   2.887   3.483  10.505  0.5471 -0.2956  0.7937
  180SLPC  H11A20544   2.997   3.470  10.498  0.5559  0.1762  0.0381
  180SLPC  H11B20545   2.857   3.493  10.399  0.4010 -0.3377  0.8313
  180SLPC     P20546   2.749   3.249  10.520 -0.1358  0.2018 -0.4532
  180SLPC   O1320547   2.742   3.139  10.624 -0.5211 -0.3537  0.5004
  180SLPC   O1420548   2.617   3.311  10.487 -0.1563  0.3520 -0.0569
  180SLPC   O1220549   2.839   3.365  10.575 -0.9333  0.2341  0.2300
  180SLPC   O1120550   2.849   3.220  10.391 -0.2833  0.2872  0.7263
  180SLPC    C120551   2.907   3.094  10.367  0.7463  0.3035  0.7633
  180SLPC    HA20552   2.912   3.032  10.459  0.4625  1.3663  1.5123
  180SLPC    HB20553   2.835   3.046  10.297 -1.7916  3.4452  0.9465
  180SLPC    C220554   3.054   3.109  10.323  0.5569 -0.2330 -0.0810
  180SLPC    HS20555   3.116   3.112  10.415  0.8010  1.6723 -0.2588
  180SLPC   O2120556   3.060   3.229  10.241  0.0836 -0.3563  0.1357
  180SLPC   C2120557   3.178   3.282  10.248  0.2261  0.1809 -0.1684
  180SLPC   O2220558   3.284   3.236  10.287 -0.0037 -0.6264 -0.7577
  180SLPC   C2220559   3.164   3.425  10.216  0.0583 -0.8687  0.4104
  180SLPC   H2R20560   3.058   3.453  10.201  0.2468 -1.3344 -2.4448
  180SLPC   H2S20561   3.208   3.480  10.301  1.9051 -0.8804 -0.4902
  180SLPC    C320562   3.085   2.981  10.231 -0.9509  0.1978 -0.1771
  180SLPC    HX20563   3.011   2.958  10.152  0.9532  0.6599 -2.2005
  180SLPC    HY20564   3.075   2.888  10.290 -0.6644 -0.7996 -1.6355
  180SLPC   O3120565   3.205   2.994  10.144 -0.4808  0.2989 -0.2722
  180SLPC   C3120566   3.311   2.937  10.198  0.2303 -0.3649  0.0117
  180SLPC   O3220567   3.313   2.865  10.298 -0.0698 -0.7437  0.2460
  180SLPC   C3220568   3.433   2.957  10.099  0.4916  0.3147 -0.8573
  180SLPC   H2X20569   3.518   2.924  10.162 -1.1609 -1.7707  0.4130
  180SLPC   H2Y20570   3.440   3.067  10.088 -0.7227  0.8555  2.7631
  180SLPC   C2320571   3.239   3.443  10.088 -0.3750 -0.3552 -0.2293
  180SLPC   H3R20572   3.347   3.419  10.093  0.1844  1.7306 -1.0440
  180SLPC   H3S20573   3.255   3.551  10.063 -1.6849  0.5107  2.3273
  180SLPC   C2420574   3.181   3.383   9.962 -0.7563  0.5027  0.3871
  180SLPC   H4R20575   3.191   3.454   9.877  0.6262  1.3012  1.1749
  180SLPC   H4S20576   3.072   3.377   9.983 -0.6434 -1.2225  0.6459
  180SLPC   C2520577   3.240   3.245   9.917 -1.0095  0.5924 -0.6858
  180SLPC   H5R20578   3.237   3.182  10.009 -1.7186  1.8059  0.1607
  180SLPC   H5S20579   3.343   3.248   9.877 -0.2054  1.8978  1.3172
  180SLPC   C2620580   3.157   3.167   9.810 -0.7805 -0.2593  0.1136
  180SLPC   H6R20581   3.159   3.236   9.723 -0.3146  1.8779  1.7244
  180SLPC   H6S20582   3.057   3.163   9.857 -0.3415 -1.7563  0.9779
  180SLPC   C2720583   3.217   3.027   9.776 -1.0611 -0.3729 -0.8372
  180SLPC   H7R20584   3.212   2.955   9.860 -1.6920 -1.0681 -1.4637
  180SLPC   H7S20585   3.324   3.034   9.747 -0.5592  1.4787  1.1766
  180SLPC   C2820586   3.140   2.946   9.669  0.1378  0.0751 -0.2389
  180SLPC   H8R20587   3.141   3.025   9.591  3.6700 -0.2253 -0.6475
  180SLPC   H8S20588   3.035   2.939   9.706 -0.2902  5.2791  0.2902
  180SLPC   C2920589   3.183   2.815   9.617  0.5620  0.9314  0.3681
  180SLPC   H9R20590   3.160   2.725   9.676 -1.6189  0.4468 -1.0715
  180SLPC  C21020591   3.246   2.801   9.495  0.2461  0.5160  0.7903
  180SLPC  H10R20592   3.279   2.701   9.464  2.8215  1.1570  1.2269
  180SLPC  C21120593   3.286   2.900   9.388  0.7198 -0.3896  0.1413
  180SLPC  H11R20594   3.237   2.999   9.398  0.6078 -0.5641  1.4155
  180SLPC  H11S20595   3.251   2.872   9.286  0.0881  0.4704  0.1155
  180SLPC  C21220596   3.435   2.916   9.389 -0.0281 -0.5447 -0.0664
  180SLPC  H12R20597   3.484   2.860   9.470 -1.2529 -0.1879  0.9742
  180SLPC  C21320598   3.493   2.996   9.296 -0.0417  0.2632 -0.1195
  180SLPC  H13R20599   3.599   3.021   9.304 -0.5860  2.0478  3.9200
  180SLPC  C21420600   3.419   3.076   9.191  0.4008  0.1744 -0.5967
  180SLPC  H14R20601   3.408   3.179   9.230  0.2918 -0.5340  1.3511
  180SLPC  H14S20602   3.316   3.039   9.172 -0.6065 -0.5672  4.8373
  180SLPC  C21520603   3.492   3.079   9.060 -0.8887  0.7531 -0.3193
  180SLPC  H15R20604   3.420   3.117   8.984 -2.2487 -0.0386  0.5266
  180SLPC  H15S20605   3.516   2.974   9.032 -2.5802  1.1184 -3.6711
  180SLPC  C21620606   3.607   3.182   9.065  0.1895  0.0945 -0.3145
  180SLPC  H16R20607   3.673   3.154   9.150 -1.9651 -2.3763  0.6687
  180SLPC  H16S20608   3.580   3.288   9.085  3.2464  0.9870 -0.4552
  180SLPC  C21720609   3.698   3.175   8.943  0.3858 -0.9804  0.2926
  180SLPC  H17R20610   3.721   3.072   8.909 -0.2071 -0.5796 -1.4324
  180SLPC  H17S20611   3.790   3.231   8.969 -0.0047  0.9908 -2.1584
  180SLPC  C21820612   3.634   3.244   8.822 -0.0288  0.5946 -0.7219
  180SLPC  H18R20613   3.640   3.355   8.827 -0.0915  0.5764 -0.1861
  180SLPC  H18S20614   3.531   3.211   8.800  0.5728 -0.1623 -2.6146
  180SLPC  H18T20615   3.691   3.217   8.731 -1.5557 -5.2948 -0.2912
  180SLPC   C3320616   3.436   2.881   9.971  0.1483 -0.0816 -0.3552
  180SLPC   H3X20617   3.457   2.952   9.888  2.1439  2.0666  1.8070
  180SLPC   H3Y20618   3.338   2.832   9.955 -0.4262  0.5172  1.1634
  180SLPC   C3420619   3.533   2.764   9.980  0.0561 -0.7958  0.3248
  180SLPC   H4X20620   3.509   2.713  10.075 -1.4647  2.4054  1.8248
  180SLPC   H4Y20621   3.637   2.801   9.989 -0.4890  1.1959 -0.8403
  180SLPC   C3520622   3.526   2.671   9.855  0.1632  0.5529 -0.9712
  180SLPC   H5X20623   3.529   2.725   9.758  0.7490  0.1814 -1.1624
  180SLPC   H5Y20624   3.428   2.620   9.868  1.1706 -1.5163 -1.0974
  180SLPC   C3620625   3.638   2.564   9.847 -0.1210 -0.7271 -0.8676
  180SLPC   H6X20626   3.614   2.507   9.939 -2.3967  1.4811  0.0125
  180SLPC   H6Y20627   3.735   2.615   9.866  0.3533 -1.3077 -1.6662
  180SLPC   C3720628   3.645   2.483   9.718 -0.0233  0.1853 -1.0971
  180SLPC   H7X20629   3.547   2.433   9.708 -0.5417  1.2727 -1.6182
  180SLPC   H7Y20630   3.722   2.405   9.738  0.1533  0.3328 -1.1960
  180SLPC   C3820631   3.686   2.551   9.587  0.4443 -0.2203 -0.4087
  180SLPC   H8X20632   3.784   2.600   9.607 -0.1506  0.5058  0.8863
  180SLPC   H8Y20633   3.619   2.632   9.552  1.4215  0.2892 -1.1686
  180SLPC   C3920634   3.703   2.459   9.464  0.5960  1.2626  0.0262
  180SLPC   H9X20635   3.605   2.413   9.437  2.4327 -1.7439 -2.1261
  180SLPC   H9Y20636   3.763   2.374   9.502 -0.9767  0.4281  0.7669
  180SLPC  C31020637   3.777   2.525   9.349  0.3577 -0.5048 -0.6356
  180SLPC  H10X20638   3.828   2.448   9.287  2.6081  0.2764  0.1537
  180SLPC  H10Y20639   3.848   2.598   9.392  1.2508  0.0649 -2.9698
  180SLPC  C31120640   3.690   2.608   9.251 -0.0852 -0.6615 -0.2076
  180SLPC  H11X20641   3.652   2.694   9.312 -2.5636 -0.7360 -1.4976
  180SLPC  H11Y20642   3.600   2.556   9.212 -1.2567  0.1253  1.3283
  180SLPC  C31220643   3.768   2.642   9.121 -0.8843  0.3072 -0.3969
  180SLPC  H12X20644   3.786   2.544   9.071  0.9245 -0.8940  2.3724
  180SLPC  H12Y20645   3.862   2.691   9.153  0.7032 -2.0520 -1.1379
  180SLPC  C31320646   3.701   2.740   9.022  0.2716  0.0294  0.0338
  180SLPC  H13X20647   3.676   2.837   9.071 -2.6007  0.1220 -1.3989
  180SLPC  H13Y20648   3.601   2.706   8.986  1.0259 -2.2563 -0.0378
  180SLPC  C31420649   3.791   2.767   8.897  0.3589 -0.3836 -0.0497
  180SLPC  H14X20650   3.731   2.832   8.831 -1.1156 -2.3911 -0.7865
  180SLPC  H14Y20651   3.792   2.671   8.841  0.1805  0.5657 -1.7476
  180SLPC  C31520652   3.930   2.830   8.923  0.3011  0.1713 -0.3585
  180SLPC  H15X20653   3.996   2.750   8.964  1.0182 -0.1070 -1.9803
  180SLPC  H15Y20654   3.920   2.908   9.001  0.5142 -0.9476  0.8274
  180SLPC  C31620655   3.997   2.890   8.796 -0.0137  0.5284 -0.3189
  180SLPC  H16X20656   4.084   2.955   8.821  1.0026 -1.3261  1.1766
  180SLPC  H16Y20657   3.928   2.959   8.742 -0.1825 -0.7457 -1.7978
  180SLPC  C31720658   4.017   2.777   8.690 -0.5310 -0.0056 -0.3591
  180SLPC  H17X20659   3.919   2.735   8.658 -0.8645  1.0508 -0.7531
  180SLPC  H17Y20660   4.067   2.689   8.735 -1.8111 -0.6292 -0.0954
  180SLPC  C31820661   4.097   2.836   8.573  0.5294  0.5433  0.2844
  180SLPC  H18X20662   4.048   2.917   8.515 -1.5774 -0.6094  0.3502
  180SLPC  H18Y20663   4.123   2.751   8.506  1.6770  0.7771  0.4107
  180SLPC  H18Z20664   4.202   2.861   8.600  1.6945 -1.4662 -1.9570
  181SLPC     N20665   3.094   3.251  10.812  0.2200 -0.1972  0.6415
  181SLPC   C1320666   3.133   3.270  10.667  0.0198 -0.3940  0.4600
  181SLPC  H13A20667   3.046   3.282  10.604  0.6035  0.0244 -0.2855
  181SLPC  H13B20668   3.185   3.364  10.657  1.0998 -1.1746 -2.4537
  181SLPC  H13C20669   3.204   3.195  10.635  1.6906  2.8562 -4.8510
  181SLPC   C1420670   3.009   3.361  10.843  0.4726  0.4814  0.1344
  181SLPC  H14A20671   2.950   3.338  10.931  1.0816 -1.7006  0.0377
  181SLPC  H14B20672   3.068   3.448  10.866 -0.6213  2.1616 -2.8190
  181SLPC  H14C20673   2.944   3.381  10.758  1.5417 -0.7665 -1.0339
  181SLPC   C1520674   3.212   3.263  10.902 -1.0761  0.1488 -0.2259
  181SLPC  H15A20675   3.199   3.300  11.002  3.0475  0.1720  0.4536
  181SLPC  H15B20676   3.260   3.167  10.914 -1.5409 -0.0706 -0.0754
  181SLPC  H15C20677   3.293   3.318  10.856  0.1943 -2.1588 -0.9327
  181SLPC   C1220678   3.031   3.116  10.825 -0.5153  0.3490 -0.0625
  181SLPC  H12A20679   2.941   3.107  10.765 -1.0981  0.6747  0.7393
  181SLPC  H12B20680   3.009   3.104  10.930  0.1960 -0.4672  0.0034
  181SLPC   C1120681   3.118   2.988  10.785 -0.0962 -0.4490  0.1012
  181SLPC  H11A20682   3.169   3.012  10.690 -1.4455  1.1890 -0.2635
  181SLPC  H11B20683   3.060   2.899  10.752  1.9759 -1.1741 -1.8065
  181SLPC     P20684   3.320   2.860  10.917  0.4030  0.1167 -0.1658
  181SLPC   O1320685   3.437   2.932  10.973  0.2392 -0.6895 -0.1193
  181SLPC   O1420686   3.263   2.743  10.995 -0.0310  0.0573  0.0925
  181SLPC   O1220687   3.203   2.961  10.900  0.3586 -0.2622 -0.5234
  181SLPC   O1120688   3.347   2.818  10.767 -0.6096 -0.8024 -0.2054
  181SLPC    C120689   3.303   2.709  10.704 -0.1298  0.0639 -0.1642
  181SLPC    HA20690   3.215   2.671  10.760 -1.0998  0.3626 -1.4423
  181SLPC    HB20691   3.265   2.745  10.606  0.6512  5.4725  1.2206
  181SLPC    C220692   3.420   2.609  10.711  0.1477  0.4977  0.3613
  181SLPC    HS20693   3.457   2.617  10.816 -0.4082  1.8114  0.4734
  181SLPC   O2120694   3.523   2.657  10.624 -0.0842 -0.3272 -0.3238
  181SLPC   C2120695   3.639   2.598  10.638  0.1138 -0.0110  0.0013
  181SLPC   O2220696   3.663   2.506  10.719  0.5935 -0.0773  1.0034
  181SLPC   C2220697   3.737   2.657  10.538  0.9082  0.4059  0.3615
  181SLPC   H2R20698   3.840   2.644  10.576  1.1084  0.3075 -0.1947
  181SLPC   H2S20699   3.728   2.587  10.452 -2.5036  0.7810  0.2880
  181SLPC    C320700   3.377   2.460  10.671  0.2769 -0.0714 -0.1908
  181SLPC    HX20701   3.322   2.430  10.762  0.2547 -1.2117 -0.5601
  181SLPC    HY20702   3.468   2.395  10.667 -0.7132 -1.4525 -1.1951
  181SLPC   O3120703   3.291   2.447  10.552 -0.2369  0.3600 -0.5668
  181SLPC   C3120704   3.349   2.458  10.435 -0.0553  0.0995 -0.2141
  181SLPC   O3220705   3.474   2.460  10.413  0.0090 -0.5032  0.0622
  181SLPC   C3220706   3.250   2.471  10.322  0.2214  0.2731  0.6204
  181SLPC   H2X20707   3.223   2.579  10.322  0.7844  0.4713  2.8027
  181SLPC   H2Y20708   3.157   2.420  10.353  0.6546 -1.0774 -0.1920
  181SLPC   C2320709   3.692   2.798  10.491 -0.3267  0.0652 -0.5375
  181SLPC   H3R20710   3.651   2.863  10.572  0.1631  0.8079 -0.8770
  181SLPC   H3S20711   3.605   2.784  10.424  0.1701 -0.9656 -0.9814
  181SLPC   C2420712   3.801   2.870  10.411  0.0130 -0.6637  0.0221
  181SLPC   H4R20713   3.886   2.900  10.476 -0.9059 -0.8503  1.3481
  181SLPC   H4S20714   3.750   2.961  10.374  0.5719  0.1309  1.1480
  181SLPC   C2520715   3.847   2.787  10.287 -0.3676 -0.1971  0.6159
  181SLPC   H5R20716   3.747   2.777  10.240 -0.2203  0.4784  0.1480
  181SLPC   H5S20717   3.892   2.693  10.325 -1.5576 -0.5142  1.3076
  181SLPC   C2620718   3.946   2.874  10.209 -0.6204 -0.1620  0.2885
  181SLPC   H6R20719   4.042   2.882  10.265  0.0604  0.2643 -0.9034
  181SLPC   H6S20720   3.903   2.977  10.208 -0.1045  0.0544 -0.0182
  181SLPC   C2720721   3.966   2.822  10.066  0.1813  0.3246  0.4770
  181SLPC   H7R20722   3.866   2.836  10.020  0.3804  0.1006 -0.0240
  181SLPC   H7S20723   3.982   2.713  10.077 -1.0221  0.0156 -0.5897
  181SLPC   C2820724   4.068   2.891   9.970 -0.6405  0.2337 -0.1420
  181SLPC   H8R20725   4.159   2.919  10.028 -1.2774 -0.1569  1.1025
  181SLPC   H8S20726   4.019   2.983   9.931  0.1135  1.0970  0.8607
  181SLPC   C2920727   4.079   2.794   9.856 -0.9363 -0.2527  0.7940
  181SLPC   H9R20728   4.124   2.700   9.891 -0.5771 -0.7318 -0.8901
  181SLPC  C21020729   4.050   2.808   9.723 -0.5500  0.3706  0.4030
  181SLPC  H10R20730   4.077   2.731   9.651 -0.9155  1.1992 -0.6442
  181SLPC  C21120731   3.996   2.933   9.657  0.0513 -1.6796 -0.1289
  181SLPC  H11R20732   4.064   2.963   9.575 -2.1424  0.3624 -1.3205
  181SLPC  H11S20733   4.001   3.009   9.739  1.2977 -0.5548 -1.1925
  181SLPC  C21220734   3.853   2.926   9.610 -0.1567 -0.7194 -0.3651
  181SLPC  H12R20735   3.787   2.871   9.679 -1.4246  0.6167 -0.4568
  181SLPC  C21320736   3.800   2.982   9.500 -0.1775 -0.6708 -0.7040
  181SLPC  H13R20737   3.692   2.962   9.487 -0.3386 -0.3747  0.1262
  181SLPC  C21420738   3.876   3.052   9.391 -1.1043 -0.0935 -0.7123
  181SLPC  H14R20739   3.834   2.993   9.306 -1.7134 -1.4336  0.4759
  181SLPC  H14S20740   3.987   3.051   9.386 -1.1308 -0.0305 -1.5670
  181SLPC  C21520741   3.846   3.199   9.362 -0.7054  0.4322 -0.2013
  181SLPC  H15R20742   3.736   3.214   9.357 -1.4649 -3.9642 -0.4091
  181SLPC  H15S20743   3.893   3.227   9.266 -0.0051  0.9563  0.2855
  181SLPC  C21620744   3.904   3.295   9.466 -0.3775 -0.0396  0.1545
  181SLPC  H16R20745   4.015   3.298   9.461 -0.2222 -1.7999  1.5988
  181SLPC  H16S20746   3.884   3.260   9.570 -1.7046 -2.2180 -0.7584
  181SLPC  C21720747   3.859   3.433   9.432  0.2700 -0.0576  0.0615
  181SLPC  H17R20748   3.750   3.438   9.409  0.0399 -2.9080  0.1582
  181SLPC  H17S20749   3.899   3.472   9.336  2.7396 -1.4640  0.4475
  181SLPC  C21820750   3.880   3.533   9.541 -0.2966 -0.2135  0.1513
  181SLPC  H18R20751   3.855   3.639   9.520 -2.5675 -0.3374  1.9076
  181SLPC  H18S20752   3.981   3.518   9.586 -2.1074 -1.9115  4.1538
  181SLPC  H18T20753   3.813   3.496   9.621  1.3652  0.1816  1.7933
  181SLPC   C3320754   3.291   2.419  10.183 -0.2110 -0.1146 -0.3373
  181SLPC   H3X20755   3.305   2.309  10.178  0.0510 -0.1909  1.3893
  181SLPC   H3Y20756   3.388   2.472  10.167  0.2785 -0.4641  1.2312
  181SLPC   C3420757   3.196   2.463  10.081 -0.1978  0.2449  0.5223
  181SLPC   H4X20758   3.173   2.571  10.072  2.0012  0.7195 -0.0836
  181SLPC   H4Y20759   3.094   2.425  10.104 -0.7246  0.5817 -1.1147
  181SLPC   C3520760   3.232   2.415   9.939 -0.0811  0.4144 -0.6739
  181SLPC   H5X20761   3.224   2.304   9.937  0.5715  0.3570 -0.1825
  181SLPC   H5Y20762   3.339   2.439   9.922 -0.2746  1.9250  0.0410
  181SLPC   C3620763   3.145   2.476   9.827  0.5013  0.4852  0.0065
  181SLPC   H6X20764   3.149   2.587   9.822 -0.9615  0.6326  1.2758
  181SLPC   H6Y20765   3.042   2.440   9.848  0.3373  1.1297  0.3421
  181SLPC   C3720766   3.201   2.428   9.694  0.3458 -0.9969  0.0508
  181SLPC   H7X20767   3.208   2.317   9.700 -0.4758 -0.9609  2.3288
  181SLPC   H7Y20768   3.308   2.454   9.683  0.4514 -1.7549 -0.8675
  181SLPC   C3820769   3.118   2.470   9.567 -0.1175 -0.0352  0.4508
  181SLPC   H8X20770   3.093   2.577   9.554  0.7910  0.2623  1.0055
  181SLPC   H8Y20771   3.026   2.408   9.567  0.0207 -0.2675 -1.2682
  181SLPC   C3920772   3.208   2.426   9.445  0.4102 -0.1032 -0.2550
  181SLPC   H9X20773   3.223   2.316   9.448  1.6022  0.0512  1.8656
  181SLPC   H9Y20774   3.311   2.464   9.433  0.8359 -1.2804 -0.4048
  181SLPC  C31020775   3.138   2.477   9.321  0.2349 -0.4959  0.4013
  181SLPC  H10X20776   3.135   2.588   9.316  1.7039 -0.4559 -0.6037
  181SLPC  H10Y20777   3.033   2.445   9.337  0.8808 -1.9044  2.0506
  181SLPC  C31120778   3.199   2.416   9.191  0.6730 -0.2201  0.2470
  181SLPC  H11X20779   3.130   2.445   9.109 -1.8340 -0.8251  2.0243
  181SLPC  H11Y20780   3.202   2.307   9.211 -1.2411 -1.0215 -3.1097
  181SLPC  C31220781   3.332   2.479   9.146  0.8329  0.3398 -0.0872
  181SLPC  H12X20782   3.375   2.413   9.069 -1.5315 -2.1736  0.5866
  181SLPC  H12Y20783   3.401   2.491   9.233 -1.2929  3.7374  1.3757
  181SLPC  C31320784   3.323   2.616   9.078 -0.0097  0.7945 -0.4110
  181SLPC  H13X20785   3.413   2.679   9.096  0.5253 -0.3532  1.2447
  181SLPC  H13Y20786   3.237   2.667   9.126  0.3691  0.9778  0.0900
  181SLPC  C31420787   3.296   2.609   8.922  0.6902 -0.3656 -0.1598
  181SLPC  H14X20788   3.197   2.562   8.903  0.1231  0.9227 -0.5750
  181SLPC  H14Y20789   3.381   2.561   8.871  1.6090  3.0203 -2.1225
  181SLPC  C31520790   3.257   2.750   8.865  0.3409  0.5832  0.0626
  181SLPC  H15X20791   3.227   2.809   8.954 -1.2004  1.2863 -0.8897
  181SLPC  H15Y20792   3.169   2.741   8.798 -0.1362 -0.6340  0.8130
  181SLPC  C31620793   3.371   2.813   8.779  0.3651 -0.0313 -0.2840
  181SLPC  H16X20794   3.417   2.727   8.726 -0.0070  0.1682 -0.9292
  181SLPC  H16Y20795   3.453   2.850   8.844  0.1268 -1.7698  1.0871
  181SLPC  C31720796   3.324   2.934   8.701  0.0608 -0.4378  0.6228
  181SLPC  H17X20797   3.285   3.006   8.776  0.5802  1.1297 -0.5516
  181SLPC  H17Y20798   3.234   2.905   8.643  0.7804 -0.8281 -0.3399
  181SLPC  C31820799   3.427   2.984   8.603 -0.4708  0.0915 -0.6040
  181SLPC  H18X20800   3.403   3.081   8.555  2.0136  0.4235 -1.3328
  181SLPC  H18Y20801   3.453   2.905   8.529 -0.2455 -0.5516  0.1636
  181SLPC  H18Z20802   3.524   3.002   8.654 -1.3176  1.0405  0.7233
  182SLPC     N20803   2.558   1.981  10.727  0.2964  0.6229 -0.6612
  182SLPC   C1320804   2.626   2.068  10.832  0.0461  0.3623  0.1005
  182SLPC  H13A20805   2.707   2.117  10.781  1.4323 -2.3352 -0.4595
  182SLPC  H13B20806   2.559   2.143  10.874 -1.8567 -1.2612  0.1250
  182SLPC  H13C20807   2.667   2.016  10.918  0.1000  1.6110  0.8588
  182SLPC   C1420808   2.654   1.878  10.696 -0.6573  0.2157 -0.2071
  182SLPC  H14A20809   2.729   1.922  10.633 -0.4742 -3.1853 -2.6658
  182SLPC  H14B20810   2.707   1.837  10.780 -1.3665 -0.4167 -0.0531
  182SLPC  H14C20811   2.615   1.803  10.629 -1.5640  0.8121 -0.3673
  182SLPC   C1520812   2.525   2.063  10.603 -0.1947  0.6216  0.5871
  182SLPC  H15A20813   2.452   2.137  10.632  0.6094  2.2668 -1.3482
  182SLPC  H15B20814   2.614   2.113  10.569 -1.1015  2.1168  0.3264
  182SLPC  H15C20815   2.490   2.001  10.521  2.1597 -0.9432  0.6815
  182SLPC   C1220816   2.426   1.933  10.794  0.3041  0.7240  0.2064
  182SLPC  H12A20817   2.463   1.879  10.880 -1.7533  1.5571  1.6985
  182SLPC  H12B20818   2.370   1.867  10.729  0.5358 -0.7522  1.4688
  182SLPC   C1120819   2.323   2.035  10.848  0.5306 -0.2622  0.3374
  182SLPC  H11A20820   2.372   2.115  10.906  0.4037 -0.0464  0.1492
  182SLPC  H11B20821   2.264   1.968  10.914  1.3859 -1.0502  0.3240
  182SLPC     P20822   2.132   2.012  10.668 -0.2893 -0.2270  0.0642
  182SLPC   O1320823   2.019   1.986  10.763  0.1369  0.2296  0.0155
  182SLPC   O1420824   2.109   2.079  10.540  0.4635  0.1588  0.1140
  182SLPC   O1220825   2.241   2.097  10.740 -0.0427  0.0424  0.2958
  182SLPC   O1120826   2.213   1.876  10.633 -0.7011  0.3759 -0.1972
  182SLPC    C120827   2.130   1.771  10.568 -0.1736 -0.5770 -0.2316
  182SLPC    HA20828   2.157   1.676  10.619  1.2430 -1.0037 -1.7013
  182SLPC    HB20829   2.022   1.789  10.590 -0.1172 -1.4276  0.8199
  182SLPC    C220830   2.152   1.739  10.411  0.6468 -0.0990 -0.1362
  182SLPC    HS20831   2.256   1.706  10.390  0.8997  1.4008 -1.4594
  182SLPC   O2120832   2.130   1.865  10.337 -0.1991  0.4676  0.3822
  182SLPC   C2120833   2.241   1.949  10.328 -0.9579 -0.3742 -0.5808
  182SLPC   O2220834   2.350   1.915  10.364 -0.1655 -0.4390  0.2907
  182SLPC   C2220835   2.201   2.084  10.263 -0.6466  1.0020 -0.3237
  182SLPC   H2R20836   2.098   2.115  10.290 -1.0353  1.5563 -2.2801
  182SLPC   H2S20837   2.268   2.165  10.299  1.7821 -0.5297 -1.0810
  182SLPC    C320838   2.051   1.621  10.364 -0.0341 -0.2028  0.1337
  182SLPC    HX20839   1.946   1.655  10.375 -0.0642 -0.0924 -0.4350
  182SLPC    HY20840   2.069   1.540  10.438  0.4556  2.0016  2.5771
  182SLPC   O3120841   2.085   1.575  10.229  0.0480  0.7203 -0.5774
  182SLPC   C3120842   2.001   1.629  10.130  0.0993 -0.0432 -0.5677
  182SLPC   O3220843   1.915   1.713  10.143 -0.2313  0.4755 -0.0856
  182SLPC   C3220844   2.066   1.577  10.001  0.1132  0.4685  0.2275
  182SLPC   H2X20845   2.050   1.468  10.015 -1.0660  0.5371 -0.4309
  182SLPC   H2Y20846   2.172   1.608  10.006  0.2200  0.0117  0.8170
  182SLPC   C2320847   2.232   2.078  10.115 -0.1713 -0.3827  0.1282
  182SLPC   H3R20848   2.335   2.042  10.093  1.1821  1.8686  2.2606
  182SLPC   H3S20849   2.247   2.185  10.091  3.8229 -1.0335 -1.1240
  182SLPC   C2420850   2.124   2.010  10.036 -0.2463  0.0425  0.0368
  182SLPC   H4R20851   2.046   1.978  10.109 -2.9651  1.5672 -1.9973
  182SLPC   H4S20852   2.172   1.920   9.994 -1.3495 -0.7069  0.3379
  182SLPC   C2520853   2.058   2.098   9.924  0.2545  0.5050 -0.5430
  182SLPC   H5R20854   2.143   2.127   9.859  0.5647 -0.0460 -0.3902
  182SLPC   H5S20855   2.019   2.184   9.982  1.6738  0.0805  1.1182
  182SLPC   C2620856   1.943   2.042   9.839  0.1865 -0.0458  0.0596
  182SLPC   H6R20857   1.981   1.943   9.806  2.6618  0.5055  0.9876
  182SLPC   H6S20858   1.930   2.101   9.746 -0.8088  0.0419  0.2461
  182SLPC   C2720859   1.808   2.027   9.918  0.5049 -0.0158  1.0105
  182SLPC   H7R20860   1.791   2.126   9.964  2.3326  0.1897  1.3459
  182SLPC   H7S20861   1.832   1.955   9.999  0.4008 -0.1907  0.8882
  182SLPC   C2820862   1.679   1.990   9.841 -1.1589  0.1212  0.1720
  182SLPC   H8R20863   1.641   2.078   9.785 -0.9231 -0.6981 -1.3221
  182SLPC   H8S20864   1.607   1.961   9.921 -2.9310  0.8274 -1.1147
  182SLPC   C2920865   1.704   1.874   9.749  0.2190  0.1089 -1.0754
  182SLPC   H9R20866   1.701   1.777   9.801 -0.0217  0.7337  0.1057
  182SLPC  C21020867   1.735   1.886   9.616 -0.5284 -0.1645 -0.0223
  182SLPC  H10R20868   1.748   1.798   9.551  3.2821 -0.0418  0.3573
  182SLPC  C21120869   1.746   2.023   9.538  0.4187 -0.7374  0.2089
  182SLPC  H11R20870   1.783   2.096   9.614  0.4750 -2.4301  1.8985
  182SLPC  H11S20871   1.650   2.058   9.494  0.7468  0.8235  0.6552
  182SLPC  C21220872   1.867   2.008   9.443  0.9594  0.1628 -0.1827
  182SLPC  H12R20873   1.958   2.059   9.479 -0.2358  0.7985  2.1263
  182SLPC  C21320874   1.849   1.950   9.320 -0.5364  0.1561 -0.5984
  182SLPC  H13R20875   1.939   1.926   9.262 -1.5856  0.5163 -2.4476
  182SLPC  C21420876   1.719   1.897   9.266 -0.6209  0.0285  1.0645
  182SLPC  H14R20877   1.696   1.926   9.161  1.2344 -1.7349  0.0803
  182SLPC  H14S20878   1.630   1.924   9.325  0.0062  1.4530  1.3956
  182SLPC  C21520879   1.721   1.741   9.267  0.6585  0.4151 -0.0677
  182SLPC  H15R20880   1.624   1.693   9.243  0.9812  0.2565 -1.0735
  182SLPC  H15S20881   1.749   1.699   9.366  0.5455  1.0894  0.2537
  182SLPC  C21620882   1.814   1.668   9.163  0.2318  0.4103 -0.0967
  182SLPC  H16R20883   1.786   1.561   9.159  1.4252  0.1274 -1.8539
  182SLPC  H16S20884   1.915   1.673   9.208 -1.2951  0.9670  3.6205
  182SLPC  C21720885   1.813   1.723   9.025  0.0759 -0.2719 -0.8965
  182SLPC  H17R20886   1.902   1.682   8.973  2.1937 -0.2541  2.4395
  182SLPC  H17S20887   1.830   1.833   9.036 -0.2951 -0.2565 -0.4651
  182SLPC  C21820888   1.685   1.716   8.936  0.6015  0.0519 -0.0485
  182SLPC  H18R20889   1.708   1.760   8.837 -1.1078 -0.8420 -0.8852
  182SLPC  H18S20890   1.591   1.759   8.975 -0.7170 -1.8213 -1.0095
  182SLPC  H18T20891   1.669   1.607   8.917  1.1258  0.1426 -1.0660
  182SLPC   C3320892   2.005   1.628   9.874  0.1859  0.3238  0.5105
  182SLPC   H3X20893   1.972   1.734   9.868 -1.6918 -0.3007 -2.0758
  182SLPC   H3Y20894   1.906   1.582   9.852 -0.7327  1.9407  1.0756
  182SLPC   C3420895   2.097   1.589   9.762 -0.3843 -0.5480 -0.1114
  182SLPC   H4X20896   2.093   1.478   9.758  0.9667 -0.7304  1.8794
  182SLPC   H4Y20897   2.204   1.616   9.776 -0.3749 -0.6221 -0.0386
  182SLPC   C3520898   2.065   1.668   9.634 -0.1366  0.1120 -0.1658
  182SLPC   H5X20899   2.060   1.776   9.658  2.5343  0.1655  0.4191
  182SLPC   H5Y20900   1.964   1.639   9.599 -0.5903  1.3172  0.0988
  182SLPC   C3620901   2.167   1.647   9.523 -0.1809  0.7467 -0.4865
  182SLPC   H6X20902   2.164   1.538   9.501 -0.2249  0.2647  1.7481
  182SLPC   H6Y20903   2.267   1.656   9.571 -1.8116  1.3771  3.0538
  182SLPC   C3720904   2.135   1.730   9.412 -0.1156 -0.2459  0.3608
  182SLPC   H7X20905   2.143   1.836   9.444  2.2018 -0.0393 -0.7022
  182SLPC   H7Y20906   2.031   1.723   9.373  0.7325 -1.1071 -1.9507
  182SLPC   C3820907   2.234   1.715   9.297 -0.5432  0.0372  0.1729
  182SLPC   H8X20908   2.338   1.727   9.336 -0.0729  0.9017 -1.2862
  182SLPC   H8Y20909   2.227   1.796   9.222 -1.8305 -1.6786 -1.6428
  182SLPC   C3920910   2.235   1.579   9.222  0.9860  0.3195 -0.6108
  182SLPC   H9X20911   2.135   1.532   9.212  1.5320 -0.5719 -2.1814
  182SLPC   H9Y20912   2.304   1.517   9.285 -0.2537 -0.1715  0.3046
  182SLPC  C31020913   2.285   1.577   9.079 -0.1123  0.8111 -0.1066
  182SLPC  H10X20914   2.295   1.468   9.060  1.7382  0.8210  0.6173
  182SLPC  H10Y20915   2.379   1.636   9.076 -0.5865  1.5865  0.0238
  182SLPC  C31120916   2.179   1.622   8.973 -0.1239  0.2367 -0.0776
  182SLPC  H11X20917   2.163   1.730   8.993 -2.2191  0.1582 -1.1629
  182SLPC  H11Y20918   2.081   1.574   8.992 -0.0099  0.3670  0.9103
  182SLPC  C31220919   2.232   1.586   8.834  0.4761 -0.3696 -0.2933
  182SLPC  H12X20920   2.292   1.493   8.843  0.3383 -0.4179  0.1477
  182SLPC  H12Y20921   2.306   1.663   8.806 -0.2264  0.7836  0.9041
  182SLPC  C31320922   2.120   1.589   8.734 -0.1875  0.1785 -0.0196
  182SLPC  H13X20923   2.081   1.691   8.711 -0.0977  0.7450  2.1540
  182SLPC  H13Y20924   2.043   1.521   8.777  0.2812 -0.3245  0.0322
  182SLPC  C31420925   2.162   1.529   8.600 -0.4334  0.0484 -0.7428
  182SLPC  H14X20926   2.208   1.431   8.626 -0.3371  0.0963 -0.7327
  182SLPC  H14Y20927   2.242   1.591   8.554  2.0960 -2.4014  0.0916
  182SLPC  C31520928   2.050   1.495   8.495 -1.0502  0.1826 -0.3232
  182SLPC  H15X20929   1.988   1.586   8.476  0.0507  1.4452  1.7480
  182SLPC  H15Y20930   1.977   1.420   8.533 -1.0312  1.0744  1.6515
  182SLPC  C31620931   2.107   1.441   8.363  0.2459  0.9542  0.2255
  182SLPC  H16X20932   2.019   1.411   8.302  1.1826  0.2891 -0.8334
  182SLPC  H16Y20933   2.156   1.342   8.376 -0.8697  0.4327  0.5837
  182SLPC  C31720934   2.205   1.519   8.268 -0.0919 -0.2132  0.4976
  182SLPC  H17X20935   2.209   1.444   8.186  0.2047 -1.1334  1.3396
  182SLPC  H17Y20936   2.299   1.531   8.326 -0.2211  0.3564  0.6008
  182SLPC  C31820937   2.146   1.645   8.202 -1.0494 -0.1316 -0.4872
  182SLPC  H18X20938   2.063   1.624   8.131 -0.5893 -1.9294 -0.5418
  182SLPC  H18Y20939   2.226   1.700   8.148  3.0027 -2.5525  2.4398
  182SLPC  H18Z20940   2.107   1.713   8.281 -3.3919 -2.0767  0.1523
  183SLPC     N20941   2.302   5.346  10.790  0.0523  0.5257 -0.2739
  183SLPC   C1320942   2.296   5.486  10.742 -0.1616  0.3102 -0.2801
  183SLPC  H13A20943   2.247   5.555  10.809  0.5999  0.0749  0.5493
  183SLPC  H13B20944   2.396   5.529  10.741  0.4489 -1.0532 -1.1255
  183SLPC  H13C20945   2.264   5.501  10.640  1.0765  0.3131 -0.6902
  183SLPC   C1420946   2.166   5.283  10.792  0.4701  1.2173 -0.1452
  183SLPC  H14A20947   2.106   5.338  10.863  0.6185  0.7809  0.3267
  183SLPC  H14B20948   2.119   5.274  10.695  0.9304 -0.9064 -0.2099
  183SLPC  H14C20949   2.169   5.184  10.835 -0.0988  2.0580  1.9694
  183SLPC   C1520950   2.357   5.344  10.935  0.0193 -0.4048 -0.2771
  183SLPC  H15A20951   2.364   5.241  10.967 -0.6035 -0.9602 -1.8386
  183SLPC  H15B20952   2.452   5.395  10.937 -1.7337  3.1797  1.3130
  183SLPC  H15C20953   2.285   5.388  11.002 -1.1961 -0.2644 -1.6142
  183SLPC   C1220954   2.406   5.278  10.713 -0.1659  0.8634 -0.0578
  183SLPC  H12A20955   2.402   5.184  10.765 -0.3260  0.1623 -1.2984
  183SLPC  H12B20956   2.503   5.323  10.728 -0.7738  2.0787  0.3323
  183SLPC   C1120957   2.394   5.258  10.561  0.5591  0.2851 -0.5523
  183SLPC  H11A20958   2.486   5.206  10.526  0.4691 -0.3695  0.1662
  183SLPC  H11B20959   2.393   5.358  10.512  2.3131  0.6865  0.1333
  183SLPC     P20960   2.268   5.034  10.531 -0.0568 -0.1218 -0.1789
  183SLPC   O1320961   2.289   5.006  10.674  0.3241  0.0546 -0.3544
  183SLPC   O1420962   2.133   5.002  10.482  0.6426  0.4835  0.0015
  183SLPC   O1220963   2.276   5.188  10.511 -0.3049 -0.4271 -0.0784
  183SLPC   O1120964   2.383   4.981  10.433 -0.2834 -0.1564 -0.4632
  183SLPC    C120965   2.398   5.034  10.306  0.9400 -0.3371  1.1484
  183SLPC    HA20966   2.358   5.135  10.283  1.2144 -0.4381  0.1665
  183SLPC    HB20967   2.505   5.036  10.275  0.4988 -2.7919 -0.8078
  183SLPC    C220968   2.326   4.960  10.194 -0.0559 -0.4771 -0.1675
  183SLPC    HS20969   2.380   4.990  10.101 -0.5407  1.0621  0.0333
  183SLPC   O2120970   2.191   4.996  10.182 -0.1699 -0.5031 -0.2052
  183SLPC   C2120971   2.153   5.082  10.092 -0.0925 -0.5306 -0.0882
  183SLPC   O2220972   2.223   5.148  10.021 -0.6752  0.5357  0.2404
  183SLPC   C2220973   2.002   5.110  10.126  0.2373 -0.0615  1.6198
  183SLPC   H2R20974   1.966   5.016  10.173 -1.2033 -0.4209 -0.1109
  183SLPC   H2S20975   2.002   5.204  10.185 -4.2655  0.7792  0.6543
  183SLPC    C320976   2.340   4.805  10.221 -0.2825  1.0061 -0.0251
  183SLPC    HX20977   2.274   4.772  10.304 -0.6924  2.2886  0.1800
  183SLPC    HY20978   2.445   4.779  10.246 -0.0089  1.0760 -1.0391
  183SLPC   O3120979   2.315   4.741  10.093 -0.1634  0.1446 -0.3547
  183SLPC   C3120980   2.189   4.708  10.062 -0.0570 -0.5290 -0.1308
  183SLPC   O3220981   2.099   4.716  10.141  0.8188  0.3134 -0.2608
  183SLPC   C3220982   2.182   4.659   9.916  0.5253 -0.3975 -0.5082
  183SLPC   H2X20983   2.216   4.554   9.923  1.2016 -0.0793  1.7466
  183SLPC   H2Y20984   2.262   4.711   9.858 -1.8490 -1.0405 -4.7873
  183SLPC   C2320985   1.924   5.137   9.996 -1.4147  0.0909 -0.1385
  183SLPC   H3R20986   1.819   5.126  10.030 -0.7975  1.4027  2.4248
  183SLPC   H3S20987   1.942   5.056   9.921  0.0433  0.9958 -0.8193
  183SLPC   C2420988   1.943   5.264   9.910  0.3969  0.2716 -0.3367
  183SLPC   H4R20989   2.022   5.323   9.962  0.1703 -1.5877  2.2938
  183SLPC   H4S20990   1.844   5.311   9.926  0.4510  0.2559  0.0448
  183SLPC   C2520991   1.965   5.229   9.765  0.0616  0.3872 -0.3356
  183SLPC   H5R20992   1.906   5.144   9.724  3.6773 -3.8076  2.2044
  183SLPC   H5S20993   2.067   5.184   9.766 -0.8043 -1.6927 -0.5894
  183SLPC   C2620994   1.950   5.354   9.671  0.9410  0.6344  0.5162
  183SLPC   H6R20995   1.953   5.446   9.734  0.2217  1.0930 -0.0968
  183SLPC   H6S20996   1.853   5.354   9.617 -0.2426  0.9528  2.5229
  183SLPC   C2720997   2.067   5.343   9.566  0.7374  0.1522 -1.0072
  183SLPC   H7R20998   2.069   5.247   9.511 -0.7040  0.4575 -1.6464
  183SLPC   H7S20999   2.171   5.358   9.599  0.7091  0.3940 -1.0253
  183SLPC   C2821000   2.044   5.443   9.452 -0.6982 -0.0829 -0.4375
  183SLPC   H8R21001   2.069   5.544   9.490 -1.6571  0.1057 -0.2807
  183SLPC   H8S21002   1.937   5.431   9.425 -0.9284  1.8373 -0.5012
  183SLPC   C2921003   2.135   5.423   9.326  0.1930  0.2575  0.4010
  183SLPC   H9R21004   2.242   5.397   9.328  0.0161 -0.4612  1.3204
  183SLPC  C21021005   2.088   5.442   9.200  0.2890  0.7337 -0.2532
  183SLPC  H10R21006   2.167   5.432   9.124  0.8367  0.8722  0.2909
  183SLPC  C21121007   1.951   5.495   9.161  0.7913 -0.0810  1.0411
  183SLPC  H11R21008   1.957   5.576   9.086  0.6432 -1.2985 -0.3347
  183SLPC  H11S21009   1.896   5.551   9.240  0.6196  0.8297  0.2835
  183SLPC  C21221010   1.861   5.386   9.110  0.0902 -0.8672 -0.2795
  183SLPC  H12R21011   1.819   5.317   9.184 -0.2360  1.1326  1.5113
  183SLPC  C21321012   1.809   5.383   8.981 -0.2842  0.2093  0.0226
  183SLPC  H13R21013   1.775   5.282   8.951  1.8781 -0.6759  0.3612
  183SLPC  C21421014   1.837   5.464   8.853  0.4613 -0.3476  0.0395
  183SLPC  H14R21015   1.861   5.569   8.880 -0.6888 -0.1894  0.4834
  183SLPC  H14S21016   1.741   5.469   8.796 -0.3547 -2.9405  1.0074
  183SLPC  C21521017   1.947   5.432   8.761  0.0031 -0.3257  0.8214
  183SLPC  H15R21018   1.925   5.338   8.706  1.0576  0.0551 -0.2852
  183SLPC  H15S21019   2.037   5.399   8.819  1.4333 -0.7288 -1.4940
  183SLPC  C21621020   2.001   5.541   8.673  0.3772 -0.6019 -0.4368
  183SLPC  H16R21021   2.094   5.503   8.625  0.1490 -2.3599  0.4526
  183SLPC  H16S21022   2.046   5.622   8.733 -0.2969 -0.3986 -0.1980
  183SLPC  C21721023   1.895   5.581   8.570  0.6534 -0.3577 -0.2797
  183SLPC  H17R21024   1.804   5.617   8.622  0.7980  2.1779 -1.6559
  183SLPC  H17S21025   1.859   5.499   8.504  0.6875 -1.2085  0.7302
  183SLPC  C21821026   1.946   5.694   8.484 -0.1601  0.2332  0.0136
  183SLPC  H18R21027   1.961   5.787   8.543 -1.2236  1.2067 -1.1909
  183SLPC  H18S21028   1.870   5.720   8.407  0.9366 -0.6312 -1.4180
  183SLPC  H18T21029   2.036   5.663   8.426 -1.1987 -2.3004 -0.3575
  183SLPC   C3321030   2.036   4.671   9.866  0.1993 -0.9453 -0.1146
  183SLPC   H3X21031   2.011   4.778   9.879 -1.8067 -1.5184  1.3275
  183SLPC   H3Y21032   1.959   4.618   9.926 -3.0983  1.7422 -1.6825
  183SLPC   C3421033   2.021   4.650   9.717  0.1630 -0.5403 -0.4363
  183SLPC   H4X21034   1.911   4.643   9.702  0.0632 -0.0737  0.0617
  183SLPC   H4Y21035   2.073   4.555   9.691  0.0030 -0.4935 -0.9543
  183SLPC   C3521036   2.079   4.761   9.632  0.5011 -0.1414 -0.2642
  183SLPC   H5X21037   2.183   4.774   9.668  1.3998  1.4573 -3.1615
  183SLPC   H5Y21038   2.014   4.850   9.646 -1.0591 -0.6791 -3.1674
  183SLPC   C3621039   2.084   4.730   9.485 -0.8448  0.3579  0.1559
  183SLPC   H6X21040   1.983   4.712   9.445  0.3632 -3.2633 -1.6900
  183SLPC   H6Y21041   2.140   4.635   9.471 -2.7398 -0.6434 -0.9853
  183SLPC   C3721042   2.157   4.845   9.420  0.4521  0.3544  0.4519
  183SLPC   H7X21043   2.242   4.889   9.477  1.3124 -1.1495  0.3991
  183SLPC   H7Y21044   2.085   4.929   9.419 -0.6906 -0.6018  0.5536
  183SLPC   C3821045   2.213   4.826   9.275 -0.6172 -0.2969 -0.0865
  183SLPC   H8X21046   2.285   4.908   9.250  0.4873 -1.6109 -1.4692
  183SLPC   H8Y21047   2.129   4.822   9.202 -0.6557 -0.0395 -0.0567
  183SLPC   C3921048   2.282   4.682   9.256 -0.2644 -0.2510 -0.1865
  183SLPC   H9X21049   2.211   4.597   9.263  0.4650 -1.0012 -1.4750
  183SLPC   H9Y21050   2.360   4.667   9.334 -2.7248 -2.5814  1.9958
  183SLPC  C31021051   2.351   4.672   9.121 -0.9372 -0.0922  0.0045
  183SLPC  H10X21052   2.445   4.731   9.121 -0.3909 -0.8007 -2.9761
  183SLPC  H10Y21053   2.283   4.719   9.047  0.7911 -0.5575 -2.0031
  183SLPC  C31121054   2.385   4.538   9.072 -0.6161 -0.3256  0.6902
  183SLPC  H11X21055   2.294   4.479   9.099 -2.6321  2.4791  0.4694
  183SLPC  H11Y21056   2.475   4.489   9.114 -0.0854 -0.5393 -0.6391
  183SLPC  C31221057   2.397   4.545   8.915  0.0398  0.6424 -0.0710
  183SLPC  H12X21058   2.477   4.616   8.887  1.3650 -0.4838  0.7172
  183SLPC  H12Y21059   2.305   4.590   8.874 -0.6850  0.2920  1.1154
  183SLPC  C31321060   2.436   4.414   8.857  0.2025  0.6735  0.0700
  183SLPC  H13X21061   2.389   4.325   8.903  0.5959  0.8100  0.7433
  183SLPC  H13Y21062   2.545   4.402   8.876  0.4827  0.1047 -1.6995
  183SLPC  C31421063   2.423   4.408   8.704  0.1751  0.1508 -0.3735
  183SLPC  H14X21064   2.475   4.502   8.675  1.0098  1.0557  3.3869
  183SLPC  H14Y21065   2.317   4.398   8.675 -0.3201 -0.2489  1.4306
  183SLPC  C31521066   2.507   4.295   8.636 -0.3738 -0.6587 -0.4765
  183SLPC  H15X21067   2.614   4.324   8.624 -0.5018 -0.7390 -1.9748
  183SLPC  H15Y21068   2.465   4.305   8.534  0.9253  1.8005 -0.8453
  183SLPC  C31621069   2.507   4.160   8.708 -0.5056  0.4712  0.1807
  183SLPC  H16X21070   2.400   4.146   8.734 -0.2939 -0.5516  0.5598
  183SLPC  H16Y21071   2.573   4.161   8.798  0.2754  1.0904 -0.3869
  183SLPC  C31721072   2.557   4.040   8.620 -0.7544 -0.5997 -0.2101
  183SLPC  H17X21073   2.545   3.948   8.682  0.7299 -0.6824  0.0043
  183SLPC  H17Y21074   2.667   4.060   8.615  0.0587 -3.8965  1.4996
  183SLPC  C31821075   2.498   4.033   8.484  0.3149  0.5311  0.6482
  183SLPC  H18X21076   2.577   4.054   8.408 -0.7963  0.1568 -0.6540
  183SLPC  H18Y21077   2.417   4.105   8.462  0.1931  0.1944 -0.0426
  183SLPC  H18Z21078   2.452   3.933   8.466 -0.4946  0.9530  0.3190
  184SLPC     N21079   5.916   1.176  10.897  0.1944  0.0094  0.2867
  184SLPC   C1321080   6.036   1.253  10.922 -0.4214 -0.1060  0.4860
  184SLPC  H13A21081   6.099   1.243  10.835 -0.5579  2.7911 -0.0500
  184SLPC  H13B21082   6.003   1.356  10.932  1.9842  0.7061  0.7900
  184SLPC  H13C21083   6.086   1.215  11.010  1.2668  0.5486 -0.1362
  184SLPC   C1421084   5.832   1.187  11.018 -0.2156  1.0016  0.4073
  184SLPC  H14A21085   5.731   1.168  10.986  0.5489 -0.2081 -1.4625
  184SLPC  H14B21086   5.866   1.124  11.099 -1.8162 -0.7841 -0.2481
  184SLPC  H14C21087   5.822   1.288  11.056 -0.5642  1.1514 -0.0787
  184SLPC   C1521088   5.944   1.033  10.876  0.2914 -0.0311 -0.1197
  184SLPC  H15A21089   6.027   0.996  10.935 -1.2873 -3.1294  0.3288
  184SLPC  H15B21090   5.859   0.970  10.895  2.3159 -2.3098  2.2333
  184SLPC  H15C21091   5.968   1.017  10.772  0.5197 -0.4095 -0.0100
  184SLPC   C1221092   5.835   1.223  10.778  0.7630 -0.3852  0.0961
  184SLPC  H12A21093   5.789   1.318  10.802  0.4456 -0.1218 -1.4584
  184SLPC  H12B21094   5.753   1.154  10.768  0.8941 -0.4144 -0.8683
  184SLPC   C1121095   5.907   1.234  10.647  0.9761  0.8785  1.0817
  184SLPC  H11A21096   5.989   1.307  10.661  2.5569 -0.0539 -2.1607
  184SLPC  H11B21097   5.845   1.290  10.573 -0.2918 -0.5228  1.0209
  184SLPC     P21098   5.866   1.000  10.520  0.1347 -0.1559  0.4926
  184SLPC   O1321099   5.954   0.893  10.468  0.3719  0.4384 -0.3810
  184SLPC   O1421100   5.765   0.967  10.620 -0.5367 -0.2582 -0.1678
  184SLPC   O1221101   5.958   1.112  10.591 -0.0682  0.0129  0.2986
  184SLPC   O1121102   5.806   1.082  10.400 -0.3699 -0.5339  0.3808
  184SLPC    C121103   5.908   1.127  10.304  0.2143 -0.1379  1.1101
  184SLPC    HA21104   5.878   1.231  10.281 -0.9879 -0.8005 -0.5698
  184SLPC    HB21105   6.014   1.112  10.332 -0.0421 -2.1820  1.1482
  184SLPC    C221106   5.887   1.038  10.172 -0.2819 -0.4174  0.4426
  184SLPC    HS21107   5.895   0.947  10.236  2.4487  2.0476  4.0689
  184SLPC   O2121108   5.991   1.054  10.074 -0.1574 -0.0858  0.7558
  184SLPC   C2121109   6.001   0.953   9.992  0.4258 -0.8697 -0.2829
  184SLPC   O2221110   5.946   0.845   9.994  0.6464 -0.3601 -0.3995
  184SLPC   C2221111   6.109   0.997   9.889  0.1471 -0.0038 -0.0492
  184SLPC   H2R21112   6.071   1.090   9.842 -0.6815  0.4378  1.4528
  184SLPC   H2S21113   6.205   1.018   9.941  0.2270  1.0813 -0.5888
  184SLPC    C321114   5.751   1.063  10.108 -0.4795 -0.0199 -0.1735
  184SLPC    HX21115   5.683   1.061  10.196 -1.2572 -2.0883 -0.7618
  184SLPC    HY21116   5.735   0.983  10.032  0.3260  0.4696 -0.8802
  184SLPC   O3121117   5.749   1.199  10.062  0.0402 -0.5976  0.1418
  184SLPC   C3121118   5.757   1.218   9.930  0.7049 -0.7587  1.1118
  184SLPC   O3221119   5.775   1.135   9.849  0.0183  0.3562  0.1214
  184SLPC   C3221120   5.740   1.358   9.904 -0.2810  0.4787 -0.0103
  184SLPC   H2X21121   5.635   1.387   9.926 -0.4437 -2.3364  3.9271
  184SLPC   H2Y21122   5.762   1.376   9.797 -2.0714  0.1775 -0.4615
  184SLPC   C2321123   6.127   0.887   9.786  0.3369 -1.0465  0.7670
  184SLPC   H3R21124   6.040   0.850   9.728  0.5541 -1.7310  0.8686
  184SLPC   H3S21125   6.142   0.789   9.836  1.3282 -0.4941  1.5766
  184SLPC   C2421126   6.243   0.922   9.686  0.1668  0.6899  0.4303
  184SLPC   H4R21127   6.264   0.825   9.635 -0.1944 -0.4117  2.2861
  184SLPC   H4S21128   6.339   0.936   9.739  1.2407 -0.7497 -1.0168
  184SLPC   C2521129   6.201   1.037   9.594 -0.0837  0.1769 -0.1259
  184SLPC   H5R21130   6.222   1.135   9.641  0.2701  0.2746 -0.4859
  184SLPC   H5S21131   6.097   1.027   9.556  0.4547 -1.3881 -1.2979
  184SLPC   C2621132   6.291   1.041   9.470 -0.0305 -0.4532 -0.1279
  184SLPC   H6R21133   6.313   0.943   9.423  0.6028 -0.9720  1.2129
  184SLPC   H6S21134   6.390   1.076   9.506 -0.9858  1.2495  0.9452
  184SLPC   C2721135   6.241   1.154   9.380  0.3825 -0.4095 -0.0581
  184SLPC   H7R21136   6.233   1.250   9.436 -1.2081 -1.1394  1.0639
  184SLPC   H7S21137   6.134   1.151   9.348  0.7898  1.1485 -1.7267
  184SLPC   C2821138   6.337   1.177   9.260 -0.3809 -0.5296 -0.0010
  184SLPC   H8R21139   6.437   1.164   9.307 -0.6360 -2.4286  0.0964
  184SLPC   H8S21140   6.335   1.282   9.222  1.2730 -0.0396  1.1337
  184SLPC   C2921141   6.334   1.064   9.167 -0.0851  0.4885  0.1255
  184SLPC   H9R21142   6.420   0.995   9.169 -2.7159 -3.1453 -0.9270
  184SLPC  C21021143   6.233   1.035   9.083 -0.0824  0.6393  0.3182
  184SLPC  H10R21144   6.248   0.943   9.024 -1.2451 -0.2095  1.2798
  184SLPC  C21121145   6.106   1.123   9.072  0.0108  0.5706 -0.0743
  184SLPC  H11R21146   6.116   1.208   9.001 -1.3155 -0.2657 -1.3345
  184SLPC  H11S21147   6.084   1.174   9.168  2.5786 -0.7223  1.2997
  184SLPC  C21221148   5.990   1.040   9.028  0.7026  0.4134  0.0560
  184SLPC  H12R21149   5.937   1.085   8.943  0.7507 -0.5989 -0.5102
  184SLPC  C21321150   5.936   0.942   9.096  0.7478  0.2920 -0.0412
  184SLPC  H13R21151   5.856   0.880   9.054  2.9049 -2.3806 -0.4730
  184SLPC  C21421152   5.983   0.883   9.231 -0.0697 -0.5636  0.5359
  184SLPC  H14R21153   5.894   0.859   9.293 -0.1839  0.8339  0.9406
  184SLPC  H14S21154   6.033   0.955   9.299  0.3253 -0.9480  0.6574
  184SLPC  C21521155   6.071   0.755   9.214 -0.7112  0.7406  0.0759
  184SLPC  H15R21156   6.166   0.780   9.163 -1.2864 -1.9594 -2.5952
  184SLPC  H15S21157   6.020   0.683   9.147  1.9298 -0.3977 -0.8124
  184SLPC  C21621158   6.107   0.683   9.349 -1.1560 -0.3502 -0.4569
  184SLPC  H16R21159   6.158   0.763   9.406 -1.6591 -0.6439  0.4336
  184SLPC  H16S21160   6.172   0.594   9.337  0.6524  0.9641 -0.8016
  184SLPC  C21721161   5.984   0.628   9.426  0.5355  0.2610  0.4339
  184SLPC  H17R21162   5.948   0.539   9.371  2.2268  0.2134 -0.6723
  184SLPC  H17S21163   5.902   0.703   9.428  0.0158 -0.1794 -1.7321
  184SLPC  C21821164   6.032   0.569   9.565  0.4326  0.6976  0.7099
  184SLPC  H18R21165   5.946   0.558   9.634 -0.2302  0.2132 -0.1670
  184SLPC  H18S21166   6.102   0.645   9.606  0.7645 -0.7321  2.9724
  184SLPC  H18T21167   6.084   0.471   9.555 -0.5263  0.3429 -1.4902
  184SLPC   C3321168   5.825   1.443  10.001 -0.0781  0.1527  0.0939
  184SLPC   H3X21169   5.930   1.406  10.010 -0.5810 -1.2785  0.2485
  184SLPC   H3Y21170   5.799   1.439  10.109 -0.7713  4.4962  0.2536
  184SLPC   C3421171   5.823   1.594   9.975 -1.0371  0.2741  0.8922
  184SLPC   H4X21172   5.897   1.644  10.040  1.3841  0.2893 -1.6560
  184SLPC   H4Y21173   5.721   1.633   9.998 -1.2444  0.9311 -0.9540
  184SLPC   C3521174   5.849   1.633   9.825  0.1963 -0.4655  0.9513
  184SLPC   H5X21175   5.855   1.744   9.814  0.0920 -0.6558 -1.3291
  184SLPC   H5Y21176   5.777   1.586   9.755  1.5391 -0.9024 -0.1710
  184SLPC   C3621177   5.979   1.579   9.766  0.7909  0.2897 -0.1107
  184SLPC   H6X21178   5.970   1.468   9.764  0.0158  0.3499 -0.2847
  184SLPC   H6Y21179   6.064   1.609   9.830 -0.9913  1.6972  1.7251
  184SLPC   C3721180   5.997   1.624   9.618  0.7569  0.2396 -0.6308
  184SLPC   H7X21181   6.031   1.730   9.622 -1.6913  1.0571  0.7191
  184SLPC   H7Y21182   5.895   1.621   9.573 -0.0763  2.6243  0.8849
  184SLPC   C3821183   6.085   1.535   9.541 -0.2943  0.2017  0.5606
  184SLPC   H8X21184   6.038   1.437   9.517  1.1586 -0.6193  0.9507
  184SLPC   H8Y21185   6.177   1.519   9.601  1.1772  1.2934 -1.2946
  184SLPC   C3921186   6.159   1.598   9.420  0.3470  0.1304 -0.2909
  184SLPC   H9X21187   6.251   1.541   9.398  0.6105  0.6338 -0.5246
  184SLPC   H9Y21188   6.185   1.704   9.442 -0.9992 -0.0814  2.8342
  184SLPC  C31021189   6.081   1.587   9.286  0.4945  0.2449 -0.0676
  184SLPC  H10X21190   5.978   1.626   9.299  1.0150  1.4165  0.6941
  184SLPC  H10Y21191   6.089   1.477   9.268 -0.1303  0.0647  0.7004
  184SLPC  C31121192   6.152   1.656   9.167 -0.4093  0.6320  0.0421
  184SLPC  H11X21193   6.263   1.645   9.162 -0.2498  1.0965  1.9073
  184SLPC  H11Y21194   6.127   1.762   9.187 -0.6332  1.3128 -3.2211
  184SLPC  C31221195   6.096   1.613   9.026  0.4300  0.4448 -0.2970
  184SLPC  H12X21196   6.098   1.700   8.957 -1.1633  1.6477  1.0985
  184SLPC  H12Y21197   5.988   1.592   9.037  0.4814  0.8290  0.9901
  184SLPC  C31321198   6.166   1.500   8.960 -0.1471 -0.0242 -0.1844
  184SLPC  H13X21199   6.105   1.454   8.880 -0.6322 -0.3974  0.3856
  184SLPC  H13Y21200   6.195   1.418   9.029  0.9434 -2.0610 -2.9291
  184SLPC  C31421201   6.295   1.537   8.885 -0.0849  0.8849 -0.0658
  184SLPC  H14X21202   6.348   1.609   8.950 -0.3701  2.6484 -1.6994
  184SLPC  H14Y21203   6.259   1.589   8.794  0.0269  0.3543 -0.4178
  184SLPC  C31521204   6.377   1.413   8.853 -0.3591 -0.2066 -0.4946
  184SLPC  H15X21205   6.320   1.349   8.781 -2.1380  0.1714  0.5138
  184SLPC  H15Y21206   6.403   1.348   8.939 -1.7666 -1.3728 -0.8904
  184SLPC  C31621207   6.517   1.437   8.787  0.4331 -0.4180  0.0380
  184SLPC  H16X21208   6.570   1.512   8.849  2.4835  0.6343 -2.8250
  184SLPC  H16Y21209   6.516   1.487   8.688 -1.7086  0.4248  0.4246
  184SLPC  C31721210   6.598   1.311   8.786 -0.5525  0.2930  0.1529
  184SLPC  H17X21211   6.552   1.229   8.728  1.6449 -0.8178 -0.1268
  184SLPC  H17Y21212   6.606   1.271   8.890 -0.3365  1.9114  0.7918
  184SLPC  C31821213   6.745   1.346   8.735 -0.0133  0.0033  0.3907
  184SLPC  H18X21214   6.809   1.427   8.775  1.9477 -0.4699 -1.5569
  184SLPC  H18Y21215   6.733   1.362   8.625  1.1983 -4.0007 -0.5282
  184SLPC  H18Z21216   6.814   1.258   8.742 -0.5173 -0.6492 -1.8611
  185SLPC     N21217   2.879   6.192   5.726  0.2595  0.3073 -0.0238
  185SLPC   C1321218   2.966   6.070   5.720  0.0031  0.1677  0.6751
  185SLPC  H13A21219   2.922   6.010   5.641  0.5376  1.8080 -0.9388
  185SLPC  H13B21220   3.072   6.085   5.703  0.1976 -1.5036  0.1246
  185SLPC  H13C21221   2.966   6.019   5.815  2.9067  1.3574  1.4233
  185SLPC   C1421222   2.849   6.231   5.585 -0.7424  0.1657  0.0447
  185SLPC  H14A21223   2.820   6.141   5.534  2.9596 -1.3248  0.2357
  185SLPC  H14B21224   2.779   6.313   5.575 -0.6486  0.2281 -0.1213
  185SLPC  H14C21225   2.933   6.262   5.524 -1.1023  3.3011  0.9635
  185SLPC   C1521226   2.958   6.298   5.790  0.6444  0.9805  0.1942
  185SLPC  H15A21227   2.988   6.276   5.892  0.0098 -0.0537  0.1788
  185SLPC  H15B21228   3.053   6.301   5.739  0.2419 -0.1266 -0.6627
  185SLPC  H15C21229   2.901   6.389   5.788  1.4025  1.5861  2.7096
  185SLPC   C1221230   2.752   6.161   5.799 -0.4419 -0.1125  0.8389
  185SLPC  H12A21231   2.700   6.083   5.745  0.4710 -1.1840  1.4531
  185SLPC  H12B21232   2.693   6.250   5.789 -1.8556 -1.0861  0.2713
  185SLPC   C1121233   2.754   6.123   5.945  0.3388  0.2283 -0.5548
  185SLPC  H11A21234   2.827   6.041   5.962 -0.6018 -0.6304 -0.6362
  185SLPC  H11B21235   2.660   6.084   5.988  0.2628  2.1331  1.1571
  185SLPC     P21236   2.720   6.339   6.090 -0.3206  0.2786 -0.0692
  185SLPC   O1321237   2.810   6.453   6.106  0.0595 -0.4247 -0.0358
  185SLPC   O1421238   2.588   6.354   6.022 -0.3951  0.1530  0.6435
  185SLPC   O1221239   2.805   6.227   6.019  0.4356 -0.0367 -0.2866
  185SLPC   O1121240   2.685   6.273   6.234  0.0898 -0.7395  0.3426
  185SLPC    C121241   2.775   6.181   6.304 -0.3741 -0.7248  0.4174
  185SLPC    HA21242   2.772   6.076   6.270  0.3700 -0.4536 -0.5476
  185SLPC    HB21243   2.881   6.209   6.284  0.1095 -1.9885  1.0714
  185SLPC    C221244   2.774   6.187   6.461 -0.2043 -0.1430  0.5747
  185SLPC    HS21245   2.864   6.133   6.497 -0.6526 -0.3278  1.4409
  185SLPC   O2121246   2.644   6.137   6.503  0.8579  0.0572 -0.1842
  185SLPC   C2121247   2.649   6.007   6.525  0.3129 -0.0832  0.4007
  185SLPC   O2221248   2.744   5.931   6.516  0.0543  0.0504 -0.8413
  185SLPC   C2221249   2.509   5.963   6.561 -0.0163 -0.8109 -0.2982
  185SLPC   H2R21250   2.430   6.024   6.513  1.2376 -0.9636 -2.7382
  185SLPC   H2S21251   2.488   5.862   6.519 -3.1548  0.2498 -1.5603
  185SLPC    C321252   2.791   6.336   6.517  0.1860 -0.0153  0.0635
  185SLPC    HX21253   2.732   6.408   6.456  0.3387  0.4801  0.4934
  185SLPC    HY21254   2.894   6.370   6.492 -0.1443  0.8285 -0.1841
  185SLPC   O3121255   2.749   6.355   6.653 -0.6167 -0.7428  0.4234
  185SLPC   C3121256   2.847   6.337   6.742 -0.0084  0.3817  0.2774
  185SLPC   O3221257   2.965   6.324   6.719 -0.5850  0.0741 -0.2248
  185SLPC   C3221258   2.781   6.328   6.885 -0.6089  0.1135  0.1696
  185SLPC   H2X21259   2.720   6.235   6.891  1.2911 -1.1953  0.2057
  185SLPC   H2Y21260   2.730   6.426   6.898  0.8890  0.8787  0.4341
  185SLPC   C2321261   2.497   5.952   6.712  0.2483  0.5360 -0.0575
  185SLPC   H3R21262   2.508   6.051   6.761  0.9496  0.2561  0.3691
  185SLPC   H3S21263   2.573   5.887   6.760  0.1717  0.9715  0.6619
  185SLPC   C2421264   2.352   5.917   6.758  0.3429  0.0382  0.2010
  185SLPC   H4R21265   2.327   5.829   6.694 -0.1078  0.0787  0.3204
  185SLPC   H4S21266   2.292   6.009   6.740  0.1084  0.2905  2.1033
  185SLPC   C2521267   2.338   5.867   6.898  0.6220  0.7294 -0.2802
  185SLPC   H5R21268   2.390   5.769   6.895 -1.6194 -0.4902 -1.2117
  185SLPC   H5S21269   2.232   5.860   6.928  0.9326  1.7854  1.1771
  185SLPC   C2621270   2.395   5.955   7.008  0.3094 -0.0002 -0.2805
  185SLPC   H6R21271   2.367   6.062   7.005 -0.7597 -0.2679 -0.4683
  185SLPC   H6S21272   2.501   5.924   6.998  0.3325 -0.7363  1.7431
  185SLPC   C2721273   2.349   5.904   7.144  0.0632 -0.0833 -0.8017
  185SLPC   H7R21274   2.300   5.806   7.127 -2.3506  0.8426  0.3142
  185SLPC   H7S21275   2.259   5.965   7.169 -0.9573 -1.4720 -1.0135
  185SLPC   C2821276   2.448   5.901   7.258  0.2813 -0.2067 -0.9259
  185SLPC   H8R21277   2.529   5.828   7.239 -0.4576 -0.8184 -1.7829
  185SLPC   H8S21278   2.390   5.866   7.346 -0.2892 -0.2417 -1.3092
  185SLPC   C2921279   2.514   6.041   7.277  0.5916 -0.4898  0.1576
  185SLPC   H9R21280   2.577   6.074   7.193  0.7083  2.3354  1.2522
  185SLPC  C21021281   2.504   6.115   7.378 -0.1990 -0.0137 -0.3486
  185SLPC  H10R21282   2.548   6.216   7.374  2.3952 -1.0415  0.0157
  185SLPC  C21121283   2.426   6.073   7.501 -0.0684 -0.2063 -0.4634
  185SLPC  H11R21284   2.425   6.161   7.569 -0.3975  0.3586 -1.1819
  185SLPC  H11S21285   2.481   5.988   7.547 -0.6550 -0.4449 -0.1994
  185SLPC  C21221286   2.278   6.044   7.497 -0.4931 -0.1528 -0.1645
  185SLPC  H12R21287   2.238   6.058   7.396  1.3170  1.2224 -0.7416
  185SLPC  C21321288   2.196   6.007   7.596  0.0981 -0.5250  0.0753
  185SLPC  H13R21289   2.088   5.992   7.583 -0.3380  1.0854  1.4692
  185SLPC  C21421290   2.244   5.989   7.734  0.0405 -0.4366  0.5746
  185SLPC  H14R21291   2.355   5.999   7.731 -0.0492  0.5320 -1.1842
  185SLPC  H14S21292   2.222   5.884   7.762  0.9505 -2.1258 -4.0873
  185SLPC  C21521293   2.174   6.096   7.824  0.2202  0.3856  0.3222
  185SLPC  H15R21294   2.064   6.091   7.815 -0.2974  1.1807  4.4529
  185SLPC  H15S21295   2.206   6.194   7.782 -0.7389  0.3432 -0.5408
  185SLPC  C21621296   2.223   6.081   7.965 -0.9704  0.8903  1.2655
  185SLPC  H16R21297   2.334   6.079   7.972 -0.8856  0.6318  0.0805
  185SLPC  H16S21298   2.194   5.979   7.998  1.5597  0.4070  2.2598
  185SLPC  C21721299   2.171   6.193   8.055 -0.0711  0.4922 -0.1579
  185SLPC  H17R21300   2.195   6.163   8.159  3.0846 -2.7078 -1.6473
  185SLPC  H17S21301   2.061   6.203   8.037  0.4209  1.8960 -2.9357
  185SLPC  C21821302   2.233   6.326   8.025  0.3249 -0.4663 -0.1809
  185SLPC  H18R21303   2.216   6.360   7.920 -3.0105  2.2916  1.0643
  185SLPC  H18S21304   2.342   6.333   8.045  0.2818  3.0607 -0.5395
  185SLPC  H18T21305   2.191   6.411   8.083  2.3249  0.4591 -0.0146
  185SLPC   C3321306   2.885   6.320   6.997 -0.8203  0.0423  0.4784
  185SLPC   H3X21307   2.940   6.415   7.015 -1.1043 -0.0362  1.9516
  185SLPC   H3Y21308   2.961   6.242   6.977 -0.7827 -0.0255  0.8803
  185SLPC   C3421309   2.823   6.276   7.129 -0.2484  0.0512  0.4061
  185SLPC   H4X21310   2.765   6.182   7.112 -0.0351  0.2514 -1.7093
  185SLPC   H4Y21311   2.761   6.361   7.162 -0.4260  0.3785 -0.7263
  185SLPC   C3521312   2.927   6.239   7.240  0.1218 -0.4316  0.4528
  185SLPC   H5X21313   3.003   6.318   7.258  0.3048 -0.6288  0.5540
  185SLPC   H5Y21314   2.980   6.150   7.200 -1.4419 -1.6519  0.9635
  185SLPC   C3621315   2.858   6.193   7.381 -0.3056 -0.0989  0.3869
  185SLPC   H6X21316   2.775   6.124   7.356 -1.1167  0.9234  0.2098
  185SLPC   H6Y21317   2.824   6.286   7.430 -0.2339 -0.8213  1.8692
  185SLPC   C3721318   2.957   6.122   7.477  0.2748  0.1051 -0.2713
  185SLPC   H7X21319   3.035   6.198   7.504  0.0915  0.3215 -0.3532
  185SLPC   H7Y21320   3.015   6.039   7.432  0.8964  0.2899  0.1544
  185SLPC   C3821321   2.893   6.050   7.606  0.4163  0.1267  0.1546
  185SLPC   H8X21322   2.976   5.995   7.653  0.2004 -1.8064 -1.5768
  185SLPC   H8Y21323   2.816   5.979   7.568  1.7516 -1.1198 -0.3236
  185SLPC   C3921324   2.832   6.157   7.700  0.3359 -0.2514  0.6199
  185SLPC   H9X21325   2.733   6.182   7.657  0.4139 -2.8040 -1.2725
  185SLPC   H9Y21326   2.895   6.248   7.697  1.1248 -0.8191 -1.1502
  185SLPC  C31021327   2.835   6.103   7.846  0.0919  0.0553  0.1543
  185SLPC  H10X21328   2.811   6.197   7.901 -0.5788  0.9840 -1.6338
  185SLPC  H10Y21329   2.938   6.067   7.865 -0.4098 -1.8947 -0.5266
  185SLPC  C31121330   2.728   5.992   7.863  0.3403 -0.0427 -0.6778
  185SLPC  H11X21331   2.749   5.893   7.817  1.5487  0.5176 -1.4072
  185SLPC  H11Y21332   2.640   6.025   7.804 -1.7276 -2.9362  0.5718
  185SLPC  C31221333   2.697   5.960   8.006 -0.7852  0.9569  0.5565
  185SLPC  H12X21334   2.619   5.882   7.999  1.4339 -1.3308 -0.3021
  185SLPC  H12Y21335   2.663   6.050   8.062 -1.0752 -0.2835  2.4319
  185SLPC  C31321336   2.822   5.900   8.079 -0.4785 -0.6725 -0.0955
  185SLPC  H13X21337   2.894   5.984   8.089  1.1113 -2.1712  2.1661
  185SLPC  H13Y21338   2.865   5.824   8.009 -0.4278  0.1394 -0.9627
  185SLPC  C31421339   2.786   5.850   8.217  0.3609  0.4789  0.7312
  185SLPC  H14X21340   2.863   5.773   8.238 -0.1473 -0.1151  0.4622
  185SLPC  H14Y21341   2.687   5.799   8.214  1.0808 -0.9110 -1.9561
  185SLPC  C31521342   2.773   5.963   8.323  0.0656 -0.0651 -0.9052
  185SLPC  H15X21343   2.687   6.024   8.290  0.3968  0.6281 -0.5200
  185SLPC  H15Y21344   2.867   6.022   8.328  0.9178 -1.4268  0.0092
  185SLPC  C31621345   2.755   5.907   8.459 -0.2067 -0.8919  0.1172
  185SLPC  H16X21346   2.828   5.825   8.476 -1.3592 -1.4886  2.8145
  185SLPC  H16Y21347   2.657   5.858   8.478 -2.0422  1.8616 -1.5963
  185SLPC  C31721348   2.770   6.000   8.575 -0.0544  0.2125  0.4857
  185SLPC  H17X21349   2.867   6.048   8.549 -0.6134  1.7430  1.0974
  185SLPC  H17Y21350   2.782   5.947   8.672 -0.1874  0.5543  0.6928
  185SLPC  C31821351   2.670   6.122   8.589 -0.4136 -0.1138  0.0901
  185SLPC  H18X21352   2.567   6.089   8.613  0.7646 -2.4765  2.5455
  185SLPC  H18Y21353   2.660   6.178   8.493  2.1138  0.6072  0.1744
  185SLPC  H18Z21354   2.704   6.184   8.674  0.3685  0.1185 -0.3831
  186SLPC     N21355   3.834   0.368   6.012 -0.1559 -0.9901  0.3415
  186SLPC   C1321356   3.906   0.243   6.052 -0.0773 -0.4735  0.3391
  186SLPC  H13A21357   3.892   0.173   5.971 -2.2313 -1.7284  1.7073
  186SLPC  H13B21358   4.011   0.260   6.074  0.3776 -1.2147 -1.0665
  186SLPC  H13C21359   3.855   0.204   6.138  0.2050  0.1937  0.8144
  186SLPC   C1421360   3.717   0.340   5.918  0.1778  0.2317 -0.7838
  186SLPC  H14A21361   3.647   0.265   5.952  0.3952 -0.4455 -1.7665
  186SLPC  H14B21362   3.663   0.433   5.915 -0.2298  0.0349  0.0814
  186SLPC  H14C21363   3.738   0.299   5.820 -2.2567 -1.1770 -0.8097
  186SLPC   C1521364   3.936   0.448   5.939 -0.0223 -0.4771 -0.0214
  186SLPC  H15A21365   4.023   0.454   6.002  1.4655 -0.8478 -1.9508
  186SLPC  H15B21366   3.965   0.411   5.842 -0.4859  0.7435 -0.6501
  186SLPC  H15C21367   3.900   0.549   5.926  0.8424  0.5547  4.1744
  186SLPC   C1221368   3.798   0.465   6.129 -0.3080  0.6260  0.0092
  186SLPC  H12A21369   3.760   0.558   6.089  1.5003  1.1733 -0.5182
  186SLPC  H12B21370   3.891   0.491   6.176 -0.1150  1.6811 -0.9257
  186SLPC   C1121371   3.702   0.414   6.234  0.2052 -0.2312 -0.2834
  186SLPC  H11A21372   3.699   0.476   6.326  0.9193  1.1424 -1.1327
  186SLPC  H11B21373   3.732   0.318   6.279  1.5336  0.6736  0.8400
  186SLPC     P21374   3.476   0.533   6.170  0.1552  0.0190  0.2179
  186SLPC   O1321375   3.547   0.660   6.169 -0.2769 -0.2231 -0.1697
  186SLPC   O1421376   3.399   0.502   6.050  0.0204  0.4524 -0.3269
  186SLPC   O1221377   3.573   0.409   6.179  0.3352  0.2178 -0.1431
  186SLPC   O1121378   3.378   0.539   6.294  0.0262 -0.2502  0.7593
  186SLPC    C121379   3.308   0.434   6.350  0.2919 -0.2913 -0.8613
  186SLPC    HA21380   3.200   0.456   6.336  0.3488  1.5707  1.0780
  186SLPC    HB21381   3.340   0.337   6.306 -0.3013 -0.6197 -0.5923
  186SLPC    C221382   3.333   0.436   6.505  0.6434  0.6730  0.0289
  186SLPC    HS21383   3.302   0.535   6.546  0.5350  0.5152  0.3301
  186SLPC   O2121384   3.472   0.406   6.515  0.7436 -0.0284  0.5667
  186SLPC   C2121385   3.531   0.465   6.614  0.6807  0.2221  0.0569
  186SLPC   O2221386   3.476   0.542   6.696 -0.2852  0.5529 -0.3668
  186SLPC   C2221387   3.683   0.423   6.603  0.0242  0.2269 -0.5938
  186SLPC   H2R21388   3.706   0.342   6.530  3.2237  0.2943  0.1864
  186SLPC   H2S21389   3.747   0.509   6.573 -0.1809 -0.0894 -2.0030
  186SLPC    C321390   3.238   0.329   6.577 -0.0523 -0.2046  0.3202
  186SLPC    HX21391   3.288   0.233   6.551 -0.4231 -0.0151 -1.2097
  186SLPC    HY21392   3.139   0.321   6.526 -1.5907  0.8842  2.9354
  186SLPC   O3121393   3.211   0.350   6.713 -0.0329  0.0191  0.2772
  186SLPC   C3121394   3.126   0.445   6.732  0.5464 -0.2313  0.1622
  186SLPC   O3221395   3.092   0.533   6.653 -0.3115 -0.0773  0.8255
  186SLPC   C3221396   3.096   0.461   6.884  0.0884 -0.1550 -0.7425
  186SLPC   H2X21397   2.992   0.423   6.893  1.1078 -2.6469  2.0124
  186SLPC   H2Y21398   3.096   0.571   6.897  0.1972  0.0702 -2.4341
  186SLPC   C2321399   3.718   0.373   6.746 -0.1632 -0.0487 -0.1616
  186SLPC   H3R21400   3.653   0.284   6.762 -1.5641  1.4820  4.0925
  186SLPC   H3S21401   3.680   0.451   6.816 -2.9448 -0.5276 -1.0079
  186SLPC   C2421402   3.867   0.336   6.760 -0.0463 -0.4070  0.7247
  186SLPC   H4R21403   3.929   0.427   6.773  1.4794 -0.8783 -2.3741
  186SLPC   H4S21404   3.894   0.291   6.662  2.5821  0.2041  1.0977
  186SLPC   C2521405   3.904   0.247   6.880  0.2861 -0.0950 -0.2412
  186SLPC   H5R21406   4.012   0.228   6.895  0.1630 -0.5742  0.0763
  186SLPC   H5S21407   3.868   0.145   6.855 -0.6087  0.4945 -1.4667
  186SLPC   C2621408   3.848   0.301   7.012  0.0505 -0.3443  0.7347
  186SLPC   H6R21409   3.737   0.312   7.011  0.1957  1.7302  1.7776
  186SLPC   H6S21410   3.886   0.401   7.044 -0.6734  0.2551 -0.2202
  186SLPC   C2721411   3.882   0.206   7.133 -0.2713 -0.7171  0.0083
  186SLPC   H7R21412   3.813   0.241   7.213  2.0614 -2.2507  2.8864
  186SLPC   H7S21413   3.983   0.230   7.171  0.1347 -1.4575 -0.5668
  186SLPC   C2821414   3.862   0.055   7.121  0.6508  0.4753  0.0682
  186SLPC   H8R21415   3.763   0.020   7.086  0.5393 -1.1148  1.8560
  186SLPC   H8S21416   3.856   0.018   7.226 -1.7296 -0.7059 -0.4048
  186SLPC   C2921417   3.970  -0.021   7.056 -0.0294 -0.2002  0.1839
  186SLPC   H9R21418   4.070   0.004   7.094  0.1050 -0.1103 -0.2220
  186SLPC  C21021419   3.966  -0.126   6.969  0.3604 -0.1908  0.4426
  186SLPC  H10R21420   4.064  -0.163   6.935 -0.2660 -0.2540 -1.3796
  186SLPC  C21121421   3.837  -0.191   6.913 -1.2052  0.0544 -0.0950
  186SLPC  H11R21422   3.835  -0.158   6.807  1.9834 -1.7074 -0.8349
  186SLPC  H11S21423   3.746  -0.171   6.975  1.7662  2.3759  3.9894
  186SLPC  C21221424   3.861  -0.340   6.913  0.4472 -0.5634 -0.4967
  186SLPC  H12R21425   3.909  -0.378   6.822 -1.2624  0.0352 -1.7051
  186SLPC  C21321426   3.859  -0.413   7.028 -0.6369  0.5778  0.5469
  186SLPC  H13R21427   3.881  -0.520   7.018 -1.0395  0.5360  0.0749
  186SLPC  C21421428   3.826  -0.372   7.169 -0.4098 -0.5289  0.4183
  186SLPC  H14R21429   3.754  -0.439   7.222  0.0192 -0.2672  1.3553
  186SLPC  H14S21430   3.769  -0.277   7.173 -3.2691 -2.1259  0.6065
  186SLPC  C21521431   3.956  -0.362   7.250 -0.2475  0.1103  0.2468
  186SLPC  H15R21432   4.008  -0.270   7.215  0.4529 -0.7560 -1.0933
  186SLPC  H15S21433   4.023  -0.449   7.238  1.1203  1.1046  0.4778
  186SLPC  C21621434   3.935  -0.340   7.401  0.1828  0.0919 -0.3348
  186SLPC  H16R21435   3.899  -0.236   7.413 -0.6514 -0.0049 -1.7303
  186SLPC  H16S21436   4.035  -0.336   7.448 -0.5898  0.7099  1.3434
  186SLPC  C21721437   3.858  -0.449   7.475  0.2353 -0.4150 -0.1184
  186SLPC  H17R21438   3.909  -0.546   7.456 -0.0648 -1.3562  3.2279
  186SLPC  H17S21439   3.752  -0.454   7.441 -0.5815  1.0222  2.0200
  186SLPC  C21821440   3.860  -0.426   7.629 -0.0240  0.7386 -0.2294
  186SLPC  H18R21441   3.801  -0.335   7.655 -0.3545  0.0562  1.5794
  186SLPC  H18S21442   3.960  -0.406   7.672 -0.7780  0.9956  1.4838
  186SLPC  H18T21443   3.818  -0.511   7.687  1.4611  0.2461  0.1486
  186SLPC   C3321444   3.193   0.378   6.965 -0.3793  0.0406  0.2447
  186SLPC   H3X21445   3.291   0.422   6.939 -0.3535  1.4418  2.4866
  186SLPC   H3Y21446   3.189   0.270   6.940 -4.2992  0.0809 -0.0386
  186SLPC   C3421447   3.181   0.398   7.119  0.8275  0.1144  0.0658
  186SLPC   H4X21448   3.071   0.410   7.124  0.6245  0.5365 -3.0342
  186SLPC   H4Y21449   3.226   0.492   7.157 -0.0704 -0.0125  1.4992
  186SLPC   C3521450   3.235   0.281   7.201  0.3611 -0.4159 -0.1691
  186SLPC   H5X21451   3.336   0.251   7.166 -0.7508 -2.6049 -1.7465
  186SLPC   H5Y21452   3.163   0.197   7.192 -0.3395  0.3001 -1.4803
  186SLPC   C3621453   3.232   0.319   7.350  0.7330 -0.0256  0.1808
  186SLPC   H6X21454   3.129   0.353   7.372  0.6950 -1.2349  2.1559
  186SLPC   H6Y21455   3.308   0.396   7.376  0.9813 -0.1290 -0.2239
  186SLPC   C3721456   3.267   0.201   7.442  0.6255  0.0559  0.3822
  186SLPC   H7X21457   3.374   0.173   7.438  0.6435  0.1800 -0.0801
  186SLPC   H7Y21458   3.210   0.113   7.406  2.6364 -1.0743 -0.1524
  186SLPC   C3821459   3.231   0.235   7.591  0.1506  0.2041  0.3123
  186SLPC   H8X21460   3.125   0.268   7.598 -0.6955 -2.2028 -0.2823
  186SLPC   H8Y21461   3.300   0.308   7.639 -0.5814  2.5493 -1.9693
  186SLPC   C3921462   3.240   0.097   7.669  0.4817 -0.0538  0.3130
  186SLPC   H9X21463   3.349   0.076   7.668 -0.0034 -2.9493 -1.0087
  186SLPC   H9Y21464   3.188   0.017   7.612  0.8349 -1.4680  1.8972
  186SLPC  C31021465   3.181   0.098   7.810 -0.0676  0.4275  0.3543
  186SLPC  H10X21466   3.121   0.005   7.822 -0.1208  0.4191  0.0441
  186SLPC  H10Y21467   3.115   0.187   7.824  0.1929  0.5264  0.9595
  186SLPC  C31121468   3.291   0.111   7.910  0.6487  0.5207  0.4572
  186SLPC  H11X21469   3.326   0.216   7.909 -0.3315  0.8488 -0.7063
  186SLPC  H11Y21470   3.372   0.041   7.878  2.3409  2.9723 -0.9974
  186SLPC  C31221471   3.251   0.088   8.057  0.0289 -0.7183  0.7853
  186SLPC  H12X21472   3.193  -0.007   8.062  1.1070 -1.5358 -1.1638
  186SLPC  H12Y21473   3.185   0.170   8.094 -1.6563 -1.9046  0.5395
  186SLPC  C31321474   3.377   0.081   8.144  0.2974 -0.1277  0.3951
  186SLPC  H13X21475   3.425   0.181   8.152 -0.2357  0.1188  0.5633
  186SLPC  H13Y21476   3.447   0.014   8.090 -0.4287  1.0897 -2.1760
  186SLPC  C31421477   3.336   0.023   8.279  0.3012 -0.0946  0.1553
  186SLPC  H14X21478   3.271  -0.067   8.273  1.1588 -0.7246  0.0568
  186SLPC  H14Y21479   3.272   0.098   8.328  1.1192  0.3266  0.5971
  186SLPC  C31521480   3.454  -0.011   8.370  0.8350 -0.6682  0.2964
  186SLPC  H15X21481   3.521  -0.080   8.315 -1.3499 -2.4735 -0.2647
  186SLPC  H15Y21482   3.405  -0.070   8.451  0.4395  1.3886  1.6447
  186SLPC  C31621483   3.512   0.111   8.435 -0.2951 -0.4004 -0.1941
  186SLPC  H16X21484   3.427   0.173   8.472  0.6736  0.9637 -0.1853
  186SLPC  H16Y21485   3.568   0.167   8.357 -0.8348  0.7112  0.1810
  186SLPC  C31721486   3.590   0.071   8.558  0.7100 -0.0160 -0.0605
  186SLPC  H17X21487   3.647   0.158   8.597 -0.3173  0.4347  0.4795
  186SLPC  H17Y21488   3.660  -0.014   8.542  1.8039  0.7911  0.3284
  186SLPC  C31821489   3.506   0.034   8.683 -0.3797  0.1475 -0.1678
  186SLPC  H18X21490   3.457  -0.062   8.657 -0.1093  0.1386 -0.6695
  186SLPC  H18Y21491   3.438   0.118   8.708  0.2682  0.1618  1.6457
  186SLPC  H18Z21492   3.572   0.015   8.771 -4.2316  0.0145  2.9658
  187SLPC     N21493   6.002   6.004   6.096  0.0964 -0.0202 -0.4893
  187SLPC   C1321494   5.890   6.074   6.158 -0.0426  0.1566  0.4760
  187SLPC  H13A21495   5.890   6.182   6.146  0.1184  0.2026  0.8536
  187SLPC  H13B21496   5.800   6.023   6.129  0.6584 -1.5545  1.2220
  187SLPC  H13C21497   5.903   6.056   6.264 -0.3968 -2.8176  0.0940
  187SLPC   C1421498   6.139   6.061   6.147 -0.1158  0.2346  0.0126
  187SLPC  H14A21499   6.140   6.169   6.140 -0.5237  0.2416  0.0376
  187SLPC  H14B21500   6.161   6.039   6.250 -1.0431 -0.1578  0.1332
  187SLPC  H14C21501   6.215   6.011   6.089 -1.8022 -2.3257 -0.1028
  187SLPC   C1521502   5.988   6.019   5.949  0.4216 -0.0815  0.5382
  187SLPC  H15A21503   5.902   5.965   5.911 -0.1871  1.4269 -0.3254
  187SLPC  H15B21504   5.973   6.122   5.921 -1.4542 -0.2853  0.6208
  187SLPC  H15C21505   6.071   5.975   5.896  0.6744 -0.0363  0.8945
  187SLPC   C1221506   6.001   5.853   6.118 -0.1492  0.6214  0.3019
  187SLPC  H12A21507   6.013   5.830   6.223 -0.2913  1.9415  0.6228
  187SLPC  H12B21508   6.088   5.806   6.075 -1.0861 -1.2947  0.4284
  187SLPC   C1121509   5.883   5.781   6.066  0.0633  0.3768 -0.0065
  187SLPC  H11A21510   5.890   5.676   6.101 -0.7419 -0.0928 -1.2000
  187SLPC  H11B21511   5.881   5.775   5.955 -0.4077 -0.4295  0.0355
  187SLPC     P21512   5.671   5.782   6.229 -0.0013 -0.5111  0.1167
  187SLPC   O1321513   5.573   5.881   6.255  0.5622  0.0938 -0.2220
  187SLPC   O1421514   5.630   5.645   6.206 -0.4438 -0.3982  0.2047
  187SLPC   O1221515   5.763   5.830   6.105 -0.2857  0.8219  0.1444
  187SLPC   O1121516   5.771   5.785   6.356 -0.2325 -0.3129  0.0556
  187SLPC    C121517   5.801   5.903   6.435 -0.0513  0.0209  0.4086
  187SLPC    HA21518   5.908   5.929   6.420 -0.3928  1.2205 -0.1432
  187SLPC    HB21519   5.747   5.994   6.399  1.7317  1.2219  0.6222
  187SLPC    C221520   5.776   5.890   6.588  0.0958 -0.0808  0.4400
  187SLPC    HS21521   5.820   5.981   6.634 -0.0939  0.9357 -1.3296
  187SLPC   O2121522   5.813   5.763   6.641 -0.3963 -0.1561 -0.1115
  187SLPC   C2121523   5.947   5.744   6.641  0.0781  0.9722 -0.4370
  187SLPC   O2221524   6.035   5.817   6.605  0.1296  0.1980  0.0722
  187SLPC   C2221525   5.969   5.604   6.690  0.3392  0.2916  0.5706
  187SLPC   H2R21526   5.876   5.543   6.698  0.5772  0.1164  2.5776
  187SLPC   H2S21527   6.036   5.556   6.616 -1.5773  0.3554 -1.3054
  187SLPC    C321528   5.621   5.912   6.619  0.2077  1.0988 -0.0936
  187SLPC    HX21529   5.560   5.828   6.579  1.1033  0.1935  0.3816
  187SLPC    HY21530   5.592   6.006   6.568 -0.1035  0.4193 -1.2093
  187SLPC   O3121531   5.590   5.933   6.764 -0.2424  0.0391 -0.3317
  187SLPC   C3121532   5.557   5.821   6.825 -0.2548  0.6698 -0.4946
  187SLPC   O3221533   5.565   5.711   6.776 -0.2949  0.0240  0.1886
  187SLPC   C3221534   5.529   5.844   6.972 -0.0532  0.3910  0.3425
  187SLPC   H2X21535   5.472   5.940   6.975 -0.5670  0.0656  1.8775
  187SLPC   H2Y21536   5.628   5.856   7.020 -0.4966  2.4025  0.8507
  187SLPC   C2321537   6.028   5.603   6.836 -0.1680 -0.3191 -0.2365
  187SLPC   H3R21538   6.111   5.677   6.839 -3.0096  3.1374  0.5648
  187SLPC   H3S21539   6.063   5.498   6.848  0.1087 -0.5120 -2.2718
  187SLPC   C2421540   5.919   5.648   6.939  0.2068 -0.2554  0.3673
  187SLPC   H4R21541   5.828   5.586   6.927 -0.0567 -0.2171  1.9970
  187SLPC   H4S21542   5.891   5.753   6.919 -2.0978 -1.1420 -1.4986
  187SLPC   C2521543   5.965   5.641   7.082 -0.4664  0.0696 -0.1154
  187SLPC   H5R21544   6.061   5.697   7.075  0.1362 -1.0142 -0.8044
  187SLPC   H5S21545   5.988   5.540   7.121  2.3390 -0.3868 -2.5520
  187SLPC   C2621546   5.867   5.714   7.170 -0.5558  0.1309 -0.5605
  187SLPC   H6R21547   5.774   5.659   7.195 -0.7789  0.2747 -1.0552
  187SLPC   H6S21548   5.844   5.818   7.138  1.0690  0.7198  0.0819
  187SLPC   C2721549   5.936   5.752   7.313  0.0694 -0.2436 -0.5458
  187SLPC   H7R21550   6.013   5.825   7.282  0.9353 -1.3556 -1.0660
  187SLPC   H7S21551   5.987   5.659   7.346  1.5326 -0.4423 -3.1576
  187SLPC   C2821552   5.836   5.797   7.419 -0.3289  0.1048  0.6577
  187SLPC   H8R21553   5.746   5.733   7.409 -0.9281  1.2368 -2.2654
  187SLPC   H8S21554   5.810   5.902   7.392 -1.0829 -0.1484  0.3822
  187SLPC   C2921555   5.906   5.774   7.553  0.0598 -0.4395  0.9707
  187SLPC   H9R21556   6.009   5.734   7.545  1.1590  2.2929  0.3134
  187SLPC  C21021557   5.853   5.804   7.673  0.1373 -0.6355  0.8071
  187SLPC  H10R21558   5.906   5.803   7.769 -0.2518  0.5869  1.0510
  187SLPC  C21121559   5.718   5.864   7.696 -0.3658 -0.4612  0.8127
  187SLPC  H11R21560   5.653   5.866   7.605  2.0839 -0.3664 -1.0289
  187SLPC  H11S21561   5.736   5.969   7.728  0.0102 -1.5837  4.7292
  187SLPC  C21221562   5.645   5.804   7.815  0.6104  0.1762 -0.1732
  187SLPC  H12R21563   5.569   5.728   7.791 -0.5846  0.9785  0.9356
  187SLPC  C21321564   5.665   5.831   7.943  0.0152 -0.3054  0.8013
  187SLPC  H13R21565   5.614   5.766   8.016  1.4837  0.8698  2.9944
  187SLPC  C21421566   5.761   5.922   8.013  0.0976 -0.7527  0.1435
  187SLPC  H14R21567   5.810   5.981   7.933  0.8764  1.0931  1.9088
  187SLPC  H14S21568   5.838   5.862   8.066 -0.8143 -2.7021 -0.6563
  187SLPC  C21521569   5.687   6.014   8.107  0.5049 -0.0765 -0.1070
  187SLPC  H15R21570   5.592   6.049   8.062  0.1700 -1.0269 -0.1698
  187SLPC  H15S21571   5.731   6.115   8.116 -0.6069  0.3393  0.8168
  187SLPC  C21621572   5.668   5.961   8.246 -0.2824 -0.0213 -0.1722
  187SLPC  H16R21573   5.632   6.038   8.317  0.3612 -0.5633  0.7712
  187SLPC  H16S21574   5.767   5.930   8.287 -0.0617  2.5314  1.4078
  187SLPC  C21721575   5.578   5.842   8.270  0.1080 -0.2859 -0.0358
  187SLPC  H17R21576   5.631   5.752   8.234 -1.1504 -0.3540 -1.8534
  187SLPC  H17S21577   5.482   5.868   8.219  1.2197  1.3784 -1.3659
  187SLPC  C21821578   5.538   5.810   8.416  0.1034  0.3795  0.3016
  187SLPC  H18R21579   5.490   5.899   8.463 -0.1229  0.0345  0.7231
  187SLPC  H18S21580   5.632   5.788   8.471 -0.2051 -0.0092  0.6766
  187SLPC  H18T21581   5.487   5.713   8.432  2.4453 -0.5772  2.7575
  187SLPC   C3321582   5.445   5.733   7.038 -0.1948  0.0891  0.0887
  187SLPC   H3X21583   5.467   5.632   6.995 -1.7012 -0.3219  0.2383
  187SLPC   H3Y21584   5.337   5.755   7.026 -0.0218  0.6020 -0.5566
  187SLPC   C3421585   5.470   5.737   7.192 -0.5720  0.0409 -0.0699
  187SLPC   H4X21586   5.578   5.723   7.212 -0.5102 -2.3158 -1.6434
  187SLPC   H4Y21587   5.410   5.661   7.247 -0.2878 -0.0548  0.1068
  187SLPC   C3521588   5.418   5.876   7.249  0.9332  0.5911  0.8350
  187SLPC   H5X21589   5.312   5.878   7.217  0.1929 -0.4092  3.0337
  187SLPC   H5Y21590   5.475   5.956   7.197 -0.9641  2.0524  0.9014
  187SLPC   C3621591   5.416   5.890   7.400  0.4858  0.5902  0.6925
  187SLPC   H6X21592   5.510   5.908   7.458 -0.0431  0.2889  1.6808
  187SLPC   H6Y21593   5.371   5.802   7.453  0.4435 -0.5305 -1.1301
  187SLPC   C3721594   5.342   6.018   7.444 -0.2225 -0.0941 -0.2851
  187SLPC   H7X21595   5.384   6.105   7.389 -0.7037  1.0281  1.0783
  187SLPC   H7Y21596   5.237   6.006   7.409 -0.6922 -2.0566  1.5828
  187SLPC   C3821597   5.347   6.037   7.603  0.6887 -0.0646  0.4769
  187SLPC   H8X21598   5.299   6.132   7.636 -1.4723 -0.3308 -1.6824
  187SLPC   H8Y21599   5.449   6.022   7.644 -0.0647 -1.8197  1.8297
  187SLPC   C3921600   5.270   5.921   7.668 -0.0360  0.3431  0.0850
  187SLPC   H9X21601   5.320   5.824   7.644  0.2884  0.4686  0.2415
  187SLPC   H9Y21602   5.167   5.934   7.629  0.3544  2.1948 -0.4099
  187SLPC  C31021603   5.264   5.934   7.822 -0.2439  0.0737 -0.6287
  187SLPC  H10X21604   5.210   6.030   7.835 -0.1724  0.0980 -0.5075
  187SLPC  H10Y21605   5.359   5.945   7.878 -1.0069  2.3592  0.3633
  187SLPC  C31121606   5.185   5.821   7.889 -0.2108  0.4338  0.1792
  187SLPC  H11X21607   5.230   5.726   7.854  0.2216 -0.1099  2.1226
  187SLPC  H11Y21608   5.081   5.822   7.851  1.0309  1.1805 -3.6514
  187SLPC  C31221609   5.196   5.817   8.037 -0.3236  0.3136  0.1719
  187SLPC  H12X21610   5.303   5.814   8.067 -0.7504 -2.6214  1.7445
  187SLPC  H12Y21611   5.141   5.724   8.063  0.8942 -1.4870 -3.0970
  187SLPC  C31321612   5.130   5.941   8.100 -0.2876  0.7690  0.6121
  187SLPC  H13X21613   5.031   5.933   8.051 -0.1834 -1.4363  0.6815
  187SLPC  H13Y21614   5.176   6.039   8.073 -0.6120  0.6254 -0.5139
  187SLPC  C31421615   5.106   5.918   8.248  0.6524  0.5349 -0.5212
  187SLPC  H14X21616   5.206   5.921   8.297  0.2620  2.9142  0.2789
  187SLPC  H14Y21617   5.056   5.819   8.254  3.1394 -0.7075  1.9784
  187SLPC  C31521618   5.028   6.045   8.287 -0.7895  0.2618 -0.4460
  187SLPC  H15X21619   4.942   6.040   8.216  0.1105 -1.7267 -1.4619
  187SLPC  H15Y21620   5.081   6.141   8.268 -0.8336  0.4433  0.3207
  187SLPC  C31621621   4.962   6.060   8.424 -0.5633  0.0511 -0.6665
  187SLPC  H16X21622   4.913   5.960   8.431 -2.1936  0.9370  2.1107
  187SLPC  H16Y21623   4.881   6.136   8.427  0.3137  1.0190  1.7524
  187SLPC  C31721624   5.051   6.091   8.544 -0.0791  0.1696  0.0680
  187SLPC  H17X21625   5.098   6.190   8.532 -3.0226  1.4167 -2.4329
  187SLPC  H17Y21626   5.122   6.006   8.540 -0.3254 -0.0941  0.9775
  187SLPC  C31821627   4.975   6.103   8.669  0.1048 -0.5929  0.5969
  187SLPC  H18X21628   4.903   6.180   8.635  1.6484  1.0205  0.8683
  187SLPC  H18Y21629   5.027   6.136   8.761 -2.2782  1.4688  1.3050
  187SLPC  H18Z21630   4.928   6.004   8.686  0.7668 -0.7835  1.4071
  188SLPC     N21631   6.620   6.148   6.037 -0.2432  0.3856  0.0940
  188SLPC   C1321632   6.755   6.142   6.104 -0.1717 -0.1626  0.3495
  188SLPC  H13A21633   6.749   6.146   6.211 -2.8558  0.0421  0.2453
  188SLPC  H13B21634   6.815   6.060   6.068  1.1081  1.1975 -0.7660
  188SLPC  H13C21635   6.803   6.232   6.066  0.4074 -0.8612 -0.6316
  188SLPC   C1421636   6.536   6.040   6.087  0.2598  0.3672 -0.3976
  188SLPC  H14A21637   6.523   6.050   6.194  2.6159  1.6823 -0.1659
  188SLPC  H14B21638   6.441   6.043   6.035 -0.0394 -0.4480  0.0804
  188SLPC  H14C21639   6.570   5.938   6.076 -1.8997 -0.4538 -0.0179
  188SLPC   C1521640   6.635   6.132   5.887 -0.3451 -0.2196  0.3947
  188SLPC  H15A21641   6.698   6.046   5.875 -1.2964 -1.1133  1.5549
  188SLPC  H15B21642   6.540   6.112   5.838 -0.6235  1.0670  0.3734
  188SLPC  H15C21643   6.678   6.217   5.837  0.5955 -0.9295 -0.0163
  188SLPC   C1221644   6.554   6.286   6.075  0.0197  0.6930 -0.5193
  188SLPC  H12A21645   6.544   6.289   6.183 -1.3946 -2.1983 -0.4627
  188SLPC  H12B21646   6.454   6.296   6.036 -1.4198 -2.8474  1.7230
  188SLPC   C1121647   6.628   6.406   6.026  0.7679  0.1048 -0.3117
  188SLPC  H11A21648   6.654   6.392   5.919  1.1594 -0.2246 -0.1740
  188SLPC  H11B21649   6.718   6.421   6.089  0.3042 -0.2899  0.4574
  188SLPC     P21650   6.455   6.565   6.168  0.0504  0.3151  0.1740
  188SLPC   O1321651   6.463   6.714   6.186  0.8307 -0.2617  0.4889
  188SLPC   O1421652   6.322   6.508   6.142  0.2176 -0.7682  0.2542
  188SLPC   O1221653   6.547   6.518   6.049  1.0606  0.6829 -0.0751
  188SLPC   O1121654   6.499   6.494   6.301  0.6038 -0.4166 -0.3908
  188SLPC    C121655   6.630   6.525   6.345  0.4445 -0.6144 -0.4556
  188SLPC    HA21656   6.672   6.427   6.376 -1.4315 -1.4606 -0.4492
  188SLPC    HB21657   6.698   6.574   6.271  0.2243  0.7124  0.2079
  188SLPC    C221658   6.636   6.619   6.472 -0.0301  0.4346  0.7525
  188SLPC    HS21659   6.609   6.720   6.436  0.4459  0.1471 -0.4771
  188SLPC   O2121660   6.761   6.616   6.538 -0.3043 -0.2938  0.1903
  188SLPC   C2121661   6.853   6.681   6.472  0.6067 -0.1924  0.8618
  188SLPC   O2221662   6.837   6.755   6.370  0.5421  0.2434 -0.3937
  188SLPC   C2221663   6.981   6.676   6.559 -0.9131 -0.1768 -0.4242
  188SLPC   H2R21664   7.025   6.574   6.555  0.5587  0.4428 -0.5006
  188SLPC   H2S21665   7.061   6.738   6.514  0.1329 -0.1174  1.4007
  188SLPC    C321666   6.530   6.583   6.580  0.0091  0.9682 -0.3209
  188SLPC    HX21667   6.536   6.475   6.606  0.0389  0.9524 -0.3929
  188SLPC    HY21668   6.430   6.583   6.531 -1.1709 -2.2597  1.7597
  188SLPC   O3121669   6.538   6.678   6.689  0.0068  0.6980  0.3582
  188SLPC   C3121670   6.467   6.647   6.785  0.0031  0.5041 -0.2765
  188SLPC   O3221671   6.418   6.534   6.806  0.1974  0.2521 -0.2542
  188SLPC   C3221672   6.446   6.761   6.884 -0.4618  0.4712  0.1998
  188SLPC   H2X21673   6.412   6.851   6.828 -0.9012  0.0220 -0.2559
  188SLPC   H2Y21674   6.549   6.789   6.917 -0.4889  0.1048  0.6096
  188SLPC   C2321675   6.962   6.728   6.706  0.4342  0.2865  0.4847
  188SLPC   H3R21676   7.063   6.725   6.753  0.0489 -1.1322  1.2665
  188SLPC   H3S21677   6.888   6.657   6.748 -0.6035 -1.5343 -3.9202
  188SLPC   C2421678   6.887   6.867   6.720 -0.4056  0.3919  0.1084
  188SLPC   H4R21679   6.798   6.874   6.655 -0.0260  1.0487 -0.3559
  188SLPC   H4S21680   6.970   6.936   6.694  0.7131 -0.8765  0.1395
  188SLPC   C2521681   6.848   6.883   6.863 -0.4043  0.3835 -0.3847
  188SLPC   H5R21682   6.940   6.853   6.918 -0.5864 -0.4506 -0.5175
  188SLPC   H5S21683   6.766   6.818   6.900  1.7965 -2.4766 -0.1621
  188SLPC   C2621684   6.813   7.025   6.890  0.1803 -0.1447 -0.7081
  188SLPC   H6R21685   6.900   7.094   6.883  0.3318  0.2390  2.9910
  188SLPC   H6S21686   6.783   7.034   6.997 -0.4390  1.5113 -0.9906
  188SLPC   C2721687   6.682   7.073   6.811  0.3345 -0.0686  0.6230
  188SLPC   H7R21688   6.614   6.986   6.828  1.4053 -0.7228  1.7135
  188SLPC   H7S21689   6.703   7.091   6.703  1.1974 -1.7087  0.4870
  188SLPC   C2821690   6.626   7.206   6.873 -0.1788  0.3913  0.0914
  188SLPC   H8R21691   6.564   7.251   6.793 -0.9280 -1.3102 -0.3376
  188SLPC   H8S21692   6.709   7.278   6.889 -2.8845  3.6003  0.6862
  188SLPC   C2921693   6.543   7.182   7.001  0.2913  0.1520  0.2961
  188SLPC   H9R21694   6.469   7.103   6.984  0.8204 -0.5077  1.0414
  188SLPC  C21021695   6.562   7.241   7.123  0.1873 -0.0379  0.1438
  188SLPC  H10R21696   6.489   7.217   7.202 -0.6814  1.4471 -0.1555
  188SLPC  C21121697   6.671   7.330   7.158  0.5849 -1.3632 -0.1725
  188SLPC  H11R21698   6.625   7.408   7.223 -0.4761 -1.1359 -1.1603
  188SLPC  H11S21699   6.698   7.387   7.067 -0.9318 -0.5168 -0.1348
  188SLPC  C21221700   6.797   7.278   7.224  0.0137 -0.0149 -0.0587
  188SLPC  H12R21701   6.896   7.289   7.176  1.6551  0.0694  3.0522
  188SLPC  C21321702   6.800   7.220   7.348 -0.6657 -0.8160  0.3158
  188SLPC  H13R21703   6.899   7.179   7.375  0.0477 -0.7018 -1.8920
  188SLPC  C21421704   6.686   7.193   7.440 -0.2168 -0.4322  0.0031
  188SLPC  H14R21705   6.712   7.094   7.485 -0.1597 -0.6424 -0.4802
  188SLPC  H14S21706   6.588   7.177   7.389 -0.8934  3.0954 -0.0260
  188SLPC  C21521707   6.680   7.296   7.558  0.3723  0.3945  0.6881
  188SLPC  H15R21708   6.655   7.399   7.526 -0.6337 -0.7284 -2.5467
  188SLPC  H15S21709   6.785   7.295   7.593  0.2252 -0.0135  1.1282
  188SLPC  C21621710   6.594   7.247   7.675  0.5352 -0.2744  0.3780
  188SLPC  H16R21711   6.618   7.143   7.705  0.6548 -0.5202 -0.5503
  188SLPC  H16S21712   6.486   7.256   7.649  0.4945  0.9535  0.8729
  188SLPC  C21721713   6.613   7.336   7.798  0.1923  0.4289 -0.6118
  188SLPC  H17R21714   6.592   7.442   7.775 -1.9128  0.4275  1.0565
  188SLPC  H17S21715   6.719   7.333   7.833  0.8980 -1.3010 -2.6525
  188SLPC  C21821716   6.518   7.309   7.914 -0.3349  1.0733  0.1245
  188SLPC  H18R21717   6.534   7.207   7.954 -0.5663  0.6509 -0.8400
  188SLPC  H18S21718   6.408   7.322   7.901 -1.0079 -0.4204  3.2619
  188SLPC  H18T21719   6.549   7.383   7.991  1.3981  0.4909  0.0126
  188SLPC   C3321720   6.360   6.741   7.008 -0.5414 -0.2882  0.3116
  188SLPC   H3X21721   6.377   6.633   7.027  0.4749 -0.3314 -0.7312
  188SLPC   H3Y21722   6.254   6.754   6.979 -0.9175 -1.2534  1.2040
  188SLPC   C3421723   6.409   6.817   7.125  1.3852 -0.5235 -0.4095
  188SLPC   H4X21724   6.407   6.925   7.103  0.5248 -0.6795 -1.1485
  188SLPC   H4Y21725   6.513   6.780   7.141  0.6501 -1.6668  2.3915
  188SLPC   C3521726   6.331   6.806   7.256 -0.4808  0.0105  0.0239
  188SLPC   H5X21727   6.337   6.696   7.272  0.4403  0.2516  1.5625
  188SLPC   H5Y21728   6.224   6.831   7.239 -0.5701 -1.2338 -1.5000
  188SLPC   C3621729   6.401   6.881   7.367 -0.8390  0.1039  0.0250
  188SLPC   H6X21730   6.378   6.990   7.359 -0.6409  0.1049 -0.6245
  188SLPC   H6Y21731   6.510   6.868   7.348 -0.9505 -1.1151  0.1667
  188SLPC   C3721732   6.366   6.840   7.510 -0.5172  0.2450 -0.7976
  188SLPC   H7X21733   6.398   6.734   7.526 -0.4364  0.1371 -1.6583
  188SLPC   H7Y21734   6.258   6.852   7.531 -0.1602  0.8855  0.8773
  188SLPC   C3821735   6.434   6.919   7.623  0.5522  0.3814 -0.8327
  188SLPC   H8X21736   6.421   7.028   7.612  0.3965  0.7910  2.4411
  188SLPC   H8Y21737   6.542   6.894   7.624  0.4918 -0.1256 -2.7582
  188SLPC   C3921738   6.389   6.890   7.764  0.3939 -0.2358 -0.1267
  188SLPC   H9X21739   6.280   6.912   7.766  0.8718  2.4657 -0.2406
  188SLPC   H9Y21740   6.434   6.950   7.845  0.5324  0.2536 -0.5601
  188SLPC  C31021741   6.393   6.739   7.787 -0.1036  0.7464  0.1205
  188SLPC  H10X21742   6.497   6.701   7.783 -0.8764 -1.5483  0.3131
  188SLPC  H10Y21743   6.354   6.678   7.703  1.8622 -0.5432  0.0835
  188SLPC  C31121744   6.326   6.691   7.913 -0.6449 -0.9053 -0.3585
  188SLPC  H11X21745   6.326   6.580   7.917 -1.4233 -0.9088 -0.3602
  188SLPC  H11Y21746   6.221   6.727   7.916 -0.5130 -0.5074 -0.4795
  188SLPC  C31221747   6.413   6.735   8.034 -0.1651 -0.3688 -0.1727
  188SLPC  H12X21748   6.402   6.845   8.045 -0.4944 -0.3168 -0.9496
  188SLPC  H12Y21749   6.519   6.703   8.027  0.0864  0.2022  0.7854
  188SLPC  C31321750   6.346   6.664   8.158  0.3750 -0.0707 -0.2285
  188SLPC  H13X21751   6.370   6.556   8.161 -3.6915 -1.2226 -2.4444
  188SLPC  H13Y21752   6.237   6.662   8.141  0.5693 -0.9191 -1.4597
  188SLPC  C31421753   6.387   6.730   8.294  0.2182 -0.6002  0.2297
  188SLPC  H14X21754   6.343   6.832   8.298  1.2472 -0.1461  0.4657
  188SLPC  H14Y21755   6.497   6.746   8.290 -0.0739  1.4887 -0.5165
  188SLPC  C31521756   6.356   6.662   8.429 -0.3993  0.4203 -0.0323
  188SLPC  H15X21757   6.251   6.624   8.428 -0.2339 -0.0683 -1.6737
  188SLPC  H15Y21758   6.373   6.734   8.512 -0.5267 -0.0531  0.4065
  188SLPC  C31621759   6.430   6.533   8.454  0.0594 -0.4507  0.0189
  188SLPC  H16X21760   6.536   6.548   8.425  0.4267  0.9306  1.9127
  188SLPC  H16Y21761   6.386   6.461   8.382  0.6856 -1.0065  0.1808
  188SLPC  C31721762   6.413   6.489   8.601  0.3609 -0.2952  0.4105
  188SLPC  H17X21763   6.308   6.453   8.612  0.7958 -1.4732  0.8656
  188SLPC  H17Y21764   6.436   6.580   8.661  0.2181 -0.9799  1.5488
  188SLPC  C31821765   6.510   6.384   8.646 -0.4305  0.8908 -0.3794
  188SLPC  H18X21766   6.509   6.290   8.587  1.7194  1.3340 -1.2137
  188SLPC  H18Y21767   6.491   6.360   8.753 -0.0630  1.0916 -0.2678
  188SLPC  H18Z21768   6.614   6.423   8.643  0.1088 -0.5175 -0.7911
  189SLPC     N21769   1.900   1.871   6.119  0.5943  0.6847  0.5039
  189SLPC   C1321770   1.946   1.778   6.003 -0.3172  0.0068  0.0400
  189SLPC  H13A21771   1.898   1.683   6.020  1.6083 -0.8686  0.9338
  189SLPC  H13B21772   1.925   1.819   5.906 -2.9093  0.5795  0.7733
  189SLPC  H13C21773   2.051   1.761   6.022 -0.3355  2.2775  2.9800
  189SLPC   C1421774   1.809   1.976   6.059 -0.2959 -0.3616 -0.7894
  189SLPC  H14A21775   1.869   2.051   6.009  0.6293  0.2766  1.1712
  189SLPC  H14B21776   1.744   1.929   5.987  0.0020 -1.2001 -0.5185
  189SLPC  H14C21777   1.755   2.028   6.138  0.2426 -1.0850  0.0725
  189SLPC   C1521778   2.024   1.928   6.174 -0.1185 -0.5430  1.1512
  189SLPC  H15A21779   2.076   1.992   6.103 -0.1610 -0.4169  1.2331
  189SLPC  H15B21780   2.014   1.985   6.265 -1.0646 -0.1734  0.8309
  189SLPC  H15C21781   2.096   1.850   6.193  1.7462 -0.5106 -4.0748
  189SLPC   C1221782   1.820   1.805   6.232 -0.2368  0.1110  0.2618
  189SLPC  H12A21783   1.877   1.730   6.285  1.2304  1.1201  0.1648
  189SLPC  H12B21784   1.739   1.751   6.186 -0.2691 -0.2965  0.7851
  189SLPC   C1121785   1.774   1.899   6.348  0.2018 -0.2540  0.5400
  189SLPC  H11A21786   1.858   1.969   6.367 -1.4156  1.8402  0.3364
  189SLPC  H11B21787   1.753   1.842   6.441  0.6382 -0.1868  0.6841
  189SLPC     P21788   1.522   1.926   6.304  0.1963  0.0493  0.1319
  189SLPC   O1321789   1.428   2.028   6.257 -0.0114  0.6241  0.6100
  189SLPC   O1421790   1.511   1.795   6.229 -0.1435 -0.2470 -0.0959
  189SLPC   O1221791   1.669   1.989   6.307 -0.1429 -0.2912  0.0773
  189SLPC   O1121792   1.479   1.888   6.453 -0.6903  0.4268 -0.2759
  189SLPC    C121793   1.527   1.955   6.565 -0.5698  0.5925 -0.3563
  189SLPC    HA21794   1.590   1.885   6.625  2.1407  2.9483 -0.2203
  189SLPC    HB21795   1.605   2.029   6.537  1.1217 -0.4693  1.3133
  189SLPC    C221796   1.407   2.020   6.651 -0.8757  0.8443 -0.2148
  189SLPC    HS21797   1.462   2.097   6.710  2.0963 -0.6133 -0.8487
  189SLPC   O2121798   1.345   1.928   6.747 -0.8765 -0.4295  0.0650
  189SLPC   C2121799   1.426   1.901   6.850 -0.4844  0.0666 -0.0011
  189SLPC   O2221800   1.541   1.936   6.867  0.3057  0.3854  0.0176
  189SLPC   C2221801   1.349   1.822   6.948  0.4640  0.6773  0.1193
  189SLPC   H2R21802   1.246   1.860   6.957 -0.2909 -1.0411 -0.8034
  189SLPC   H2S21803   1.343   1.723   6.896 -0.1395  0.3826  0.7352
  189SLPC    C321804   1.299   2.080   6.559  0.4564 -0.3570  0.0981
  189SLPC    HX21805   1.247   1.990   6.519  2.5298 -1.2494 -0.7429
  189SLPC    HY21806   1.337   2.144   6.477  3.5662 -2.7268 -0.5134
  189SLPC   O3121807   1.203   2.158   6.638 -0.0460  0.6312 -0.2705
  189SLPC   C3121808   1.257   2.273   6.673  0.3388 -0.3397  0.2516
  189SLPC   O3221809   1.367   2.315   6.639 -0.1431 -0.0787 -0.4514
  189SLPC   C3221810   1.138   2.356   6.737  0.1503 -0.3972 -0.3022
  189SLPC   H2X21811   1.049   2.290   6.737 -0.7746  0.8210 -0.5090
  189SLPC   H2Y21812   1.117   2.438   6.664  1.6622  0.3168  0.0179
  189SLPC   C2321813   1.419   1.827   7.089 -0.5350 -0.5144  0.5371
  189SLPC   H3R21814   1.342   1.842   7.167 -0.4165  0.0844  0.5399
  189SLPC   H3S21815   1.484   1.915   7.108  1.1032 -1.8246  1.2926
  189SLPC   C2421816   1.491   1.690   7.121  0.1475  0.5662  0.3001
  189SLPC   H4R21817   1.570   1.687   7.043 -1.4069 -0.4854 -1.3227
  189SLPC   H4S21818   1.429   1.600   7.104 -0.1401  1.0918 -1.6890
  189SLPC   C2521819   1.535   1.679   7.262  0.2851  0.2632  0.1831
  189SLPC   H5R21820   1.445   1.712   7.318  0.3433  0.0813  0.3897
  189SLPC   H5S21821   1.620   1.742   7.296 -1.6421  2.0663  1.9328
  189SLPC   C2621822   1.558   1.525   7.304 -0.1533 -0.1516  0.2512
  189SLPC   H6R21823   1.655   1.498   7.256 -0.7570 -1.4912 -0.2544
  189SLPC   H6S21824   1.490   1.446   7.266  1.6866 -2.1686  0.9286
  189SLPC   C2721825   1.589   1.516   7.453 -0.7050 -0.0998  0.4049
  189SLPC   H7R21826   1.583   1.411   7.490  1.1304 -0.4510 -0.2276
  189SLPC   H7S21827   1.517   1.586   7.500  0.1627 -0.1705  1.8927
  189SLPC   C2821828   1.738   1.554   7.479  0.2303 -0.3833 -0.3340
  189SLPC   H8R21829   1.758   1.659   7.449  2.6279 -0.3771  0.9908
  189SLPC   H8S21830   1.807   1.483   7.428 -1.0399 -0.4900 -1.9678
  189SLPC   C2921831   1.761   1.532   7.633  0.4835  0.3800 -0.2650
  189SLPC   H9R21832   1.714   1.444   7.679 -0.7959  0.7878 -0.7449
  189SLPC  C21021833   1.821   1.614   7.721  0.9950 -0.0937 -0.8262
  189SLPC  H10R21834   1.804   1.584   7.825 -1.4051 -2.5064 -1.7939
  189SLPC  C21121835   1.901   1.738   7.702  0.2118  0.4517  0.2249
  189SLPC  H11R21836   1.932   1.766   7.805 -1.2216  0.4066  0.6927
  189SLPC  H11S21837   1.832   1.817   7.664 -0.3624 -0.0136  0.2855
  189SLPC  C21221838   2.014   1.729   7.603  0.5806  0.0350  0.1487
  189SLPC  H12R21839   2.056   1.631   7.577 -0.7725 -0.1613 -1.5073
  189SLPC  C21321840   2.069   1.824   7.522 -0.1144  0.7596  0.2122
  189SLPC  H13R21841   2.160   1.803   7.464 -0.6816  1.6328 -1.0438
  189SLPC  C21421842   2.026   1.971   7.523  0.9010 -0.4229  0.3948
  189SLPC  H14R21843   2.107   2.046   7.515 -1.2136  1.8176 -1.8136
  189SLPC  H14S21844   1.972   1.996   7.617  1.0505 -1.8830  0.8936
  189SLPC  C21521845   1.923   2.004   7.412  0.1512  0.5905  0.0251
  189SLPC  H15R21846   1.881   2.106   7.426 -1.2492  0.1141 -0.5046
  189SLPC  H15S21847   1.834   1.938   7.414  1.1324 -1.0957 -3.2284
  189SLPC  C21621848   1.987   2.011   7.269 -0.2765 -0.1953 -0.4994
  189SLPC  H16R21849   2.017   1.910   7.235  0.7751  0.1273 -0.5677
  189SLPC  H16S21850   2.079   2.073   7.277  0.9921 -2.1815  1.3543
  189SLPC  C21721851   1.890   2.052   7.161  0.4384  0.4833 -0.2525
  189SLPC  H17R21852   1.933   2.048   7.059  0.0036 -0.1944 -0.4116
  189SLPC  H17S21853   1.861   2.159   7.173 -1.1150  0.0167  0.3597
  189SLPC  C21821854   1.763   1.962   7.155  0.5612  0.1482  0.4760
  189SLPC  H18R21855   1.717   1.989   7.057  1.7515 -0.9531 -0.4186
  189SLPC  H18S21856   1.683   1.962   7.232  0.6401 -1.3249  0.5732
  189SLPC  H18T21857   1.787   1.854   7.149 -1.6267 -0.4301  1.2301
  189SLPC   C3321858   1.165   2.417   6.881 -1.0005  1.0003 -0.1971
  189SLPC   H3X21859   1.093   2.497   6.908 -2.2792 -0.7404  1.9863
  189SLPC   H3Y21860   1.269   2.453   6.887 -1.6908  3.0746  0.0896
  189SLPC   C3421861   1.132   2.305   6.983 -0.0231  0.1014  0.2474
  189SLPC   H4X21862   1.204   2.220   6.979 -0.4846 -0.3229  0.8908
  189SLPC   H4Y21863   1.035   2.255   6.963 -0.1107  0.8743 -1.4371
  189SLPC   C3521864   1.112   2.356   7.127  0.0066  0.2351  0.0420
  189SLPC   H5X21865   1.082   2.272   7.194  0.9007  0.7977  1.1671
  189SLPC   H5Y21866   1.017   2.414   7.126 -1.3665 -1.8813 -0.7253
  189SLPC   C3621867   1.226   2.435   7.183 -0.1339 -0.2355  0.2583
  189SLPC   H6X21868   1.211   2.485   7.282 -0.5842 -1.2283  0.7047
  189SLPC   H6Y21869   1.245   2.512   7.106  2.3012 -0.2330  0.7795
  189SLPC   C3721870   1.354   2.352   7.204 -0.3757  0.1900 -0.1262
  189SLPC   H7X21871   1.440   2.410   7.245  0.9464 -2.2985  0.8134
  189SLPC   H7Y21872   1.384   2.312   7.105 -0.9398 -0.2520 -0.1210
  189SLPC   C3821873   1.323   2.246   7.304  0.2000  0.6549 -0.4249
  189SLPC   H8X21874   1.274   2.163   7.249 -0.3301 -0.2824  1.3955
  189SLPC   H8Y21875   1.256   2.279   7.386  0.8001 -2.1846  1.3465
  189SLPC   C3921876   1.453   2.176   7.367 -0.4164 -0.1744 -0.7398
  189SLPC   H9X21877   1.524   2.241   7.423 -0.3633 -1.7335  1.1120
  189SLPC   H9Y21878   1.517   2.135   7.287 -0.0168  2.6083 -1.9727
  189SLPC  C31021879   1.408   2.065   7.468  0.0034  0.0035 -0.6986
  189SLPC  H10X21880   1.325   2.008   7.421  0.7424 -0.6502 -1.2464
  189SLPC  H10Y21881   1.358   2.111   7.555 -0.2675 -2.8418  0.7461
  189SLPC  C31121882   1.523   1.966   7.520  0.4092 -0.4547  0.1839
  189SLPC  H11X21883   1.600   2.036   7.558  0.9898 -0.2083 -1.3641
  189SLPC  H11Y21884   1.582   1.925   7.436  2.2417  0.9559  0.7236
  189SLPC  C31221885   1.464   1.863   7.612  0.0167 -0.1298 -0.4860
  189SLPC  H12X21886   1.542   1.789   7.642 -0.0470 -0.5546 -1.3324
  189SLPC  H12Y21887   1.382   1.806   7.564 -0.3193 -0.8874  0.9327
  189SLPC  C31321888   1.403   1.911   7.747 -0.6120 -0.4305  0.7257
  189SLPC  H13X21889   1.308   1.961   7.717 -0.3037 -0.4317 -0.2653
  189SLPC  H13Y21890   1.469   1.981   7.803  0.0266 -1.8777  1.8488
  189SLPC  C31421891   1.382   1.797   7.839  0.1011  0.2489  0.6060
  189SLPC  H14X21892   1.374   1.705   7.776  0.4950 -0.3956  1.4664
  189SLPC  H14Y21893   1.286   1.812   7.893 -0.1109 -1.9713  0.9558
  189SLPC  C31521894   1.498   1.759   7.928  0.5838  0.2128  0.1342
  189SLPC  H15X21895   1.584   1.754   7.858 -2.0064  1.4914 -3.4595
  189SLPC  H15Y21896   1.476   1.657   7.965  1.6611  0.7974  2.5590
  189SLPC  C31621897   1.526   1.841   8.053  0.5522  0.0268  0.6732
  189SLPC  H16X21898   1.428   1.845   8.105 -1.5532 -2.9843 -2.5912
  189SLPC  H16Y21899   1.560   1.941   8.018  4.1832 -0.7672  1.5510
  189SLPC  C31721900   1.630   1.778   8.138 -0.8349 -0.4876 -0.9636
  189SLPC  H17X21901   1.601   1.672   8.155 -3.0325  0.4037  1.7690
  189SLPC  H17Y21902   1.618   1.838   8.231 -0.1814  1.1616 -1.8972
  189SLPC  C31821903   1.771   1.792   8.080  0.3012  0.0374 -0.3274
  189SLPC  H18X21904   1.785   1.901   8.065 -1.1789  0.5094  1.3431
  189SLPC  H18Y21905   1.765   1.740   7.982 -2.2191 -2.6738  1.1100
  189SLPC  H18Z21906   1.858   1.750   8.136  0.0322  0.3516  0.3336
  190SLPC     N21907   0.827   0.014   5.877  0.0535  0.2756  0.3529
  190SLPC   C1321908   0.935  -0.049   5.793  0.0939 -0.0352 -0.2201
  190SLPC  H13A21909   0.980  -0.130   5.848  1.9718  1.5128  0.6534
  190SLPC  H13B21910   0.899  -0.089   5.700  1.0192  1.8223 -1.4287
  190SLPC  H13C21911   1.021   0.010   5.765  0.4375  0.2821  1.4012
  190SLPC   C1421912   0.723  -0.089   5.901  0.2052 -0.3530 -0.1717
  190SLPC  H14A21913   0.653  -0.082   5.819 -0.4380  0.6641  0.4338
  190SLPC  H14B21914   0.754  -0.188   5.928 -1.5415 -1.4968 -2.0470
  190SLPC  H14C21915   0.667  -0.058   5.988  2.0254 -0.0859  0.9318
  190SLPC   C1521916   0.778   0.135   5.810 -0.1356  0.2040  0.0722
  190SLPC  H15A21917   0.701   0.180   5.872  0.6631  0.2510  1.0470
  190SLPC  H15B21918   0.866   0.196   5.804 -0.6019  0.8191 -0.8633
  190SLPC  H15C21919   0.729   0.117   5.715  0.4811 -0.8169 -0.0651
  190SLPC   C1221920   0.884   0.064   6.014  0.3262 -0.9613  0.2022
  190SLPC  H12A21921   0.972   0.122   5.990  0.6419 -0.3677  2.5374
  190SLPC  H12B21922   0.927  -0.018   6.070 -0.7583 -2.0364 -0.4824
  190SLPC   C1121923   0.794   0.148   6.109  0.5165 -0.0571  0.2886
  190SLPC  H11A21924   0.841   0.154   6.210  1.7313 -0.0503 -0.2593
  190SLPC  H11B21925   0.700   0.090   6.122  0.2304  0.7169  1.9844
  190SLPC     P21926   0.856   0.383   6.070  0.0541  0.1253  0.0013
  190SLPC   O1321927   0.984   0.348   6.002 -0.5530 -0.1727 -0.5902
  190SLPC   O1421928   0.792   0.505   6.020 -0.5231  0.5001  0.4453
  190SLPC   O1221929   0.747   0.274   6.062 -0.6784  0.0391 -0.3902
  190SLPC   O1121930   0.881   0.393   6.224  0.0953  0.4310  0.1553
  190SLPC    C121931   0.792   0.438   6.322  0.7512 -0.4872  0.3691
  190SLPC    HA21932   0.697   0.480   6.281  1.0329 -1.0259 -0.8746
  190SLPC    HB21933   0.763   0.353   6.388  0.1178 -1.0849 -0.6566
  190SLPC    C221934   0.845   0.564   6.409 -0.7268 -0.1086 -0.3121
  190SLPC    HS21935   0.840   0.649   6.338 -0.6880  0.4034  0.2869
  190SLPC   O2121936   0.975   0.525   6.449  0.0450  0.1060  0.2127
  190SLPC   C2121937   1.068   0.621   6.434 -0.5148 -0.5918  0.8845
  190SLPC   O2221938   1.052   0.732   6.383 -0.2695  0.1179 -0.0668
  190SLPC   C2221939   1.200   0.569   6.495 -0.0234  0.4364  0.2792
  190SLPC   H2R21940   1.263   0.501   6.434 -1.3004 -1.3923  0.8992
  190SLPC   H2S21941   1.264   0.659   6.510  0.8374 -0.5178  2.7547
  190SLPC    C321942   0.751   0.595   6.530 -0.2281 -0.6096 -0.4553
  190SLPC    HX21943   0.747   0.506   6.595  0.1242  0.2930  0.8411
  190SLPC    HY21944   0.653   0.632   6.492  0.1904  1.9049  0.7142
  190SLPC   O3121945   0.810   0.698   6.618 -0.2877 -0.3346  0.0043
  190SLPC   C3121946   0.764   0.823   6.588  0.3308 -0.8648 -0.2582
  190SLPC   O3221947   0.712   0.852   6.481  0.5706 -0.0776  0.0123
  190SLPC   C3221948   0.787   0.917   6.708  0.4754  0.2882  0.5140
  190SLPC   H2X21949   0.742   1.017   6.689 -1.0965 -0.7787 -1.9025
  190SLPC   H2Y21950   0.896   0.936   6.723  0.5039  0.9340 -0.4059
  190SLPC   C2321951   1.187   0.520   6.643 -0.1488  0.1688 -0.0148
  190SLPC   H3R21952   1.286   0.502   6.690 -0.5397  0.2232  0.8406
  190SLPC   H3S21953   1.131   0.425   6.633 -0.3305  0.1684  0.9700
  190SLPC   C2421954   1.121   0.621   6.736  0.9486 -0.0268  0.0568
  190SLPC   H4R21955   1.011   0.607   6.726  1.2420 -3.0967  0.3011
  190SLPC   H4S21956   1.142   0.721   6.692 -0.2684  0.3958  0.3912
  190SLPC   C2521957   1.156   0.617   6.882 -0.7805 -0.1471  0.6674
  190SLPC   H5R21958   1.264   0.640   6.888 -1.0761  1.8571 -0.6185
  190SLPC   H5S21959   1.143   0.517   6.929 -0.9391 -0.4112  0.0779
  190SLPC   C2621960   1.076   0.704   6.980 -0.0008 -0.2760  0.3794
  190SLPC   H6R21961   0.973   0.663   6.983 -0.2830  0.2634 -1.2053
  190SLPC   H6S21962   1.066   0.808   6.941  1.1422 -0.5422 -0.6598
  190SLPC   C2721963   1.144   0.719   7.118 -0.9949  0.2302 -0.4893
  190SLPC   H7R21964   1.253   0.743   7.110 -0.2966 -2.2169  0.7268
  190SLPC   H7S21965   1.155   0.617   7.160 -2.3493 -0.6025 -2.0273
  190SLPC   C2821966   1.073   0.814   7.212  0.0784  0.1933  0.4576
  190SLPC   H8R21967   1.040   0.902   7.153  2.4823  0.4092 -0.6836
  190SLPC   H8S21968   1.132   0.858   7.294  1.6311 -2.3130  0.8108
  190SLPC   C2921969   0.944   0.746   7.266 -0.0309 -0.1539 -0.4247
  190SLPC   H9R21970   0.889   0.679   7.199 -1.3633  1.5692 -1.1284
  190SLPC  C21021971   0.900   0.754   7.392  0.1185 -0.3058 -0.8885
  190SLPC  H10R21972   0.807   0.702   7.419 -0.4084  0.7800 -0.5442
  190SLPC  C21121973   0.964   0.817   7.515  0.1419 -0.2460 -0.4462
  190SLPC  H11R21974   1.074   0.821   7.504  0.1124  1.3942 -0.4041
  190SLPC  H11S21975   0.953   0.741   7.596  0.9180 -0.0913 -0.1915
  190SLPC  C21221976   0.923   0.961   7.541  0.3879 -0.0290 -0.8800
  190SLPC  H12R21977   0.924   1.036   7.460  1.6951  2.2202  1.0849
  190SLPC  C21321978   0.898   1.012   7.660  0.1857 -0.2164 -0.4675
  190SLPC  H13R21979   0.856   1.113   7.672  0.9892 -0.0313  1.0176
  190SLPC  C21421980   0.904   0.936   7.788 -0.2560 -0.5221  0.7107
  190SLPC  H14R21981   0.998   0.876   7.796 -0.7027 -1.5144 -1.0048
  190SLPC  H14S21982   0.825   0.859   7.780  0.6209 -1.2117 -4.0094
  190SLPC  C21521983   0.884   1.019   7.912  0.4651 -0.3526 -0.7803
  190SLPC  H15R21984   0.795   1.085   7.906 -0.4395 -1.3029  1.2760
  190SLPC  H15S21985   0.977   1.072   7.941  0.9747 -0.1810 -2.6068
  190SLPC  C21621986   0.855   0.934   8.040 -0.1537 -0.1259  0.4707
  190SLPC  H16R21987   0.938   0.866   8.067 -1.1649 -0.9075  1.7157
  190SLPC  H16S21988   0.766   0.873   8.013 -2.3715  2.9199  0.3833
  190SLPC  C21721989   0.807   1.018   8.167 -1.1110 -0.4770  0.4111
  190SLPC  H17R21990   0.813   0.941   8.247 -2.3637 -0.6883  0.3145
  190SLPC  H17S21991   0.703   1.056   8.166 -0.6066  0.9893  1.0849
  190SLPC  C21821992   0.905   1.137   8.202  0.8106  0.0158 -0.0489
  190SLPC  H18R21993   0.883   1.189   8.297 -0.5489  1.3294 -1.0309
  190SLPC  H18S21994   0.922   1.216   8.125  0.7870  1.9687  1.8646
  190SLPC  H18T21995   1.006   1.093   8.214  0.3512 -1.1348 -0.2723
  190SLPC   C3321996   0.746   0.845   6.844 -0.4955 -0.0962  0.2757
  190SLPC   H3X21997   0.753   0.920   6.926 -1.9784  0.6769 -0.2577
  190SLPC   H3Y21998   0.800   0.748   6.849  0.2941  0.3086 -0.2935
  190SLPC   C3421999   0.595   0.822   6.844 -0.2469  1.0860 -0.1348
  190SLPC   H4X22000   0.565   0.759   6.757  1.4701 -0.4942  0.3522
  190SLPC   H4Y22001   0.539   0.918   6.841 -0.8742  0.7011 -1.1850
  190SLPC   C3522002   0.555   0.746   6.972 -0.1577 -0.3789  0.2342
  190SLPC   H5X22003   0.624   0.661   6.993  1.1128  0.0290 -1.9537
  190SLPC   H5Y22004   0.458   0.697   6.950  1.6726 -2.6875 -3.9733
  190SLPC   C3622005   0.558   0.832   7.094 -0.0212 -0.0652 -0.0825
  190SLPC   H6X22006   0.479   0.909   7.085 -1.2857 -1.1193  1.5279
  190SLPC   H6Y22007   0.658   0.878   7.110  0.3687 -1.0694  0.4399
  190SLPC   C3722008   0.546   0.751   7.219 -0.0818 -0.0666 -1.2535
  190SLPC   H7X22009   0.626   0.675   7.233 -2.3053 -2.3412  0.0475
  190SLPC   H7Y22010   0.456   0.686   7.214  0.8993 -1.4103 -2.2500
  190SLPC   C3822011   0.543   0.835   7.348 -0.1347  0.7022 -0.5768
  190SLPC   H8X22012   0.458   0.906   7.350  0.5731  1.5603  0.0009
  190SLPC   H8Y22013   0.641   0.887   7.358  0.7545 -1.0064  0.0288
  190SLPC   C3922014   0.527   0.741   7.474  0.4147  0.4121  0.8926
  190SLPC   H9X22015   0.599   0.657   7.476  0.3544  0.3669  1.1350
  190SLPC   H9Y22016   0.421   0.707   7.468  0.7261 -0.6325  1.2838
  190SLPC  C31022017   0.534   0.811   7.611  0.5112  0.0301 -1.2750
  190SLPC  H10X22018   0.471   0.902   7.613  2.5926  1.5154  0.8980
  190SLPC  H10Y22019   0.634   0.859   7.619  0.2072  0.5942 -0.8430
  190SLPC  C31122020   0.500   0.713   7.729 -0.1523  0.5004 -0.5741
  190SLPC  H11X22021   0.566   0.623   7.727  0.5451  1.0045 -0.6637
  190SLPC  H11Y22022   0.398   0.673   7.716 -0.2036  0.9007 -1.5419
  190SLPC  C31222023   0.529   0.772   7.869  0.1780 -0.5234  0.2365
  190SLPC  H12X22024   0.461   0.859   7.885  1.8881  1.3247 -1.8990
  190SLPC  H12Y22025   0.634   0.807   7.863  0.4636 -1.0357  1.7597
  190SLPC  C31322026   0.507   0.673   7.979  0.1388  0.2457 -0.5717
  190SLPC  H13X22027   0.577   0.588   7.962 -0.5354 -0.1017 -1.8067
  190SLPC  H13Y22028   0.402   0.638   7.975  0.2750 -0.3908  1.0155
  190SLPC  C31422029   0.523   0.727   8.113 -0.7726 -0.1022  0.7541
  190SLPC  H14X22030   0.453   0.808   8.143  1.4316  2.6033 -0.9111
  190SLPC  H14Y22031   0.625   0.769   8.116 -0.7092 -0.1616 -0.0932
  190SLPC  C31522032   0.534   0.632   8.232 -0.2972 -0.3767  0.1483
  190SLPC  H15X22033   0.640   0.604   8.248 -0.7546 -0.6530  3.2530
  190SLPC  H15Y22034   0.474   0.539   8.221 -2.7725  0.5453  3.9903
  190SLPC  C31622035   0.474   0.688   8.360 -0.6499 -0.0882 -0.3404
  190SLPC  H16X22036   0.465   0.609   8.437  2.0172  1.7120  1.9840
  190SLPC  H16Y22037   0.373   0.732   8.349 -1.5010 -2.1146 -1.2875
  190SLPC  C31722038   0.562   0.804   8.424 -0.2198  0.2939  0.8342
  190SLPC  H17X22039   0.535   0.901   8.379 -0.3255  0.2688  0.8449
  190SLPC  H17Y22040   0.670   0.781   8.408 -0.4941  0.2054 -1.0679
  190SLPC  C31822041   0.531   0.805   8.577 -0.1752 -0.2738  0.1299
  190SLPC  H18X22042   0.525   0.704   8.623 -1.8598 -0.4991 -0.5123
  190SLPC  H18Y22043   0.434   0.858   8.585 -1.4242 -2.2485 -1.0735
  190SLPC  H18Z22044   0.604   0.860   8.640 -0.0030  1.0156 -1.1268
  191SLPC     N22045   0.427   2.661   6.167  0.8232  0.4104  0.0589
  191SLPC   C1322046   0.442   2.656   6.320 -0.3210  0.1200  0.1863
  191SLPC  H13A22047   0.352   2.675   6.377 -0.1598 -3.0385  1.7567
  191SLPC  H13B22048   0.480   2.558   6.348 -1.7865 -0.8222 -1.0269
  191SLPC  H13C22049   0.514   2.732   6.348 -0.7930  0.5701  0.1825
  191SLPC   C1422050   0.342   2.777   6.126 -0.5529 -1.1576  0.1649
  191SLPC  H14A22051   0.397   2.866   6.155  0.9296 -1.8447 -0.4294
  191SLPC  H14B22052   0.343   2.777   6.018  0.1010  0.9521  0.1194
  191SLPC  H14C22053   0.243   2.782   6.168  0.1047 -2.4715  2.0162
  191SLPC   C1522054   0.355   2.541   6.118  0.9047 -0.3481 -0.1692
  191SLPC  H15A22055   0.407   2.446   6.125 -0.6819 -1.6189 -3.4581
  191SLPC  H15B22056   0.252   2.539   6.150  0.3801  1.5277 -1.5675
  191SLPC  H15C22057   0.351   2.541   6.010  2.9578  0.9996 -0.2914
  191SLPC   C1222058   0.565   2.660   6.101 -0.8042 -0.0062  0.6330
  191SLPC  H12A22059   0.551   2.654   5.994  0.1836  1.7491  0.3591
  191SLPC  H12B22060   0.626   2.575   6.128  0.5040  0.9744  0.8815
  191SLPC   C1122061   0.660   2.786   6.117  0.1309  0.9413 -0.4930
  191SLPC  H11A22062   0.754   2.764   6.060 -0.3689  0.1361 -1.0315
  191SLPC  H11B22063   0.673   2.796   6.227 -0.7833  0.1896 -0.3070
  191SLPC     P22064   0.665   2.999   5.977  0.0475 -0.0247  0.1003
  191SLPC   O1322065   0.717   2.924   5.863  0.0029 -0.4493  0.4943
  191SLPC   O1422066   0.561   3.090   5.930 -0.2052 -0.7826  0.5914
  191SLPC   O1222067   0.594   2.900   6.079 -0.0740  0.3887 -0.0541
  191SLPC   O1122068   0.787   3.074   6.052 -0.2341  0.0430 -0.2958
  191SLPC    C122069   0.761   3.140   6.176  0.0849 -0.6139 -0.1930
  191SLPC    HA22070   0.657   3.180   6.175 -0.9692 -3.1379  1.0928
  191SLPC    HB22071   0.754   3.077   6.267  0.4576  0.7420  0.8116
  191SLPC    C222072   0.855   3.259   6.203  0.3084 -0.0471 -0.0014
  191SLPC    HS22073   0.837   3.330   6.119  0.0669  0.7699  0.7233
  191SLPC   O2122074   0.988   3.203   6.208  0.2394 -0.3275 -0.0756
  191SLPC   C2122075   1.071   3.297   6.176  0.0680  0.0075  1.0045
  191SLPC   O2222076   1.060   3.399   6.110 -0.0477 -0.4828  0.0048
  191SLPC   C2222077   1.206   3.258   6.227  0.5107 -0.2575 -0.0439
  191SLPC   H2R22078   1.210   3.147   6.217  2.6493 -0.4430  2.0258
  191SLPC   H2S22079   1.272   3.303   6.149 -1.3404  2.5848 -0.0969
  191SLPC    C322080   0.814   3.337   6.331 -0.3943 -0.0816  0.1348
  191SLPC    HX22081   0.826   3.268   6.418  2.6105  1.6655  1.2585
  191SLPC    HY22082   0.709   3.365   6.309  0.4200  1.8136 -1.7170
  191SLPC   O3122083   0.892   3.461   6.357 -0.1496 -0.0944  0.0484
  191SLPC   C3122084   0.843   3.523   6.470 -0.0981  0.2821  0.8887
  191SLPC   O3222085   0.754   3.470   6.539  0.0133 -0.0883  0.0121
  191SLPC   C3222086   0.915   3.652   6.503  0.4959  0.2452 -0.5576
  191SLPC   H2X22087   0.889   3.725   6.424 -1.2013 -0.0610 -0.3318
  191SLPC   H2Y22088   1.023   3.636   6.484  0.3961  1.0086 -1.8583
  191SLPC   C2322089   1.235   3.324   6.362  0.0969  0.2347 -0.7042
  191SLPC   H3R22090   1.220   3.434   6.362  1.6894  0.4873  0.9882
  191SLPC   H3S22091   1.343   3.321   6.387 -0.0844 -1.2937  0.0405
  191SLPC   C2422092   1.170   3.269   6.485  0.1969 -0.2759  0.2748
  191SLPC   H4R22093   1.163   3.158   6.495 -1.1461 -0.1330  1.1451
  191SLPC   H4S22094   1.063   3.296   6.484  0.0443 -0.7019  2.0706
  191SLPC   C2522095   1.247   3.319   6.617  0.0666 -0.5996 -1.1559
  191SLPC   H5R22096   1.250   3.429   6.599  0.0228 -0.3318  0.3209
  191SLPC   H5S22097   1.350   3.277   6.618  0.3331 -0.0546  1.7411
  191SLPC   C2622098   1.157   3.289   6.742 -0.6833 -0.2915 -0.8489
  191SLPC   H6R22099   1.154   3.179   6.760  1.9815 -0.1637  0.9210
  191SLPC   H6S22100   1.051   3.320   6.744 -0.5376  0.4918  3.5895
  191SLPC   C2722101   1.221   3.357   6.868 -0.0346  0.0574 -0.2569
  191SLPC   H7R22102   1.152   3.324   6.948  0.4508  1.1519  0.6295
  191SLPC   H7S22103   1.207   3.466   6.853 -1.6353  0.2662  2.3109
  191SLPC   C2822104   1.363   3.311   6.910 -0.9140  0.1599 -0.0793
  191SLPC   H8R22105   1.429   3.321   6.821  0.6313  0.3935  1.0424
  191SLPC   H8S22106   1.365   3.204   6.940 -0.3330 -0.4804 -2.1893
  191SLPC   C2922107   1.417   3.403   7.018  0.2197  0.5422 -0.1944
  191SLPC   H9R22108   1.465   3.492   6.978 -1.8131  1.3555 -0.9496
  191SLPC  C21022109   1.394   3.380   7.150 -1.1128 -0.3751  0.6961
  191SLPC  H10R22110   1.436   3.459   7.214  0.1049 -1.1626  0.8944
  191SLPC  C21122111   1.319   3.272   7.220  0.3266 -0.1997  0.1370
  191SLPC  H11R22112   1.413   3.223   7.254  0.6941  0.1635 -0.3407
  191SLPC  H11S22113   1.262   3.201   7.156 -0.2626  0.1408  0.2806
  191SLPC  C21222114   1.233   3.319   7.332 -0.0725  0.5625  0.6955
  191SLPC  H12R22115   1.144   3.375   7.299 -1.2857 -2.9316 -2.7336
  191SLPC  C21322116   1.250   3.296   7.464  0.2736  0.2225 -0.7820
  191SLPC  H13R22117   1.170   3.328   7.533 -0.2929 -2.0040 -0.3487
  191SLPC  C21422118   1.362   3.216   7.524 -0.5348  0.6090 -0.4691
  191SLPC  H14R22119   1.434   3.296   7.552 -1.6535  1.1641  0.9679
  191SLPC  H14S22120   1.415   3.149   7.454 -0.8318 -1.4096  1.1389
  191SLPC  C21522121   1.313   3.140   7.651 -0.1675 -0.3853 -0.3456
  191SLPC  H15R22122   1.239   3.058   7.634 -0.6285  0.3770 -2.3075
  191SLPC  H15S22123   1.272   3.213   7.724 -0.0146  0.4221 -1.0592
  191SLPC  C21622124   1.430   3.077   7.736 -0.2484 -0.5756  0.1044
  191SLPC  H16R22125   1.491   3.158   7.780 -1.4643 -0.7011  2.1700
  191SLPC  H16S22126   1.500   3.020   7.671 -1.8611  0.5042 -2.7724
  191SLPC  C21722127   1.377   2.979   7.847  0.2244  0.2957  0.2736
  191SLPC  H17R22128   1.319   2.898   7.799 -1.0821  2.1906 -1.5190
  191SLPC  H17S22129   1.309   3.035   7.915 -2.7685 -1.1803 -1.2983
  191SLPC  C21822130   1.484   2.905   7.915 -0.3474  0.5671  0.2086
  191SLPC  H18R22131   1.462   2.845   8.006 -0.3209 -0.8943 -0.7183
  191SLPC  H18S22132   1.565   2.977   7.943  0.6034 -0.4150  0.0514
  191SLPC  H18T22133   1.515   2.827   7.842 -1.6614  2.1838 -2.2519
  191SLPC   C3322134   0.888   3.718   6.643 -0.6479 -0.2257 -0.0210
  191SLPC   H3X22135   0.779   3.734   6.658 -0.7526 -1.4879  0.7512
  191SLPC   H3Y22136   0.947   3.810   6.662  1.8359 -2.2128  2.9121
  191SLPC   C3422137   0.934   3.619   6.748 -0.4881 -0.2621 -0.0985
  191SLPC   H4X22138   1.040   3.589   6.735 -0.7099 -2.4428  2.2822
  191SLPC   H4Y22139   0.875   3.525   6.735  1.0848 -1.2519 -0.3522
  191SLPC   C3522140   0.909   3.678   6.886 -0.2091 -0.3470 -0.1341
  191SLPC   H5X22141   0.814   3.736   6.886  2.1319  3.9140  1.5872
  191SLPC   H5Y22142   0.984   3.759   6.896 -1.6020  0.7387  2.2387
  191SLPC   C3622143   0.918   3.587   7.015 -0.3856 -0.3648 -0.4038
  191SLPC   H6X22144   1.017   3.537   7.010 -1.3958 -2.3757 -1.7089
  191SLPC   H6Y22145   0.842   3.506   7.011 -1.4293  0.6050 -0.8595
  191SLPC   C3722146   0.903   3.664   7.148  0.5658  0.0734 -0.3936
  191SLPC   H7X22147   0.801   3.707   7.158  0.3999  0.0078 -1.6199
  191SLPC   H7Y22148   0.972   3.751   7.157 -0.6965  0.9333  1.4545
  191SLPC   C3822149   0.919   3.586   7.280  0.4116 -0.2347 -0.3490
  191SLPC   H8X22150   1.010   3.523   7.274  0.6189  0.0362 -0.1121
  191SLPC   H8Y22151   0.828   3.530   7.311 -2.3929  2.3297 -3.1529
  191SLPC   C3922152   0.956   3.676   7.399  0.3190 -0.2208  0.8099
  191SLPC   H9X22153   0.864   3.734   7.425 -0.3487 -0.7629 -0.2705
  191SLPC   H9Y22154   1.032   3.750   7.365  1.4121 -1.4245  0.5506
  191SLPC  C31022155   1.011   3.599   7.516 -0.4386  0.5901 -0.6110
  191SLPC  H10X22156   1.112   3.557   7.496 -0.2937  0.8093 -0.3418
  191SLPC  H10Y22157   0.937   3.518   7.530 -0.0342  0.3840  0.4025
  191SLPC  C31122158   1.030   3.692   7.638 -0.2839  0.0350 -0.3381
  191SLPC  H11X22159   0.936   3.748   7.656 -0.0093  0.2056  0.6349
  191SLPC  H11Y22160   1.100   3.776   7.621  0.9311 -1.0613 -0.9159
  191SLPC  C31222161   1.059   3.617   7.767 -0.1043 -0.1895 -0.2661
  191SLPC  H12X22162   0.989   3.535   7.793  0.9642 -0.5107  1.7796
  191SLPC  H12Y22163   1.046   3.688   7.851 -0.3480  0.6909 -1.0285
  191SLPC  C31322164   1.197   3.556   7.767  0.0979  0.7711 -0.9734
  191SLPC  H13X22165   1.271   3.626   7.724 -0.0440  1.4170 -0.2096
  191SLPC  H13Y22166   1.200   3.455   7.722 -0.2491 -1.9324  4.3176
  191SLPC  C31422167   1.241   3.523   7.912  0.4472  0.4779 -0.8294
  191SLPC  H14X22168   1.172   3.460   7.973  1.0217 -0.1404 -0.8008
  191SLPC  H14Y22169   1.242   3.616   7.973 -1.1962 -0.4241  0.6673
  191SLPC  C31522170   1.380   3.459   7.918 -0.4096 -0.1150  0.5004
  191SLPC  H15X22171   1.444   3.545   7.891 -1.6348 -0.2771 -3.7389
  191SLPC  H15Y22172   1.406   3.376   7.849  0.7623 -0.9331  1.8721
  191SLPC  C31622173   1.408   3.412   8.068  0.1554 -0.5366 -0.3046
  191SLPC  H16X22174   1.506   3.359   8.071  0.5862  0.2206 -0.5653
  191SLPC  H16Y22175   1.318   3.364   8.112  0.4031  1.3685  2.5315
  191SLPC  C31722176   1.456   3.539   8.139 -0.4201  0.6806 -0.0578
  191SLPC  H17X22177   1.369   3.599   8.173  0.2298  0.6310  1.7993
  191SLPC  H17Y22178   1.515   3.609   8.076 -1.3012  1.8446  0.3606
  191SLPC  C31822179   1.517   3.505   8.276  0.1689 -0.1870 -0.2130
  191SLPC  H18X22180   1.616   3.454   8.282  0.7911  1.0737  0.4545
  191SLPC  H18Y22181   1.448   3.433   8.325 -0.5774 -0.0183 -0.9863
  191SLPC  H18Z22182   1.512   3.589   8.348 -1.7581  0.6117 -1.2118
  192SLPC     N22183   3.029   2.958   5.813  0.2020 -0.6098  0.7661
  192SLPC   C1322184   3.071   3.097   5.794 -0.6644 -0.4008 -0.0330
  192SLPC  H13A22185   3.093   3.140   5.890 -3.1208 -0.8001  0.7579
  192SLPC  H13B22186   3.165   3.100   5.740 -1.5329 -0.4211 -1.6227
  192SLPC  H13C22187   2.999   3.160   5.744  2.1494  1.5232 -2.0290
  192SLPC   C1422188   3.153   2.888   5.870 -0.0328  0.6858 -0.1520
  192SLPC  H14A22189   3.202   2.938   5.953 -0.0069  0.3723  0.0210
  192SLPC  H14B22190   3.125   2.788   5.900 -0.3550  0.1150 -2.2392
  192SLPC  H14C22191   3.221   2.868   5.789 -1.5142  0.2343 -1.3173
  192SLPC   C1522192   2.984   2.896   5.688  0.1818 -0.5331 -0.2774
  192SLPC  H15A22193   2.946   2.796   5.695 -1.0227 -0.0562  0.2530
  192SLPC  H15B22194   2.907   2.955   5.642  2.6554  2.8991 -0.4289
  192SLPC  H15C22195   3.060   2.893   5.611 -1.3721  1.2613 -1.9870
  192SLPC   C1222196   2.912   2.970   5.909 -0.4244 -0.5279 -0.1429
  192SLPC  H12A22197   2.844   3.048   5.879  1.0873  0.5810 -0.8063
  192SLPC  H12B22198   2.950   3.012   6.001  0.1392 -1.8427  0.2559
  192SLPC   C1122199   2.844   2.842   5.952  0.2553 -0.7604 -0.7564
  192SLPC  H11A22200   2.808   2.783   5.865 -1.3915  1.2251 -1.5245
  192SLPC  H11B22201   2.744   2.866   5.996  0.9511 -0.6262  0.8295
  192SLPC     P22202   2.959   2.797   6.189  0.1242  0.5025 -0.7459
  192SLPC   O1322203   2.893   2.690   6.265 -0.1863  0.3453 -0.4730
  192SLPC   O1422204   3.106   2.817   6.205 -0.6502 -0.0643  0.2266
  192SLPC   O1222205   2.933   2.769   6.038 -0.0636 -0.3064  0.4436
  192SLPC   O1122206   2.882   2.932   6.217  0.0550  0.0842  0.0431
  192SLPC    C122207   2.954   3.049   6.265  0.4338  0.5476 -0.4288
  192SLPC    HA22208   3.046   3.021   6.320 -0.1648 -1.7965 -0.5174
  192SLPC    HB22209   2.980   3.121   6.184 -0.5314  1.3031 -0.0866
  192SLPC    C222210   2.859   3.130   6.365  0.0043 -0.0948 -0.1575
  192SLPC    HS22211   2.910   3.223   6.399 -0.7593  0.4217 -0.4057
  192SLPC   O2122212   2.811   3.058   6.483  0.4007 -0.1181 -0.4682
  192SLPC   C2122213   2.906   3.025   6.573 -0.1920  0.4319  0.3174
  192SLPC   O2222214   3.025   3.018   6.550  1.0735 -0.2916  0.1968
  192SLPC   C2222215   2.838   3.009   6.709 -0.7197  0.5624 -0.4757
  192SLPC   H2R22216   2.743   3.066   6.719 -0.7416  0.2995  0.9834
  192SLPC   H2S22217   2.815   2.901   6.721 -2.6658  0.7501 -2.0424
  192SLPC    C322218   2.736   3.186   6.288  0.3139 -0.2571  0.6871
  192SLPC    HX22219   2.686   3.107   6.229  1.3510 -0.2661 -0.1984
  192SLPC    HY22220   2.781   3.251   6.210  0.5704 -1.7273 -0.4114
  192SLPC   O3122221   2.650   3.249   6.386 -0.0808  0.2196 -0.3399
  192SLPC   C3122222   2.556   3.179   6.433 -0.3787  0.1596 -0.0715
  192SLPC   O3222223   2.525   3.065   6.403  0.1534 -0.3780  0.8983
  192SLPC   C3222224   2.491   3.255   6.539  0.1132  0.3429  0.0887
  192SLPC   H2X22225   2.525   3.361   6.532  1.2493  0.0303  0.6918
  192SLPC   H2Y22226   2.524   3.206   6.632 -1.3142  1.4348  1.2163
  192SLPC   C2322227   2.936   3.053   6.814  0.5003 -0.2598  0.2962
  192SLPC   H3R22228   2.950   3.161   6.798 -2.1014  0.3638  1.5478
  192SLPC   H3S22229   3.032   3.001   6.794 -0.0014 -1.0837 -0.0555
  192SLPC   C2422230   2.885   3.038   6.959  0.0815 -0.0768 -0.3601
  192SLPC   H4R22231   2.872   2.929   6.977  2.0255 -0.3642 -0.4232
  192SLPC   H4S22232   2.785   3.087   6.959  0.3174  0.4276 -1.1323
  192SLPC   C2522233   2.973   3.086   7.075 -0.9922 -0.4214  0.3969
  192SLPC   H5R22234   2.916   3.085   7.171 -0.2479 -1.9748  0.8673
  192SLPC   H5S22235   2.988   3.194   7.054  0.2215 -0.3152  1.6858
  192SLPC   C2622236   3.099   2.999   7.094 -0.2219 -0.0825  0.2916
  192SLPC   H6R22237   3.156   3.007   6.999  1.4530 -0.6483  1.2045
  192SLPC   H6S22238   3.072   2.893   7.115  0.8537 -1.1184 -3.0263
  192SLPC   C2722239   3.196   3.047   7.196 -0.0569 -0.6492 -0.1813
  192SLPC   H7R22240   3.236   3.150   7.180  1.3589 -0.9833  1.0045
  192SLPC   H7S22241   3.285   2.982   7.193  0.7989  0.5093 -1.1013
  192SLPC   C2822242   3.146   3.055   7.343  0.1304 -0.8577  0.1290
  192SLPC   H8R22243   3.050   3.109   7.343  0.8410  0.4485  0.6531
  192SLPC   H8S22244   3.209   3.132   7.392  1.4372 -1.4351 -0.5596
  192SLPC   C2922245   3.147   2.926   7.417 -0.4089 -0.1109 -0.1122
  192SLPC   H9R22246   3.114   2.838   7.359 -0.8659  0.1827 -0.3000
  192SLPC  C21022247   3.182   2.916   7.544  0.4778  0.5567 -0.3753
  192SLPC  H10R22248   3.195   2.816   7.589  4.5216  1.2120  0.3584
  192SLPC  C21122249   3.217   3.024   7.638 -0.4192 -0.9549  0.6486
  192SLPC  H11R22250   3.169   3.003   7.736 -3.2141  2.2164  0.1327
  192SLPC  H11S22251   3.171   3.122   7.613 -1.5485 -1.5732  0.2353
  192SLPC  C21222252   3.363   3.040   7.652 -0.1328  0.0961 -0.0031
  192SLPC  H12R22253   3.422   3.087   7.571  2.5579  0.4367  2.0032
  192SLPC  C21322254   3.436   2.979   7.748  0.3699 -0.1713 -0.6818
  192SLPC  H13R22255   3.546   2.981   7.750  0.4310  0.1181  3.1791
  192SLPC  C21422256   3.377   2.904   7.870  0.3478 -0.0920  0.0891
  192SLPC  H14R22257   3.269   2.891   7.847  0.3316  1.0797 -0.5748
  192SLPC  H14S22258   3.385   2.977   7.953 -2.0177  0.6654 -0.2544
  192SLPC  C21522259   3.444   2.764   7.879 -0.5228 -0.4560 -0.1811
  192SLPC  H15R22260   3.432   2.729   7.983 -1.3377 -1.4518 -0.5938
  192SLPC  H15S22261   3.553   2.766   7.860 -0.3701 -0.1132  0.6749
  192SLPC  C21622262   3.377   2.662   7.790 -0.2383  0.0125 -0.4926
  192SLPC  H16R22263   3.378   2.702   7.687 -0.1028  3.7810  0.8138
  192SLPC  H16S22264   3.269   2.647   7.815  0.0293  0.8630  1.3378
  192SLPC  C21722265   3.431   2.517   7.785 -0.1322 -0.4230  0.2395
  192SLPC  H17R22266   3.365   2.454   7.721 -1.9538 -1.8177  3.2897
  192SLPC  H17S22267   3.532   2.512   7.738 -0.7272 -1.0241 -1.0224
  192SLPC  C21822268   3.442   2.450   7.920 -0.1504  0.4672 -0.2993
  192SLPC  H18R22269   3.353   2.393   7.954  0.6747 -0.1043  1.0275
  192SLPC  H18S22270   3.470   2.523   7.999 -2.3222 -0.5747  1.5488
  192SLPC  H18T22271   3.528   2.380   7.921  0.0837  0.7521 -0.6744
  192SLPC   C3322272   2.339   3.228   6.528 -0.1778  0.4350 -0.3762
  192SLPC   H3X22273   2.325   3.134   6.586 -0.1160  0.3705 -0.4660
  192SLPC   H3Y22274   2.288   3.212   6.430 -1.3370 -0.5522  0.3688
  192SLPC   C3422275   2.267   3.347   6.595 -0.5996 -0.7471  0.4835
  192SLPC   H4X22276   2.157   3.349   6.579 -0.3917 -1.2487 -1.2598
  192SLPC   H4Y22277   2.309   3.424   6.527  2.2360 -3.1826 -0.7257
  192SLPC   C3522278   2.296   3.381   6.746 -0.5637  0.7596  0.3258
  192SLPC   H5X22279   2.237   3.475   6.742 -0.9307  0.5075 -0.7265
  192SLPC   H5Y22280   2.404   3.395   6.768 -0.2758 -1.5878  0.7149
  192SLPC   C3622281   2.248   3.283   6.846  0.1078  0.6186 -0.3442
  192SLPC   H6X22282   2.313   3.193   6.848 -0.0029  0.5459  1.4598
  192SLPC   H6Y22283   2.142   3.262   6.822  0.4337 -0.7152 -0.7038
  192SLPC   C3722284   2.241   3.338   6.991  0.4123  0.0108 -0.0671
  192SLPC   H7X22285   2.163   3.417   6.995  1.6026  1.4581 -2.8206
  192SLPC   H7Y22286   2.340   3.386   7.006  0.9713 -0.3694 -2.2084
  192SLPC   C3822287   2.206   3.232   7.097 -0.6860 -0.1434  0.1382
  192SLPC   H8X22288   2.291   3.163   7.075 -0.2646  0.8841 -1.6333
  192SLPC   H8Y22289   2.108   3.188   7.071 -1.3641  0.8413  0.9053
  192SLPC   C3922290   2.211   3.294   7.234  0.0356  0.2731 -0.0402
  192SLPC   H9X22291   2.119   3.353   7.253 -0.5236 -0.7614  0.5141
  192SLPC   H9Y22292   2.306   3.352   7.237  0.3853 -0.3416  1.5416
  192SLPC  C31022293   2.215   3.180   7.349 -0.0249 -0.7543 -0.3490
  192SLPC  H10X22294   2.286   3.104   7.311 -0.3172 -1.3377  0.2528
  192SLPC  H10Y22295   2.114   3.136   7.358 -1.2427  1.3782 -2.4805
  192SLPC  C31122296   2.257   3.236   7.487 -0.8601 -0.0346 -0.4087
  192SLPC  H11X22297   2.206   3.333   7.502 -1.8662 -0.8006  1.5394
  192SLPC  H11Y22298   2.365   3.262   7.477 -0.9789  0.5862 -0.1118
  192SLPC  C31222299   2.238   3.136   7.594 -0.5505 -0.7361 -0.5653
  192SLPC  H12X22300   2.278   3.037   7.564  1.9313  0.7685 -2.6909
  192SLPC  H12Y22301   2.130   3.132   7.620 -0.1814 -0.4826  1.1409
  192SLPC  C31322302   2.307   3.167   7.735  0.0206 -0.1644 -0.2743
  192SLPC  H13X22303   2.278   3.270   7.765 -3.5726 -0.8982 -0.7734
  192SLPC  H13Y22304   2.417   3.158   7.722  0.2428  1.0798  0.6213
  192SLPC  C31422305   2.257   3.071   7.845  0.5802  0.3471 -0.2987
  192SLPC  H14X22306   2.228   2.978   7.792 -2.4778  1.1557 -0.2223
  192SLPC  H14Y22307   2.162   3.115   7.884  1.2194  0.0309  1.7683
  192SLPC  C31522308   2.362   3.043   7.951 -0.2297 -0.1018 -0.5483
  192SLPC  H15X22309   2.405   3.137   7.992 -2.2557  1.0193 -0.8430
  192SLPC  H15Y22310   2.442   2.986   7.899  0.5577  0.4835 -0.0091
  192SLPC  C31622311   2.299   2.966   8.068 -0.6667  0.4646  0.1818
  192SLPC  H16X22312   2.237   2.881   8.031  0.8303 -0.4159 -0.3959
  192SLPC  H16Y22313   2.219   3.030   8.111 -2.1754 -0.9775 -0.3202
  192SLPC  C31722314   2.406   2.911   8.163 -0.1014 -0.0405  0.1985
  192SLPC  H17X22315   2.478   2.994   8.179 -1.9831  2.2149 -2.0880
  192SLPC  H17Y22316   2.434   2.814   8.118 -1.0342 -0.4581  0.4913
  192SLPC  C31822317   2.346   2.876   8.293  0.2800 -0.1047 -0.2780
  192SLPC  H18X22318   2.311   2.966   8.348 -0.2306  0.4131 -1.4068
  192SLPC  H18Y22319   2.418   2.826   8.361  1.1352  0.3776 -0.8066
  192SLPC  H18Z22320   2.267   2.799   8.280  0.7456 -0.2431 -2.8782
  193SOD    SOD22321   3.179   3.623   5.677 -0.0996 -0.2243  0.1256
  194SOD    SOD22322   1.280   5.510   5.211  0.2038  0.1098 -0.2906
  195SOD    SOD22323   2.784   4.907   5.696 -0.3959 -0.3233 -0.0978
  196SOD    SOD22324   1.429   4.336  14.418  0.6054 -0.0333 -0.8262
  197SOD    SOD22325   4.787   0.596  15.172  0.1452 -0.2411 -0.1037
  198SOD    SOD22326   5.625   6.678   4.821  0.4744 -0.1087 -0.3004
  199SOD    SOD22327   2.393   5.826   4.213 -0.2126  0.2427 -0.0496
  200SOD    SOD22328   4.009   4.072   0.561 -0.3235  0.6120  0.2473
  201SOD    SOD22329   4.248   0.805  16.226  0.0927  0.2390  0.1045
  202SOD    SOD22330   1.665   2.414   2.956 -0.4936 -0.0509 -0.0570
  203SOD    SOD22331   6.299   4.892  16.345 -0.3122 -0.2867  0.0191
  204SOD    SOD22332   0.122   2.659   5.269  0.6076 -0.1803 -0.0848
  205SOD    SOD22333   3.530   1.345  13.104  0.2460  0.3337  0.2807
  206SOD    SOD22334   4.972   5.922  13.988 -0.2796  0.5747 -0.5778
  207SOD    SOD22335   6.835   6.137  11.091 -0.1796  0.2534  0.2170
  208SOD    SOD22336   0.347   0.471  10.944  0.1742  0.3242 -0.0419
  209SOD    SOD22337   5.940   6.099   0.085  0.5857  0.0448 -0.2711
  210SOD    SOD22338   5.610   3.411  11.010  0.6506  0.2753  0.7459
  211SOD    SOD22339   2.577   5.060   6.368 -0.2878 -0.0008  0.5836
  212SOD    SOD22340   1.718   3.672  11.390  0.7164 -0.0549  0.1643
  213SOD    SOD22341   5.311   5.106   3.440  0.1119  0.0011  0.0907
  214SOD    SOD22342   2.397   6.007  15.288 -0.2886  0.0966  0.0551
  215SOD    SOD22343   4.923   4.245  11.096  0.1899  0.3355  0.2490
  216SOD    SOD22344   1.278   6.288  11.279 -0.3699 -0.5505  0.1596
  217SOD    SOD22345   2.252   3.577  12.676 -0.0853 -0.0797 -0.6473
  218SOD    SOD22346   2.922   3.099  12.013  0.1656 -0.1727  0.4901
  219SOD    SOD22347   3.097   6.355   1.765  0.0344 -0.0423 -0.2318
  220SOD    SOD22348   5.645   2.492   2.710 -0.2283  0.4323 -0.1759
  221SOD    SOD22349   4.822   5.258   6.274 -0.1785 -0.5299 -0.0694
  222SOD    SOD22350   1.834   1.997   4.493  0.0581 -0.1453  0.0072
  223SOD    SOD22351   2.095   2.509  11.711 -0.1795  0.5066 -0.1801
  224SOD    SOD22352   1.675   3.362  15.294  0.0832 -0.1661  0.3361
  225SOD    SOD22353   4.809   1.275   2.066 -0.0814  0.2442  0.2314
  226SOD    SOD22354   0.841   0.532   4.076 -0.0289 -0.4093 -0.3553
  227SOD    SOD22355   6.047   1.193   4.468 -0.0537 -0.0921 -0.3593
  228SOD    SOD22356   5.629   0.005  10.830  0.2704  0.2511 -0.0876
  229SOD    SOD22357   0.778   4.978  15.653  0.0853 -0.1954  0.2796
  230SOD    SOD22358   2.238   0.654  16.159 -0.0832 -0.4117 -0.2722
  231SOD    SOD22359   2.458   0.718  13.098  0.0949 -0.0745 -0.0348
  232SOD    SOD22360   5.379   0.183   3.957  0.1235  0.1427 -0.6111
  233SOD    SOD22361   1.285   0.348  10.484 -0.6448  0.1669 -0.0202
  234SOD    SOD22362   0.576   6.268   1.405  0.0186 -0.2380 -0.1936
  235SOD    SOD22363   6.417   4.940  14.225 -0.6362 -0.4698  0.0272
  236SOD    SOD22364   0.687   4.876  12.675 -0.6729 -0.0627  0.2354
  237SOD    SOD22365   4.483   2.283   3.304  0.6554 -0.5667  0.2912
  238SOD    SOD22366   0.564   1.911  14.108 -0.0716 -0.1903 -0.0696
  239SOD    SOD22367   6.267   5.902  10.921  0.1760  0.3246  0.4526
  240SOD    SOD22368   5.853   1.740  13.640  0.5545  0.5684  0.1793
  241SOD    SOD22369   3.160   4.452  13.931  0.1076  0.0822 -0.0718
  242SOD    SOD22370   3.212   1.710  11.622 -0.2114 -0.4140 -0.1751
  243SOD    SOD22371   5.720   0.430   2.546  0.6575 -0.1230 -0.2429
  244SOD    SOD22372   5.522   5.326   2.803 -0.2210 -0.0842 -0.6013
  245SOD    SOD22373   2.392   4.279   4.862  0.3698  0.0320  0.1653
  246SOD    SOD22374   0.884   4.219  16.177  0.1357  0.0660  0.0479
  247SOD    SOD22375   4.809   6.559   6.404 -0.0207  0.2602 -0.0902
  248SOD    SOD22376   2.034   2.297  16.903 -0.2287  0.0280  0.1277
  249SOD    SOD22377   3.167   4.904  11.195 -0.0415 -0.0283 -0.0398
  250SOD    SOD22378   4.474   0.116  10.755 -0.3389  0.6807  0.4473
  251SOD    SOD22379   4.757   1.783  12.607 -0.0786 -0.5857  0.2457
  252SOD    SOD22380   2.131   2.558   1.654 -0.1605  0.2733  0.4021
  253SOD    SOD22381   1.314   4.406  10.483 -0.1172  0.5580  0.1075
  254SOD    SOD22382   2.448   4.128   0.163  0.0307  0.6463 -0.2784
  255SOD    SOD22383   5.846   3.704   3.549 -0.1556  0.0479 -0.2919
  256SOD    SOD22384   5.290   0.076  13.613  0.2619 -0.5699 -0.4954
  257SOD    SOD22385   5.920   6.605  12.125 -0.2532 -0.0151 -0.0424
  258SOD    SOD22386   3.081   6.251   4.889  0.0865  0.3066 -0.0369
  259SOD    SOD22387   2.624   1.146   5.948  0.2992 -0.3642  0.1158
  260SOD    SOD22388   3.216   2.559  11.124 -0.7462  0.2306 -0.1713
  261SOD    SOD22389   1.737   0.044  14.505  0.1560  0.5780  0.5486
  262SOD    SOD22390   4.372   2.344  13.754  0.1477 -0.2832 -0.1131
  263SOD    SOD22391   1.803   2.375   6.537 -0.6793  0.3764 -0.2444
  264SOD    SOD22392   1.969   2.545   5.781 -0.0638 -0.2018  0.3548
  265SOD    SOD22393   4.805   3.995  17.058  0.0112  0.5210 -0.3567
  266CLA    CLA22394   0.372   3.040  12.954 -0.2794 -0.3203 -0.5535
  267CLA    CLA22395   2.237   0.381  11.394  0.0873  0.5420  0.2390
  268CLA    CLA22396   4.709   0.995  14.942  0.0597  0.2239 -0.2125
  269CLA    CLA22397   3.360   2.180  16.005  0.3117 -0.2557  0.2383
  270CLA    CLA22398   5.154   3.865   1.645  0.3467 -0.5438  0.2470
  271CLA    CLA22399   0.979   0.816  15.392  0.3122  0.0171 -0.1469
  272CLA    CLA22400   4.744   4.098   0.711 -0.1341 -0.0001 -0.0938
  273CLA    CLA22401   5.596   5.590   4.017  0.4301  0.4582  0.0726
  274CLA    CLA22402   3.539   6.631  12.457  0.0717  0.1160 -0.1529
  275CLA    CLA22403   2.564   0.421  16.618  0.2907  0.2105 -0.0432
  276CLA    CLA22404   6.709   2.723  16.358 -0.0942 -0.1645 -0.4124
  277CLA    CLA22405   1.850   4.270  11.022  0.1428  0.2069  0.4749
  278CLA    CLA22406   3.525   5.618  17.026  0.2731 -0.1447 -0.0983
  279CLA    CLA22407   5.315   5.007  15.568  0.4200 -0.2603 -0.5058
  280CLA    CLA22408   1.669   0.747  13.469 -0.3001  0.0982  0.0633
  281CLA    CLA22409   4.590   1.520  13.189  0.0221 -0.2394 -0.1364
  282CLA    CLA22410   5.528   6.741  14.307 -0.0179 -0.0636 -0.1468
  283CLA    CLA22411   2.553   4.571  11.885 -0.4163 -0.2044  0.1955
  284CLA    CLA22412   5.130   1.048  12.419 -0.2112  0.0979  0.0751
  285CLA    CLA22413   1.512   2.789   5.012 -0.2851  0.3880 -0.2425
  286CLA    CLA22414   0.367   4.229  14.837  0.5934 -0.4095  0.0419
  287CLA    CLA22415   2.629   3.987   0.543 -0.3420  0.0539  0.2776
  288CLA    CLA22416   2.613   5.048   3.886  0.0430 -0.1003  0.0508
  289CLA    CLA22417   6.084   2.807   4.657  0.0824  0.7646  0.0533
  290CLA    CLA22418   1.826   3.345  15.956 -0.0119 -0.3471 -0.0524
  291CLA    CLA22419   3.515   2.552  12.034 -0.1569 -0.0761 -0.5728
  292CLA    CLA22420   6.100   5.908  15.893  0.1724 -0.3379 -0.1990
  293CLA    CLA22421   1.991   4.049   3.407  0.0630 -0.6448 -0.2401
  294CLA    CLA22422   5.535   1.241   2.887  0.0885 -0.1580 -0.4692
  295CLA    CLA22423   4.643   1.634   2.798  0.0898 -0.1971  0.2678
  296CLA    CLA22424   2.528   0.186  11.638 -0.4477 -0.3967 -0.0881
  297CLA    CLA22425   0.124   5.222  14.451  0.1295 -0.2451  0.3064
  298CLA    CLA22426   3.487   3.741  16.724  0.1439 -0.0079 -0.3494
  299CLA    CLA22427   4.596   3.325  16.270 -0.1280 -0.4564 -0.3540
  300CLA    CLA22428   1.549   4.468   3.215 -0.2856  0.0064  0.3725
  301CLA    CLA22429   2.562   0.085  12.983  0.0760  0.0639  0.4660
  302CLA    CLA22430   0.073   4.795   4.115 -0.3875  0.1231 -0.3412
  303CLA    CLA22431   2.014   4.694  15.734 -0.5561  0.1267  0.2423
  304CLA    CLA22432   6.694   4.455   3.323 -0.1181  0.3126 -0.3140
  305CLA    CLA22433   5.417   5.241   3.246 -0.2925 -0.0651  0.4230
  306CLA    CLA22434   3.143   3.677  10.908  0.3714 -0.1575  0.3252
  307CLA    CLA22435   5.155   4.163   0.978  0.3484 -0.2048 -0.0608
  308CLA    CLA22436   6.822   3.986   0.326  0.0242 -0.1568  0.2606
  309CLA    CLA22437   5.097   6.422   3.305  0.1295 -0.4017  0.3810
  310CLA    CLA22438   1.274   6.191  10.977 -0.1232  0.2462 -0.2085
  311CLA    CLA22439   1.060   0.856   3.556  0.1203  0.1088 -0.3687
  312CLA    CLA22440   3.411   0.294  14.887 -0.1294 -0.2608 -0.1789
  313CLA    CLA22441   5.696   4.310  13.893 -0.2778  0.2204  0.0883
  314CLA    CLA22442   1.197   6.826  14.740 -0.1754 -0.0943 -0.2723
  315CLA    CLA22443   4.227   6.768  13.994  0.0177  0.1579  0.0133
  316CLA    CLA22444   3.717   5.364   5.665  0.1225 -0.1404  0.2539
  317CLA    CLA22445   5.348   4.607  14.749  0.1341  0.0153  0.3248
  318CLA    CLA22446   4.776   2.717   3.228  0.0539  0.5040 -0.1225
  319TIP3   OH222447   0.744   0.387  14.536 -0.0147 -0.7461 -0.4105
  319TIP3    H122448   0.678   0.454  14.554  1.4725  0.5275  0.6310
  319TIP3    H222449   0.825   0.424  14.571  1.8631 -1.0510 -4.0387
  320TIP3   OH222450   4.126   0.425  15.603 -0.4529  0.3333 -0.1633
  320TIP3    H122451   4.046   0.419  15.655  0.1283  0.1194  0.7219
  320TIP3    H222452   4.173   0.344  15.621 -0.6553 -0.1715 -1.7563
  321TIP3   OH222453   4.236   4.982   3.287 -0.1293  0.4793  0.5349
  321TIP3    H122454   4.170   4.997   3.219  1.8197 -0.5755 -1.7640
  321TIP3    H222455   4.187   4.986   3.369 -3.0104 -0.0697 -1.0018
  322TIP3   OH222456   4.612   1.159  16.347  0.1964 -0.0182 -0.0300
  322TIP3    H122457   4.684   1.137  16.406  0.2694 -1.4897 -0.6419
  322TIP3    H222458   4.605   1.085  16.287 -1.0788  0.6138 -0.7204
  323TIP3   OH222459   4.115   0.991  12.166 -0.2273 -0.1102  0.2728
  323TIP3    H122460   4.194   0.941  12.147  0.9391  1.1771  1.5539
  323TIP3    H222461   4.076   0.947  12.242 -1.5847 -1.6006 -1.2034
  324TIP3   OH222462   1.626   3.265  12.066 -0.7104 -0.1613 -0.3874
  324TIP3    H122463   1.634   3.355  12.034 -0.4095  0.4703  1.3887
  324TIP3    H222464   1.541   3.236  12.034 -0.3189  0.3060 -1.9883
  325TIP3   OH222465   0.048   1.355   5.768  0.1424 -0.1306  0.3674
  325TIP3    H122466   0.113   1.411   5.727 -0.4150  0.5797  0.4273
  325TIP3    H222467   0.041   1.388   5.858  1.8206 -2.0786  1.2886
  326TIP3   OH222468   3.230   5.377   0.454  0.2635 -0.2509  0.4309
  326TIP3    H122469   3.296   5.308   0.465  2.1775  1.3468 -0.4682
  326TIP3    H222470   3.266   5.452   0.500  0.4201  1.4830 -2.2855
  327TIP3   OH222471   4.241   2.051   3.096 -0.2545  0.2455 -0.8320
  327TIP3    H122472   4.334   2.050   3.072 -0.6009 -0.2254 -2.2570
  327TIP3    H222473   4.202   2.116   3.039 -0.8224  0.3739 -0.3015
  328TIP3   OH222474   5.097   0.746   4.734 -0.2631  0.2865 -0.2536
  328TIP3    H122475   5.046   0.689   4.676 -1.1771  0.6222  0.2027
  328TIP3    H222476   5.048   0.828   4.736 -0.3816  0.2068  1.1658
  329TIP3   OH222477   2.843   5.852  16.001  0.1173 -0.3281 -0.1428
  329TIP3    H122478   2.842   5.920  15.934 -1.2483 -0.1008  0.0790
  329TIP3    H222479   2.750   5.836  16.020  0.4298  0.4920  2.5356
  330TIP3   OH222480   2.233   6.163  11.131  0.2775 -0.6680 -0.5491
  330TIP3    H122481   2.242   6.109  11.052 -0.7338  0.3053 -1.3752
  330TIP3    H222482   2.153   6.130  11.173  2.2800 -3.1163  1.7214
  331TIP3   OH222483   5.339   2.944  12.281  0.1955 -0.6366  0.1045
  331TIP3    H122484   5.393   2.990  12.217  1.2930 -1.1604  0.6339
  331TIP3    H222485   5.289   2.881  12.229 -1.1908  0.9629 -0.6049
  332TIP3   OH222486   5.791   3.115   3.617 -0.8821  0.1274  0.1495
  332TIP3    H122487   5.849   3.094   3.690  1.7362 -0.9544 -2.0987
  332TIP3    H222488   5.822   3.200   3.586 -0.6747 -0.3182 -0.8940
  333TIP3   OH222489   0.056   0.768  16.589  0.2171 -0.4669 -0.0596
  333TIP3    H122490   0.002   0.689  16.586  0.8512 -1.1421  2.6862
  333TIP3    H222491   0.144   0.737  16.566 -0.1520  0.2512 -2.6632
  334TIP3   OH222492   4.780   4.279  15.350 -0.1992  0.1803  0.0748
  334TIP3    H122493   4.689   4.301  15.368  0.0364  1.1686  0.1135
  334TIP3    H222494   4.813   4.354  15.299  0.5125 -0.2944 -0.1744
  335TIP3   OH222495   2.955   1.141   0.580 -0.1853 -0.2568  0.1774
  335TIP3    H122496   2.988   1.220   0.623  2.4284 -0.2784 -1.5550
  335TIP3    H222497   3.020   1.121   0.513 -0.4748 -4.2045  0.8217
  336TIP3   OH222498   3.309   0.398  12.618 -0.1595 -0.3115  0.5334
  336TIP3    H122499   3.359   0.360  12.690 -0.5351 -0.8683  0.5092
  336TIP3    H222500   3.226   0.351  12.620 -1.3823  1.7225  1.6556
  337TIP3   OH222501   0.247   5.016   5.339 -0.3752  0.9525  0.3885
  337TIP3    H122502   0.253   4.927   5.304 -2.3949  1.1539 -0.6406
  337TIP3    H222503   0.242   5.072   5.261 -1.4537  1.7465  1.0045
  338TIP3   OH222504   2.635   2.336   3.957 -0.6722 -0.1160 -0.4307
  338TIP3    H122505   2.632   2.390   4.035  1.2542 -0.6302  0.0584
  338TIP3    H222506   2.686   2.388   3.894  1.0779 -1.2176 -0.0006
  339TIP3   OH222507   4.903   4.573   1.972  0.0529 -0.2839 -0.1585
  339TIP3    H122508   4.933   4.616   2.052  0.4022 -1.4016  0.3322
  339TIP3    H222509   4.982   4.561   1.920  0.3884 -2.3513  0.7128
  340TIP3   OH222510   4.516   2.199  11.212 -0.7444  0.5156  0.4168
  340TIP3    H122511   4.459   2.134  11.253 -2.3881  0.8505 -1.1859
  340TIP3    H222512   4.475   2.216  11.127  2.5729 -0.3033 -1.5254
  341TIP3   OH222513   4.008   4.137  14.173 -0.3134  0.3464  0.4117
  341TIP3    H122514   4.042   4.094  14.095 -0.1780  2.0002 -0.4966
  341TIP3    H222515   4.082   4.139  14.234 -0.0696  0.0847  0.1209
  342TIP3   OH222516   2.331   4.171  13.600  0.5396 -0.3129 -0.1778
  342TIP3    H122517   2.249   4.142  13.639  1.3257 -1.4925  0.6826
  342TIP3    H222518   2.332   4.132  13.512  0.0476 -0.0083 -0.3234
  343TIP3   OH222519   6.259   5.620  11.535  0.3676 -0.3969  0.1547
  343TIP3    H122520   6.208   5.599  11.457  1.2960  1.6693 -1.0659
  343TIP3    H222521   6.205   5.684  11.582  0.5075 -0.4576  0.3991
  344TIP3   OH222522   4.644   3.718   1.719 -0.6834 -0.3110  0.1291
  344TIP3    H122523   4.602   3.789   1.767 -0.1212  0.6346 -0.7535
  344TIP3    H222524   4.686   3.760   1.644  0.1710 -1.4890 -0.0883
  345TIP3   OH222525   0.264   3.616  14.052 -0.4203  0.3689  0.4900
  345TIP3    H122526   0.318   3.597  14.129 -1.5931 -0.2468  1.1831
  345TIP3    H222527   0.186   3.562  14.063 -1.2621  1.3522 -0.4032
  346TIP3   OH222528   2.674   6.686  13.371 -0.3196 -0.6130  0.3873
  346TIP3    H122529   2.751   6.652  13.326 -0.1397 -0.4846  0.6007
  346TIP3    H222530   2.685   6.661  13.462 -1.4959 -2.3409  0.1086
  347TIP3   OH222531   0.937   0.232  17.047  0.3754 -0.6753  0.2923
  347TIP3    H122532   1.021   0.271  17.022 -0.7757  1.0589 -1.0234
  347TIP3    H222533   0.961   0.164  17.111  2.7779 -0.3503 -0.1703
  348TIP3   OH222534   0.831   4.708   3.197 -0.1172  0.6780 -0.2433
  348TIP3    H122535   0.823   4.744   3.109 -1.5445 -0.1937 -0.4956
  348TIP3    H222536   0.868   4.780   3.249 -0.6608  1.6921 -1.2213
  349TIP3   OH222537   1.202   1.935   4.003 -0.6005 -0.2671  0.2161
  349TIP3    H122538   1.146   1.928   3.925 -0.4940  0.6549  0.0513
  349TIP3    H222539   1.177   1.859   4.057 -0.6399 -0.9452 -0.7295
  350TIP3   OH222540   3.210   2.341  14.784 -0.2961  0.1233  0.2283
  350TIP3    H122541   3.243   2.404  14.848  0.4384  1.3311 -1.2819
  350TIP3    H222542   3.270   2.267  14.789  0.6650  0.8632 -0.1244
  351TIP3   OH222543   6.176   3.802   6.044 -0.1284  0.3621 -0.2987
  351TIP3    H122544   6.166   3.754   6.127 -1.5611  1.3925  0.1710
  351TIP3    H222545   6.152   3.738   5.977 -0.4557 -0.0444  0.1910
  352TIP3   OH222546   3.983   6.678   1.284  0.4545 -0.6687  0.9640
  352TIP3    H122547   4.024   6.682   1.198  0.1147 -0.5016  0.8089
  352TIP3    H222548   4.043   6.626   1.337  0.7466 -0.6293  0.6715
  353TIP3   OH222549   6.567   2.540   3.298  0.1781 -0.8387  0.0296
  353TIP3    H122550   6.513   2.599   3.350  1.1742  0.0210  0.1340
  353TIP3    H222551   6.524   2.536   3.213 -0.1177 -0.2789  0.1513
  354TIP3   OH222552   0.918   3.928   0.284  0.3134 -0.5065 -0.3351
  354TIP3    H122553   0.890   3.973   0.205 -0.1378  1.1483  0.7024
  354TIP3    H222554   0.842   3.935   0.343  0.9064 -1.0177  0.5159
  355TIP3   OH222555   1.798   2.043   2.963 -0.4901 -0.0183  0.3274
  355TIP3    H122556   1.880   1.994   2.953 -1.0587 -0.6603 -1.6895
  355TIP3    H222557   1.738   1.980   3.002 -0.2590  0.2026  1.0536
  356TIP3   OH222558   5.365   5.232   2.934 -0.2387  0.0691  0.5373
  356TIP3    H122559   5.291   5.171   2.931 -1.1163  1.1304 -0.3437
  356TIP3    H222560   5.379   5.247   3.027 -0.5206 -0.8642  0.7446
  357TIP3   OH222561   0.636   4.296  16.235 -0.2714  0.1549 -0.0654
  357TIP3    H122562   0.623   4.390  16.227 -1.1623  0.0239 -0.3252
  357TIP3    H222563   0.548   4.261  16.251 -0.0262 -0.6772 -0.4736
  358TIP3   OH222564   1.236   3.336  13.400  0.1202 -0.9578 -0.6263
  358TIP3    H122565   1.162   3.289  13.438  0.6889 -0.0675  1.7451
  358TIP3    H222566   1.224   3.426  13.430  2.4444 -0.9075  0.2883
  359TIP3   OH222567   0.737   0.570  10.775  0.3485  0.1308  0.7771
  359TIP3    H122568   0.795   0.498  10.752  1.0873  1.2146 -0.9262
  359TIP3    H222569   0.793   0.648  10.773 -0.9457  1.0912  0.0194
  360TIP3   OH222570   2.266   0.660  10.886  0.2768 -0.4636 -0.4569
  360TIP3    H122571   2.241   0.568  10.873 -1.9131  0.0093 -0.0359
  360TIP3    H222572   2.286   0.692  10.798 -0.9647 -0.8284 -0.8992
  361TIP3   OH222573   2.229   2.248  11.984 -0.4235 -0.6327  0.5602
  361TIP3    H122574   2.172   2.218  11.914  0.2197 -0.3126 -0.1212
  361TIP3    H222575   2.172   2.300  12.041 -0.5461  0.9393 -0.9054
  362TIP3   OH222576   0.014   4.481   4.019  0.3586  0.1499 -0.6096
  362TIP3    H122577  -0.056   4.502   3.957  0.0989  0.2099 -0.2998
  362TIP3    H222578   0.032   4.564   4.064 -0.9662 -0.3493  0.9210
  363TIP3   OH222579   2.980   6.582  15.933  0.6193  0.3750  0.5111
  363TIP3    H122580   2.899   6.553  15.891  0.4700 -0.4869  1.3799
  363TIP3    H222581   2.977   6.677  15.927  0.0214  0.3141 -0.3422
  364TIP3   OH222582   5.665   4.296   5.661  0.2160 -0.0131  0.1793
  364TIP3    H122583   5.580   4.290   5.706 -0.1613 -1.5500 -0.6694
  364TIP3    H222584   5.646   4.268   5.572  1.4147  0.7305 -0.3197
  365TIP3   OH222585   1.330   0.278  11.189  0.0266  0.1056 -0.2723
  365TIP3    H122586   1.364   0.194  11.219 -0.5665  0.2186  0.7701
  365TIP3    H222587   1.255   0.296  11.247  0.5950  1.6982  0.0215
  366TIP3   OH222588   3.351   0.100   0.212  0.4059  0.4967 -0.2993
  366TIP3    H122589   3.440   0.132   0.229  0.0980  2.1549 -1.6390
  366TIP3    H222590   3.358   0.054   0.129  0.1668 -0.1596  0.0350
  367TIP3   OH222591   4.179   2.799   2.433  0.1890 -0.3399 -0.2714
  367TIP3    H122592   4.095   2.779   2.393 -0.4073 -0.1909  0.8663
  367TIP3    H222593   4.201   2.721   2.483  0.0597  0.1225  0.5263
  368TIP3   OH222594   4.321   6.743  15.914 -0.2686 -0.0310 -0.3107
  368TIP3    H122595   4.256   6.687  15.956 -0.3027  0.3260  0.1193
  368TIP3    H222596   4.334   6.816  15.976  0.5044 -0.0731 -0.4103
  369TIP3   OH222597   3.561   2.669  12.579 -0.1960  0.5317  0.5971
  369TIP3    H122598   3.576   2.659  12.673 -0.1276 -0.8332  0.4488
  369TIP3    H222599   3.466   2.673  12.570 -0.2251  0.0612  0.6735
  370TIP3   OH222600   0.647   1.627   5.051 -0.3099 -0.5481  0.8097
  370TIP3    H122601   0.727   1.603   5.096 -1.1679 -0.2063  2.5997
  370TIP3    H222602   0.593   1.669   5.118 -1.1392  1.1749 -0.8421
  371TIP3   OH222603   0.792   2.500   1.684  0.0858  0.3018 -0.2306
  371TIP3    H122604   0.853   2.462   1.621  0.3095 -1.2976  0.8846
  371TIP3    H222605   0.822   2.590   1.695  1.0034  0.1406 -1.2100
  372TIP3   OH222606   4.711   4.375   2.155 -0.4023 -0.2972  0.2121
  372TIP3    H122607   4.724   4.293   2.108 -1.2587  0.5253 -1.5790
  372TIP3    H222608   4.769   4.437   2.110  0.5520  0.0231  1.8090
  373TIP3   OH222609   0.135   1.447   4.348 -0.4206 -0.5117 -0.1465
  373TIP3    H122610   0.190   1.472   4.422 -2.3675  0.6416  1.0041
  373TIP3    H222611   0.152   1.514   4.282 -0.6908  0.0639  0.3539
  374TIP3   OH222612   2.387   3.432  15.820 -0.6488  0.7006  0.0641
  374TIP3    H122613   2.412   3.418  15.911  2.6522  1.1812 -0.6180
  374TIP3    H222614   2.330   3.508  15.822 -0.6232  0.7203  1.7154
  375TIP3   OH222615   3.060   1.127  12.722 -0.2050 -0.0449 -0.1911
  375TIP3    H122616   3.065   1.032  12.719  1.6495 -0.0003  0.5339
  375TIP3    H222617   3.060   1.154  12.630 -2.7884 -0.7477 -0.4983
  376TIP3   OH222618   3.816   3.477   3.285 -0.4493 -0.2328  0.5353
  376TIP3    H122619   3.764   3.548   3.322  0.6312  1.9156 -1.7900
  376TIP3    H222620   3.752   3.424   3.236 -0.8876  0.7561  0.0100
  377TIP3   OH222621   3.141   4.054   2.061 -0.1121 -0.1827  0.3421
  377TIP3    H122622   3.046   4.049   2.052 -0.2386  1.8386  0.0074
  377TIP3    H222623   3.157   4.145   2.088  1.6310 -0.8635  1.8323
  378TIP3   OH222624   0.375   5.609  13.107  0.4267 -0.2890  0.0636
  378TIP3    H122625   0.470   5.613  13.113  0.5580  4.0882 -1.4236
  378TIP3    H222626   0.344   5.668  13.177 -1.3292 -2.1915  1.0166
  379TIP3   OH222627   5.851   3.719  10.830 -0.5337 -0.4571 -0.3559
  379TIP3    H122628   5.781   3.673  10.783 -0.1787 -0.5480 -0.8090
  379TIP3    H222629   5.928   3.710  10.773 -0.3701  0.3907 -0.2781
  380TIP3   OH222630   0.401   5.296  14.675 -0.1934 -0.4726 -0.3524
  380TIP3    H122631   0.350   5.233  14.624 -0.5069 -1.0674  0.6586
  380TIP3    H222632   0.391   5.267  14.765  2.1364 -0.7312 -0.1347
  381TIP3   OH222633   3.958   2.248   1.668 -0.1980 -0.1847  0.3730
  381TIP3    H122634   3.907   2.298   1.604  0.6877 -0.0445 -0.2436
  381TIP3    H222635   3.907   2.252   1.748 -0.0571  1.9043  0.4007
  382TIP3   OH222636   0.007   0.524  15.824 -0.4003  0.2461  0.6534
  382TIP3    H122637   0.011   0.428  15.830 -1.7432  0.0844 -0.4098
  382TIP3    H222638   0.059   0.555  15.898  1.1952 -1.2885  0.2390
  383TIP3   OH222639   2.510   2.636   2.551 -0.0951 -0.1705 -0.4545
  383TIP3    H122640   2.438   2.692   2.580  0.5044 -0.9822  3.0143
  383TIP3    H222641   2.539   2.592   2.630  0.8177 -3.8762 -2.6360
  384TIP3   OH222642   5.635   4.178   2.141  0.1992 -0.6518 -0.4002
  384TIP3    H122643   5.710   4.173   2.201 -0.4714  0.6563  0.6195
  384TIP3    H222644   5.615   4.272   2.137 -1.8610 -1.0445 -0.0373
  385TIP3   OH222645   3.765   3.481  10.671 -0.3018 -0.1657  0.1056
  385TIP3    H122646   3.797   3.391  10.668 -0.4827 -0.2285  0.0461
  385TIP3    H222647   3.844   3.535  10.677 -0.2638 -0.4100  2.4649
  386TIP3   OH222648   2.402   6.242  14.641 -0.0633 -0.4051 -0.1744
  386TIP3    H122649   2.417   6.199  14.557 -1.0447  2.6828 -2.0928
  386TIP3    H222650   2.455   6.321  14.637 -1.8165  0.9199  1.1590
  387TIP3   OH222651   3.457   6.607  14.232  0.5117 -0.7011  0.0139
  387TIP3    H122652   3.543   6.585  14.268  1.4475  0.8746 -1.1856
  387TIP3    H222653   3.475   6.655  14.152 -1.5062 -2.9493 -1.9737
  388TIP3   OH222654   6.001   1.748   4.712  0.1019  0.4574 -0.7051
  388TIP3    H122655   5.984   1.831   4.668 -0.8224  0.2000 -0.8489
  388TIP3    H222656   6.090   1.725   4.685  0.2748  1.2760 -0.8578
  389TIP3   OH222657   4.444   5.471   5.207 -0.0195  0.3463 -0.1844
  389TIP3    H122658   4.467   5.458   5.116 -1.7893 -0.9975 -0.5000
  389TIP3    H222659   4.443   5.566   5.218  0.4021  0.5238 -1.5068
  390TIP3   OH222660   5.917   3.079   2.982 -0.0126  0.6441  0.2432
  390TIP3    H122661   5.909   3.007   3.045  1.2150  0.1299 -0.1606
  390TIP3    H222662   5.834   3.079   2.935 -0.1770 -0.2740  0.5157
  391TIP3   OH222663   1.742   0.688  11.818  0.0085  0.4300  0.7348
  391TIP3    H122664   1.736   0.645  11.733 -0.0956 -0.3127  1.1047
  391TIP3    H222665   1.693   0.630  11.877  0.5870  0.6203  1.4149
  392TIP3   OH222666   4.858   4.902   1.738  0.1424  0.0312 -0.2576
  392TIP3    H122667   4.915   4.942   1.803 -1.1875 -0.0637  1.0082
  392TIP3    H222668   4.773   4.896   1.780 -0.0586 -2.9527 -0.8377
  393TIP3   OH222669   6.410   6.269   4.668  0.4290  0.1397  0.0646
  393TIP3    H122670   6.382   6.190   4.622  0.9796 -0.7024  1.1164
  393TIP3    H222671   6.330   6.303   4.709  0.1705  0.1859 -0.4797
  394TIP3   OH222672   0.979   4.669  16.790  0.4301 -0.3364 -0.1258
  394TIP3    H122673   0.968   4.701  16.701  0.3845  1.0312  0.3472
  394TIP3    H222674   0.915   4.718  16.842  1.7598  0.3311  0.9642
  395TIP3   OH222675   1.821   3.320  12.242 -0.4536 -0.3524  0.1171
  395TIP3    H122676   1.766   3.330  12.164 -0.4029  1.0098  0.2194
  395TIP3    H222677   1.900   3.277  12.210 -1.2048 -1.5591 -0.1948
  396TIP3   OH222678   5.218   1.552   0.340 -0.4782  0.1540  0.2235
  396TIP3    H122679   5.282   1.509   0.284 -1.1395 -1.1698  0.4331
  396TIP3    H222680   5.211   1.494   0.417 -0.1195  1.5416  1.3474
  397TIP3   OH222681   6.063   6.117  11.219  0.2924 -0.3006  0.0104
  397TIP3    H122682   6.091   6.050  11.157 -0.6794  0.6410 -1.5252
  397TIP3    H222683   6.139   6.175  11.228  1.3226 -1.8421  1.7656
  398TIP3   OH222684   2.989   6.002   1.468  0.6200  0.1497 -0.4163
  398TIP3    H122685   2.898   6.031   1.452  0.1127 -1.7481 -1.1546
  398TIP3    H222686   3.036   6.028   1.389  1.2932  2.9908  0.7614
  399TIP3   OH222687   5.207   5.638  15.616  0.1355  0.1851 -0.4892
  399TIP3    H122688   5.233   5.704  15.551  0.4624  1.3431  0.7643
  399TIP3    H222689   5.121   5.667  15.646  0.6880  0.5739  0.7446
  400TIP3   OH222690   5.856   3.903  12.315  0.0780  0.3209 -0.0859
  400TIP3    H122691   5.822   3.959  12.385 -1.4510 -0.4777 -0.1565
  400TIP3    H222692   5.950   3.895  12.335 -0.2337  0.4943  1.6082
  401TIP3   OH222693   2.279   3.824  12.608  0.1827 -0.5776 -0.0935
  401TIP3    H122694   2.217   3.876  12.558  0.0553  0.2578  0.9120
  401TIP3    H222695   2.363   3.869  12.598  0.2894 -0.7640 -0.0630
  402TIP3   OH222696   3.616   0.084   0.076  0.2285  0.0617 -0.0671
  402TIP3    H122697   3.614   0.008   0.017  0.7116 -0.1795  0.2157
  402TIP3    H222698   3.632   0.159   0.018  0.2287 -0.1109 -0.2935
  403TIP3   OH222699   3.988   3.556   6.104  0.2218  0.3085 -0.3966
  403TIP3    H122700   3.935   3.478   6.089  0.1582  0.4747 -1.0717
  403TIP3    H222701   4.062   3.525   6.156 -1.9108  0.5805  3.1155
  404TIP3   OH222702   6.175   0.944  16.570 -1.0692  0.4242 -0.3598
  404TIP3    H122703   6.222   0.904  16.497 -0.9983 -0.3819  0.1154
  404TIP3    H222704   6.221   1.026  16.587  0.1125 -0.2888  0.0203
  405TIP3   OH222705   3.565   6.019  14.588  0.1785 -0.2079 -0.0035
  405TIP3    H122706   3.657   6.041  14.603  0.5327 -0.4001 -1.6825
  405TIP3    H222707   3.556   5.929  14.621  1.3103 -1.1917 -2.1381
  406TIP3   OH222708   4.691   5.911  16.074 -0.2487 -0.5823  0.5964
  406TIP3    H122709   4.671   5.876  15.987  0.9468 -0.5233  0.2872
  406TIP3    H222710   4.667   6.003  16.069 -1.5280 -0.8716  0.7991
  407TIP3   OH222711   4.317   4.462  12.516 -0.2039 -0.4658 -0.6047
  407TIP3    H122712   4.277   4.378  12.492 -0.0237 -1.0385  0.9859
  407TIP3    H222713   4.391   4.438  12.571  0.3472  0.7229 -0.8055
  408TIP3   OH222714   3.872   1.256   6.092 -0.0216  0.1595  0.0162
  408TIP3    H122715   3.836   1.289   6.010 -2.3042  0.4615  1.0633
  408TIP3    H222716   3.927   1.328   6.124 -2.4554  1.8242  0.7386
  409TIP3   OH222717   6.842   5.033   5.841  0.3083  0.4081 -0.7849
  409TIP3    H122718   6.936   5.027   5.823 -0.1541 -2.2868 -2.9931
  409TIP3    H222719   6.801   4.972   5.779 -2.6821 -0.5262  1.8074
  410TIP3   OH222720   4.878   1.753   0.627 -0.1687 -0.3842  0.0444
  410TIP3    H122721   4.967   1.771   0.657  0.4162 -1.7670 -0.7909
  410TIP3    H222722   4.847   1.682   0.683 -0.5893 -0.2211  0.0275
  411TIP3   OH222723   6.325   3.470   3.842 -0.8129 -0.2866  0.5754
  411TIP3    H122724   6.238   3.433   3.853 -1.0012 -0.0741 -0.1348
  411TIP3    H222725   6.382   3.394   3.832 -1.1507 -0.4062 -0.5607
  412TIP3   OH222726   0.155   2.337  16.919  0.3682 -0.0882  0.0300
  412TIP3    H122727   0.169   2.432  16.911  2.0870 -0.4477 -2.3551
  412TIP3    H222728   0.062   2.328  16.935  0.0540  1.9955 -0.2914
  413TIP3   OH222729   0.058   3.152  14.623 -0.0299  0.3955  0.5020
  413TIP3    H122730   0.027   3.169  14.534  0.8818 -0.5182 -0.0196
  413TIP3    H222731   0.149   3.125  14.611 -0.5820 -2.1469  1.4613
  414TIP3   OH222732   5.741   1.692   0.718  0.0745 -0.1063 -0.0424
  414TIP3    H122733   5.656   1.718   0.753  0.6043  0.5371  0.8169
  414TIP3    H222734   5.765   1.762   0.658 -0.1523 -0.4515 -0.5338
  415TIP3   OH222735   1.709   4.961  13.054 -0.6621 -0.4476  0.3356
  415TIP3    H122736   1.738   4.953  12.963 -1.2517  0.9545 -0.0049
  415TIP3    H222737   1.788   4.986  13.102 -0.8240  1.2033 -0.2146
  416TIP3   OH222738   0.115   5.893   6.383 -0.0045 -0.1325 -0.1483
  416TIP3    H122739   0.137   5.970   6.435 -0.5643  1.4021 -2.0672
  416TIP3    H222740   0.130   5.920   6.293 -3.1832 -1.1668 -1.1255
  417TIP3   OH222741   5.801   0.252  16.000  0.2335  0.0606  0.1769
  417TIP3    H122742   5.757   0.173  16.031  2.8485 -1.1726  1.0507
  417TIP3    H222743   5.891   0.224  15.982  0.5210  2.2206 -2.3669
  418TIP3   OH222744   3.228   1.374   1.812  0.6329 -0.5052  0.0721
  418TIP3    H122745   3.309   1.388   1.861  2.1148 -0.5116 -2.2187
  418TIP3    H222746   3.159   1.395   1.874  2.1981 -3.4760  3.1643
  419TIP3   OH222747   1.490   6.396  15.193 -0.1123 -0.0334  0.4042
  419TIP3    H122748   1.404   6.362  15.169 -0.0314  0.7113 -1.0661
  419TIP3    H222749   1.475   6.490  15.207  0.5439  0.1901 -0.3583
  420TIP3   OH222750   4.451   1.197  14.843  0.0812 -0.4712  0.1920
  420TIP3    H122751   4.524   1.141  14.869  0.2440 -0.0505  0.6611
  420TIP3    H222752   4.446   1.188  14.748  0.3586 -0.9663  0.2228
  421TIP3   OH222753   5.266   0.038  11.728  0.2401  0.5121 -0.2456
  421TIP3    H122754   5.258  -0.057  11.727 -0.2756  0.5520 -0.0955
  421TIP3    H222755   5.276   0.062  11.636  0.3648  0.3143 -0.2834
  422TIP3   OH222756   3.844   0.827  14.596  0.1422 -0.2400 -0.4298
  422TIP3    H122757   3.873   0.918  14.609  0.4279 -0.3192 -0.4944
  422TIP3    H222758   3.768   0.817  14.654 -0.0923  0.1375 -0.6675
  423TIP3   OH222759   3.915   6.334  10.709  0.2576 -0.3052 -0.3869
  423TIP3    H122760   3.877   6.419  10.686  1.2149  0.4962  0.8574
  423TIP3    H222761   4.009   6.347  10.701  0.4361 -1.0938  0.2747
  424TIP3   OH222762   2.091   4.937  15.550  0.2357  0.6633 -0.2243
  424TIP3    H122763   2.172   4.901  15.514 -0.5049  0.8237 -2.2125
  424TIP3    H222764   2.072   4.884  15.627  2.6996  1.2368  0.8602
  425TIP3   OH222765   2.093   0.453   6.396  0.0763  0.1151  0.0632
  425TIP3    H122766   2.007   0.475   6.432 -0.6870  0.7052 -2.0078
  425TIP3    H222767   2.110   0.520   6.330  0.8794 -1.5027 -1.4636
  426TIP3   OH222768   3.889   5.269   4.752  0.1234 -0.2635 -0.6067
  426TIP3    H122769   3.863   5.186   4.793  0.3304 -0.0866 -0.1123
  426TIP3    H222770   3.809   5.302   4.712 -0.0851 -0.4408 -0.3419
  427TIP3   OH222771   1.897   2.882   2.840  0.2369  0.1624 -0.4438
  427TIP3    H122772   1.807   2.914   2.846  0.3107  0.3142 -0.1396
  427TIP3    H222773   1.930   2.886   2.930  0.1059 -1.1714 -0.3162
  428TIP3   OH222774   4.525   0.077   3.122 -0.3146  0.7982 -0.3302
  428TIP3    H122775   4.498  -0.002   3.170  1.4100  0.0915 -0.4317
  428TIP3    H222776   4.581   0.124   3.184  0.6738  0.6701 -1.1093
  429TIP3   OH222777   0.004   6.624   4.200 -0.5180 -0.2029  0.5451
  429TIP3    H122778   0.097   6.647   4.192 -0.8023  0.6675 -0.5546
  429TIP3    H222779  -0.012   6.622   4.294  0.9917 -2.0065  0.8151
  430TIP3   OH222780   5.352   4.354   2.746 -0.3959 -0.3826  0.5530
  430TIP3    H122781   5.367   4.445   2.723 -0.1753 -0.4954  0.2465
  430TIP3    H222782   5.270   4.332   2.701 -0.2031 -0.4694  0.2374
  431TIP3   OH222783   2.983   4.924   1.394 -0.3689 -0.0301 -0.1380
  431TIP3    H122784   2.995   4.831   1.416 -0.8542 -0.0472  0.0642
  431TIP3    H222785   3.067   4.950   1.356  0.6491  0.0805  2.0070
  432TIP3   OH222786   2.059   3.748   3.072  0.6509 -0.0022  0.5431
  432TIP3    H122787   2.149   3.721   3.055  0.8147  0.4698  0.6441
  432TIP3    H222788   2.053   3.836   3.035 -0.4544 -0.8918 -1.6257
  433TIP3   OH222789   3.434   1.124  13.035 -0.0196  0.9259  0.0752
  433TIP3    H122790   3.485   1.078  12.968 -0.1294  0.8886  0.0152
  433TIP3    H222791   3.343   1.107  13.011 -0.0857 -0.5757  1.2280
  434TIP3   OH222792   1.780   5.291  16.200  0.3857  0.4228 -0.0631
  434TIP3    H122793   1.794   5.197  16.213 -1.6962  0.0891  0.0632
  434TIP3    H222794   1.789   5.303  16.105 -0.7172 -0.1825 -0.2593
  435TIP3   OH222795   2.042   4.729   1.423  0.2235 -0.1712 -0.5609
  435TIP3    H122796   2.131   4.696   1.440  0.6109  0.9350 -0.3517
  435TIP3    H222797   2.055   4.805   1.367 -0.6037 -0.0525 -0.6039
  436TIP3   OH222798   6.115   0.993  15.165  0.0189 -0.0164  0.3986
  436TIP3    H122799   6.058   1.018  15.093  2.2616  1.8683 -0.8419
  436TIP3    H222800   6.064   1.013  15.244 -1.1974  1.1954 -0.6441
  437TIP3   OH222801   3.150   0.765   1.138  0.0129 -0.2610  0.4313
  437TIP3    H122802   3.198   0.771   1.221 -0.2996 -1.4318  0.7085
  437TIP3    H222803   3.082   0.832   1.145  1.2732  1.0957  0.2334
  438TIP3   OH222804   0.156   3.881  10.766 -0.1138  0.2342 -0.2757
  438TIP3    H122805   0.177   3.790  10.744 -0.9304  0.0305 -0.2414
  438TIP3    H222806   0.114   3.915  10.687 -0.4118  0.3831 -0.0502
  439TIP3   OH222807   1.190   0.024  15.523  0.1171 -0.4244 -0.3690
  439TIP3    H122808   1.147   0.053  15.443  2.2717  0.1260 -1.4202
  439TIP3    H222809   1.279   0.000  15.495  0.7403 -0.8218  1.7563
  440TIP3   OH222810   3.134   3.332   2.639 -0.2662 -0.3112  0.5295
  440TIP3    H122811   3.183   3.277   2.701  1.9725  1.0853  0.1250
  440TIP3    H222812   3.173   3.419   2.650 -1.7294  0.5564 -0.8989
  441TIP3   OH222813   3.833   4.312   3.418 -0.3728  0.0137  0.6736
  441TIP3    H122814   3.869   4.257   3.487  0.2598 -1.5402 -0.8423
  441TIP3    H222815   3.898   4.381   3.405  0.6494 -1.0530  0.0142
  442TIP3   OH222816   3.179   0.960   5.979 -0.2011 -0.0707 -0.4841
  442TIP3    H122817   3.144   1.023   6.042 -0.8642  0.4932 -1.3705
  442TIP3    H222818   3.266   0.993   5.957 -0.6785  0.7571 -1.2015
  443TIP3   OH222819   3.854   5.140  16.411  0.1015 -0.1704 -0.9640
  443TIP3    H122820   3.810   5.202  16.469  2.3307  1.4495 -0.8801
  443TIP3    H222821   3.896   5.078  16.470 -1.5216 -1.4163 -1.0368
  444TIP3   OH222822   5.423   0.038  16.853 -0.2763  0.1868  0.1588
  444TIP3    H122823   5.491   0.087  16.805 -1.6351  2.3236  0.2947
  444TIP3    H222824   5.418   0.081  16.938 -3.0237  1.3119 -0.4769
  445TIP3   OH222825   1.954   1.500  12.472 -0.1809 -0.2709  0.0244
  445TIP3    H122826   1.941   1.572  12.411  0.7147 -0.1218 -0.0143
  445TIP3    H222827   1.965   1.542  12.557 -1.5936 -0.4887  0.3364
  446TIP3   OH222828   6.167   2.615   6.214 -0.1334  0.0496  0.1181
  446TIP3    H122829   6.169   2.702   6.253 -0.6660  0.8269 -1.4804
  446TIP3    H222830   6.228   2.563   6.266  1.2271  1.7416  0.2970
  447TIP3   OH222831   0.521   4.818  14.508  0.1081 -0.3331 -0.7751
  447TIP3    H122832   0.557   4.731  14.489  1.4363  0.1068 -0.3940
  447TIP3    H222833   0.593   4.865  14.551 -0.7385  0.8047 -0.5468
  448TIP3   OH222834   2.221   5.333  15.204  0.0244 -0.3646 -0.1843
  448TIP3    H122835   2.231   5.382  15.286 -0.5053 -1.5126  0.5997
  448TIP3    H222836   2.247   5.244  15.227 -1.8324 -1.1002 -0.7774
  449TIP3   OH222837   0.210   0.111   2.999  0.5322  0.2642  0.1317
  449TIP3    H122838   0.271   0.154   3.058  0.1772 -1.1093  1.5756
  449TIP3    H222839   0.132   0.095   3.052 -0.6409  0.8740 -1.3220
  450TIP3   OH222840   1.537   1.113   5.438  0.0441 -0.3125  0.5966
  450TIP3    H122841   1.631   1.100   5.424  0.1134 -0.0589  0.8134
  450TIP3    H222842   1.527   1.208   5.444  0.0077 -0.3813  2.1335
  451TIP3   OH222843   3.573   4.750   2.396 -0.0153 -0.1247 -0.0530
  451TIP3    H122844   3.485   4.759   2.432  1.0301 -1.2092  3.1011
  451TIP3    H222845   3.580   4.659   2.369  0.2204 -0.1124 -0.0439
  452TIP3   OH222846   0.088   0.704   0.568 -0.5657 -0.2229  0.1347
  452TIP3    H122847   0.055   0.655   0.494 -2.2517  0.3732  0.4517
  452TIP3    H222848   0.110   0.638   0.633 -0.0086 -0.6939 -0.5307
  453TIP3   OH222849   3.525   0.527   1.878  0.0257  0.1733 -0.3193
  453TIP3    H122850   3.471   0.596   1.839  0.5646  0.9945  0.3513
  453TIP3    H222851   3.462   0.463   1.910 -0.5492  0.8385 -0.0774
  454TIP3   OH222852   3.509   1.684   4.193 -0.1775 -0.1972 -0.2256
  454TIP3    H122853   3.567   1.609   4.201 -1.8143 -1.8325 -2.6571
  454TIP3    H222854   3.565   1.759   4.214  3.0541 -1.5768 -2.9956
  455TIP3   OH222855   4.663   3.105  13.944 -0.0140 -0.3763 -0.3953
  455TIP3    H122856   4.720   3.101  13.867  0.7380  0.1006  0.1128
  455TIP3    H222857   4.713   3.158  14.006 -1.4294  0.8745 -0.2791
  456TIP3   OH222858   0.157   2.531   0.384  0.1734 -0.0540 -0.4230
  456TIP3    H122859   0.072   2.496   0.412  0.4121  0.2117  0.7221
  456TIP3    H222860   0.176   2.487   0.302 -1.4803  0.5361 -1.1758
  457TIP3   OH222861   3.796   0.540  11.983  0.1053  0.6272 -0.0843
  457TIP3    H122862   3.728   0.492  12.030  1.0695 -0.6819  0.0303
  457TIP3    H222863   3.824   0.480  11.913  0.1632  1.7043 -1.0158
  458TIP3   OH222864   5.183   6.802  15.571 -0.0359 -0.1063  0.1162
  458TIP3    H122865   5.116   6.870  15.578  1.0042  0.9861 -0.2653
  458TIP3    H222866   5.162   6.756  15.490 -0.5381 -0.0056  0.1879
  459TIP3   OH222867   1.985   6.458   0.418 -0.5060 -0.2222  0.1347
  459TIP3    H122868   2.039   6.533   0.393 -1.4142  0.2351 -0.5132
  459TIP3    H222869   1.945   6.484   0.501 -1.0841  0.1687 -0.2555
  460TIP3   OH222870   6.646   4.173   1.341  0.0915  0.0539 -0.7731
  460TIP3    H122871   6.563   4.182   1.387  0.5061  1.5436 -0.2539
  460TIP3    H222872   6.635   4.095   1.286 -1.4544 -0.0617 -0.3461
  461TIP3   OH222873   2.831   0.753  11.794  0.3608  0.3184 -0.2769
  461TIP3    H122874   2.786   0.818  11.740 -0.3423  2.4523  2.6333
  461TIP3    H222875   2.761   0.710  11.843  1.0990  0.2615  0.7725
  462TIP3   OH222876   4.906   3.611   5.285  0.2258  0.5394  0.1919
  462TIP3    H122877   4.985   3.633   5.235 -1.1305  1.3762 -1.7047
  462TIP3    H222878   4.933   3.537   5.340  2.2806  0.7113 -0.4777
  463TIP3   OH222879   6.372   4.086   1.368 -0.4764 -0.0325 -0.4666
  463TIP3    H122880   6.295   4.140   1.388 -0.1346  0.8429 -1.4466
  463TIP3    H222881   6.364   4.068   1.274 -0.7625 -2.0038 -0.1066
  464TIP3   OH222882   5.458   6.081   6.365  0.0433  0.1676 -0.0469
  464TIP3    H122883   5.491   6.006   6.315  0.3937  0.4445 -0.2454
  464TIP3    H222884   5.535   6.138   6.375  0.0213  0.0142  1.0055
  465TIP3   OH222885   2.092   1.917  12.240 -0.3830  0.1266 -0.0347
  465TIP3    H122886   2.034   1.855  12.286 -0.3706 -0.4732 -0.7956
  465TIP3    H222887   2.153   1.861  12.192 -2.0849  0.5667 -2.9917
  466TIP3   OH222888   6.230   4.878  14.417  0.8521 -1.1356  0.3552
  466TIP3    H122889   6.235   4.807  14.481  0.0421 -1.1533  0.4075
  466TIP3    H222890   6.142   4.913  14.427  0.8715 -0.8473 -0.4413
  467TIP3   OH222891   2.784   0.537   2.779 -0.3757 -0.0742 -0.1183
  467TIP3    H122892   2.861   0.589   2.800 -1.6219  1.1189  1.7885
  467TIP3    H222893   2.789   0.523   2.684  1.7739  0.5708 -0.1432
  468TIP3   OH222894   1.793   5.841  10.874 -0.1996 -1.0624  0.3934
  468TIP3    H122895   1.766   5.773  10.812  0.1360 -0.3849 -0.5249
  468TIP3    H222896   1.776   5.924  10.828  0.3207 -0.5476  1.0917
  469TIP3   OH222897   1.804   0.931   1.322 -0.3679  0.3791  0.0218
  469TIP3    H122898   1.786   0.962   1.233  1.4248  0.7836 -0.2479
  469TIP3    H222899   1.755   0.991   1.379 -2.8976 -0.8977 -0.6760
  470TIP3   OH222900   2.744   0.709  13.510  0.1682 -0.6050  0.1781
  470TIP3    H122901   2.710   0.626  13.543  1.9425 -1.1591  0.7524
  470TIP3    H222902   2.666   0.760  13.487 -0.9812 -2.1281  0.5209
  471TIP3   OH222903   4.698   5.297   0.387  0.0441  0.1549  0.1196
  471TIP3    H122904   4.706   5.236   0.460  2.7475  1.1175  0.7550
  471TIP3    H222905   4.731   5.380   0.422 -0.5671  1.1664 -1.6004
  472TIP3   OH222906   2.275   6.503   4.037 -0.6688 -0.0088 -0.1973
  472TIP3    H122907   2.227   6.424   4.013 -0.1767 -1.1973  2.4360
  472TIP3    H222908   2.258   6.514   4.131  1.0713  1.7490 -0.0294
  473TIP3   OH222909   1.865   6.634  10.770 -0.0176  0.4753 -0.1406
  473TIP3    H122910   1.822   6.711  10.807 -3.1543 -0.8588 -0.6773
  473TIP3    H222911   1.870   6.572  10.843  0.8823  0.5287 -0.1409
  474TIP3   OH222912   3.369   0.071  15.709  0.5115 -0.3738 -0.1057
  474TIP3    H122913   3.378  -0.024  15.697  0.5383 -0.3144 -0.5708
  474TIP3    H222914   3.359   0.105  15.621 -0.3333 -0.0224  0.1136
  475TIP3   OH222915   4.931   6.303  16.117  0.9389  0.5337 -0.3381
  475TIP3    H122916   4.934   6.397  16.129 -0.7178  0.6336 -0.4610
  475TIP3    H222917   4.926   6.267  16.205  0.2909  0.6420 -0.3255
  476TIP3   OH222918   3.173   4.699  11.322 -0.2098 -0.3101 -0.1632
  476TIP3    H122919   3.109   4.725  11.388 -2.0499  0.2925 -2.0583
  476TIP3    H222920   3.144   4.613  11.293  0.2566 -0.3358 -0.5685
  477TIP3   OH222921   2.082   1.817   4.932  0.5672 -0.3215 -0.1116
  477TIP3    H122922   2.077   1.868   5.013  0.2990 -0.9740  0.2933
  477TIP3    H222923   1.998   1.770   4.929  1.2196 -1.5389  0.0736
  478TIP3   OH222924   5.395   1.526  16.382  0.1063  0.3259 -0.4045
  478TIP3    H122925   5.381   1.432  16.394  2.8827  0.0830  2.0121
  478TIP3    H222926   5.348   1.567  16.455 -0.8114  0.8394 -1.2578
  479TIP3   OH222927   6.165   3.816   0.307  0.4969  0.0128 -0.3826
  479TIP3    H122928   6.249   3.856   0.288  1.3912 -0.6720  1.8293
  479TIP3    H222929   6.174   3.725   0.278 -0.2681  0.4249 -2.0599
  480TIP3   OH222930   3.654   2.617  12.334  0.2679  0.2190  0.8171
  480TIP3    H122931   3.578   2.587  12.284 -0.2785 -0.1604  1.8441
  480TIP3    H222932   3.625   2.617  12.425  1.6945 -0.5983  1.3132
  481TIP3   OH222933   1.071   3.137  16.124 -0.1169  0.1065 -0.5211
  481TIP3    H122934   0.986   3.098  16.144 -0.4416  0.2937 -1.4870
  481TIP3    H222935   1.131   3.062  16.120 -0.2746 -0.0479 -0.0436
  482TIP3   OH222936   2.075   5.230  12.981 -0.5008 -0.5463  0.0510
  482TIP3    H122937   1.980   5.245  12.975 -0.5522 -1.2894 -1.3747
  482TIP3    H222938   2.113   5.301  12.930 -0.2190  0.1045  1.1150
  483TIP3   OH222939   1.530   1.609   4.418 -0.2098  0.2084  0.0963
  483TIP3    H122940   1.536   1.675   4.349  1.5567  1.6767  1.5187
  483TIP3    H222941   1.584   1.645   4.489  0.1970 -2.4295  1.2366
  484TIP3   OH222942   2.327   1.311  14.987 -0.0225  0.3915 -0.2693
  484TIP3    H122943   2.337   1.354  15.072  0.2324  0.2436 -0.2232
  484TIP3    H222944   2.412   1.269  14.972  0.0265  0.6592 -0.7307
  485TIP3   OH222945   4.234   0.046  15.146 -0.4597  0.1261  0.6562
  485TIP3    H122946   4.150   0.004  15.167 -1.2558  1.6999  0.7377
  485TIP3    H222947   4.274  -0.011  15.081 -1.9279 -0.2704  0.0733
  486TIP3   OH222948   3.228   5.535  13.940 -0.4270  0.2042 -0.2684
  486TIP3    H122949   3.223   5.607  14.003  1.2021 -1.3126  1.7295
  486TIP3    H222950   3.148   5.484  13.955 -0.5185  0.3914 -0.1210
  487TIP3   OH222951   0.281   3.775  11.241 -0.3225 -0.1106 -0.2175
  487TIP3    H122952   0.302   3.682  11.236  0.8048  0.1951 -2.3231
  487TIP3    H222953   0.362   3.819  11.217 -1.5972  1.3166 -2.1676
  488TIP3   OH222954   2.588   3.634  11.284 -0.4747  0.3226  0.1523
  488TIP3    H122955   2.616   3.716  11.323 -0.8213  0.3489  0.3550
  488TIP3    H222956   2.593   3.570  11.355  0.1007  0.0974 -0.0860
  489TIP3   OH222957   2.884   2.931   4.954  0.1148  0.6529  0.1078
  489TIP3    H122958   2.954   2.995   4.952  1.4476 -0.6866  1.5214
  489TIP3    H222959   2.891   2.884   4.871  1.3150  0.1304  0.4899
  490TIP3   OH222960   1.736   4.854   6.568  0.0421 -0.4285 -0.2820
  490TIP3    H122961   1.774   4.905   6.497 -0.2800 -1.6558 -1.3730
  490TIP3    H222962   1.777   4.768   6.561 -0.6499 -0.8394  0.4672
  491TIP3   OH222963   5.966   4.597   0.189 -0.3336 -0.4198  0.0611
  491TIP3    H122964   6.005   4.532   0.130  1.1347  0.2952  0.1875
  491TIP3    H222965   5.972   4.680   0.142  0.5513  0.1046  1.0464
  492TIP3   OH222966   4.671   2.628   1.594  0.5978  0.1774  0.6151
  492TIP3    H122967   4.707   2.716   1.600  2.2500 -0.3907 -0.2870
  492TIP3    H222968   4.732   2.573   1.644 -0.3293 -0.4909  1.0466
  493TIP3   OH222969   6.420   0.945  14.139 -0.6649 -0.2075 -0.2871
  493TIP3    H122970   6.408   0.874  14.202 -2.2204 -0.9621 -1.3521
  493TIP3    H222971   6.347   1.005  14.156  1.0194  1.5592  1.0568
  494TIP3   OH222972   3.775   4.350   0.116  0.1500 -0.0302  0.6916
  494TIP3    H122973   3.741   4.411   0.051 -1.0675 -1.6249 -0.2464
  494TIP3    H222974   3.732   4.375   0.197 -0.7843  0.0174  0.1954
  495TIP3   OH222975   4.323   3.728  11.362  0.2269  0.0948  0.0607
  495TIP3    H122976   4.326   3.789  11.436  0.5255  1.1214 -0.7745
  495TIP3    H222977   4.264   3.658  11.391  0.4833  0.3847  1.3302
  496TIP3   OH222978   6.084   0.667   0.302  0.1731  0.4113  0.4249
  496TIP3    H122979   6.096   0.703   0.214  1.7028  1.2528  0.9324
  496TIP3    H222980   6.170   0.675   0.343 -0.4960 -0.0024  1.9923
  497TIP3   OH222981   5.461   1.426  15.586 -0.0562 -0.0875  0.0238
  497TIP3    H122982   5.382   1.478  15.569  0.3039 -0.0707 -1.8111
  497TIP3    H222983   5.461   1.359  15.517  1.6547  0.0851 -0.1816
  498TIP3   OH222984   1.582   1.771   5.439  0.4370  1.0275  0.3144
  498TIP3    H122985   1.531   1.847   5.414  0.0942  0.1722 -1.7827
  498TIP3    H222986   1.618   1.738   5.357 -0.2653 -1.6537  0.9812
  499TIP3   OH222987   0.011   6.403  16.720 -0.0998 -0.2157 -0.1592
  499TIP3    H122988   0.052   6.319  16.743  0.4525  0.4023  1.2329
  499TIP3    H222989   0.036   6.462  16.791 -0.1627  1.2432 -1.3025
  500TIP3   OH222990   4.140   0.322  11.303  0.0500 -0.1531  0.6522
  500TIP3    H122991   4.136   0.417  11.300 -0.7358 -0.1840  0.5814
  500TIP3    H222992   4.127   0.301  11.396  0.0156 -0.2007  0.6365
  501TIP3   OH222993   0.840   0.280   3.371 -0.1564 -0.1551  0.2291
  501TIP3    H122994   0.917   0.296   3.318  0.6057  0.6168  1.5031
  501TIP3    H222995   0.766   0.302   3.314  0.4085 -2.7483 -1.6477
  502TIP3   OH222996   2.254   1.218   0.805 -0.5455 -0.4237 -0.3326
  502TIP3    H122997   2.297   1.303   0.793  1.4170 -1.5156 -1.3654
  502TIP3    H222998   2.213   1.225   0.891  0.7917  1.0702  0.2383
  503TIP3   OH222999   0.591   3.556   0.153  0.6429 -0.2217 -0.0534
  503TIP3    H123000   0.555   3.467   0.152  1.7501 -0.6802 -0.6255
  503TIP3    H223001   0.652   3.555   0.227  0.6779  0.0558 -0.0795
  504TIP3   OH223002   0.343   4.908  13.331  0.0216 -0.1824 -0.6026
  504TIP3    H123003   0.354   4.994  13.372  1.4115 -1.2241  1.3727
  504TIP3    H223004   0.258   4.913  13.288 -1.2879  1.2724  1.9113
  505TIP3   OH223005   2.537   0.262  11.938 -0.1527 -0.3706 -0.6092
  505TIP3    H123006   2.551   0.234  11.848  2.2748  3.1222 -1.4926
  505TIP3    H223007   2.599   0.210  11.989  0.3727 -0.5029 -1.3632
  506TIP3   OH223008   0.971   5.811   0.527  0.0879 -0.0373 -0.3597
  506TIP3    H123009   1.062   5.824   0.498 -0.3145  1.2205 -1.1493
  506TIP3    H223010   0.979   5.772   0.614  1.3857 -0.1255 -0.4987
  507TIP3   OH223011   2.055   1.046   5.120 -0.1181  0.5519 -0.3843
  507TIP3    H123012   1.990   1.025   5.054  0.9023 -1.8316 -0.7579
  507TIP3    H223013   2.115   0.971   5.119  0.7972  1.1465  2.1824
  508TIP3   OH223014   6.671   5.510  13.315 -0.0380  0.4457 -0.5025
  508TIP3    H123015   6.651   5.539  13.226 -1.3054 -0.5553 -0.5672
  508TIP3    H223016   6.690   5.591  13.363  0.6603  0.9974 -1.6580
  509TIP3   OH223017   0.319   6.690   3.203 -0.1623  0.0523 -1.0083
  509TIP3    H123018   0.226   6.704   3.223 -0.6423 -1.5762 -1.9208
  509TIP3    H223019   0.326   6.703   3.109  0.5811  0.3933 -0.9094
  510TIP3   OH223020   6.714   1.882  12.037 -0.5205  0.2092  0.2788
  510TIP3    H123021   6.694   1.788  12.035 -0.7135  0.2440  0.5397
  510TIP3    H223022   6.752   1.900  11.951 -2.6138  0.3401 -0.6876
  511TIP3   OH223023   0.082   3.906   4.937 -0.1275 -0.1577  0.2433
  511TIP3    H123024   0.033   3.908   4.854 -1.3601  0.1851  0.9643
  511TIP3    H223025   0.157   3.964   4.921  0.4290 -1.1877 -1.0875
  512TIP3   OH223026   6.537   0.964   1.833 -0.0074  0.1373  0.0514
  512TIP3    H123027   6.541   1.025   1.759  0.4853  0.4475  0.3308
  512TIP3    H223028   6.619   0.979   1.881 -0.1221 -0.3750  0.4123
  513TIP3   OH223029   4.994   5.211  16.150 -0.1534 -0.6455 -0.5015
  513TIP3    H123030   4.908   5.251  16.165 -1.3083 -3.0073 -0.3575
  513TIP3    H223031   5.017   5.171  16.235  1.7791  1.0832 -0.1333
  514TIP3   OH223032   2.498   0.933  11.011  0.0808 -0.4350  0.1193
  514TIP3    H123033   2.541   0.894  11.087  0.7857  0.7636  0.3624
  514TIP3    H223034   2.541   0.893  10.935 -1.7285 -2.8774  0.2479
  515TIP3   OH223035   3.470   6.548  11.738  0.1189  0.6696 -0.0500
  515TIP3    H123036   3.386   6.534  11.695  0.3526  0.0847 -0.3315
  515TIP3    H223037   3.455   6.521  11.829  0.9800 -3.3002 -0.9036
  516TIP3   OH223038   4.609   4.028   4.604  0.1928  0.1980  1.1471
  516TIP3    H123039   4.598   3.955   4.666 -1.2251 -0.8301 -0.2498
  516TIP3    H223040   4.699   4.059   4.620  0.2132 -0.6738  3.0002
  517TIP3   OH223041   6.342   2.497  14.955  0.5810 -0.4894 -0.1178
  517TIP3    H123042   6.413   2.504  15.020 -0.3862 -1.2393  1.0764
  517TIP3    H223043   6.369   2.555  14.884  1.1869  1.2330  1.4311
  518TIP3   OH223044   5.183   4.754  11.509 -0.2811  0.8120  0.6306
  518TIP3    H123045   5.196   4.659  11.520 -0.1621  0.5264 -1.5872
  518TIP3    H223046   5.162   4.765  11.417  0.8358  3.0834  0.5790
  519TIP3   OH223047   5.728   4.811  12.970  0.4473  0.2096  0.2718
  519TIP3    H123048   5.820   4.837  12.961  1.1437 -2.4432 -0.9410
  519TIP3    H223049   5.725   4.758  13.049 -0.0891  0.3528  0.3579
  520TIP3   OH223050   3.258   5.365  14.997 -0.5179 -0.2997 -0.3884
  520TIP3    H123051   3.185   5.387  15.055  0.1590  0.6208  0.1336
  520TIP3    H223052   3.264   5.269  15.000 -1.2891 -0.3363  0.0569
  521TIP3   OH223053   1.814   5.032  13.980 -0.0019  0.1368 -0.4208
  521TIP3    H123054   1.901   5.067  13.963 -0.1203 -0.0955 -1.5715
  521TIP3    H223055   1.797   5.054  14.072  1.3915 -0.1120 -0.0781
  522TIP3   OH223056   1.030   5.131  13.540 -0.0435  0.4487  0.8345
  522TIP3    H123057   1.118   5.110  13.572  0.5650  3.2274  1.1675
  522TIP3    H223058   1.037   5.219  13.504 -1.4262 -1.2050 -4.3590
  523TIP3   OH223059   4.735   6.751   3.928  0.0662 -0.2509 -0.0824
  523TIP3    H123060   4.699   6.663   3.940 -2.8929  0.6998 -1.0464
  523TIP3    H223061   4.777   6.772   4.011 -0.0907 -2.1625  0.5177
  524TIP3   OH223062   3.299   5.781  11.096 -0.3332  0.0620 -0.7166
  524TIP3    H123063   3.345   5.718  11.152 -0.8190  0.5471  0.2513
  524TIP3    H223064   3.330   5.761  11.008  0.1689 -0.9681 -0.3285
  525TIP3   OH223065   1.140   2.361   2.081  0.2338 -0.0641  0.5561
  525TIP3    H123066   1.108   2.441   2.039 -1.3545 -0.9394  0.0487
  525TIP3    H223067   1.163   2.388   2.170 -1.7581  0.6619  0.8859
  526TIP3   OH223068   2.689   1.111  15.633 -0.2328 -0.1458  0.5515
  526TIP3    H123069   2.603   1.068  15.636 -0.5277  0.1559 -2.0289
  526TIP3    H223070   2.669   1.203  15.617  0.5698 -0.0513  0.0396
  527TIP3   OH223071   3.785   3.714   2.939  0.6554  0.1693  0.7601
  527TIP3    H123072   3.819   3.706   3.028 -2.5060 -2.6940  1.9731
  527TIP3    H223073   3.695   3.743   2.950 -0.1927 -1.3420 -1.3285
  528TIP3   OH223074   0.907   3.378  15.368  0.0197  0.1699 -0.2670
  528TIP3    H123075   0.822   3.418  15.386  0.7089  1.7915 -0.4136
  528TIP3    H223076   0.950   3.440  15.308  0.5928 -1.5147 -1.6811
  529TIP3   OH223077   6.072   3.764   1.330 -0.1689  0.3868  0.6387
  529TIP3    H123078   6.143   3.781   1.392 -0.2601  0.8525  0.6213
  529TIP3    H223079   5.996   3.746   1.384  0.1029 -0.7639  0.6597
  530TIP3   OH223080   1.046   3.818  16.028 -0.6092 -0.5707 -0.8416
  530TIP3    H123081   1.070   3.758  16.100 -1.0482  0.3033  0.0638
  530TIP3    H223082   0.950   3.819  16.030 -0.6447  1.7291  0.5672
  531TIP3   OH223083   6.039   0.319  14.726 -0.5544 -0.0185  0.3925
  531TIP3    H123084   6.107   0.314  14.659 -1.8565 -0.3666 -0.9550
  531TIP3    H223085   6.033   0.230  14.760 -0.9875 -0.2118 -0.1749
  532TIP3   OH223086   6.161   1.006  12.295 -0.1062 -0.6158  0.3176
  532TIP3    H123087   6.183   1.084  12.346  2.6489 -0.6554 -0.6360
  532TIP3    H223088   6.216   0.937  12.332 -0.3723 -1.3889 -0.6915
  533TIP3   OH223089   3.860   1.145  15.780  0.2845  0.5689 -0.4845
  533TIP3    H123090   3.864   1.192  15.863 -0.8973 -1.2107  0.6348
  533TIP3    H223091   3.951   1.135  15.753  0.7239  0.6077  0.9380
  534TIP3   OH223092   2.090   1.277   4.799 -0.1385  0.5569  0.8868
  534TIP3    H123093   1.999   1.275   4.831  0.2365  0.8128  2.0218
  534TIP3    H223094   2.142   1.295   4.877  0.8636  0.8309  0.1725
  535TIP3   OH223095   4.291   0.626   3.527  0.2761  0.5540  0.1315
  535TIP3    H123096   4.342   0.666   3.597 -0.6241  0.8081  0.6544
  535TIP3    H223097   4.346   0.635   3.449  0.9290  1.0164  0.6355
  536TIP3   OH223098   5.589   3.383  16.979  0.6209  0.1415  0.3576
  536TIP3    H123099   5.645   3.400  17.055 -2.1970  1.1742  2.3866
  536TIP3    H223100   5.513   3.338  17.015  0.6698 -2.5265 -2.4931
  537TIP3   OH223101   2.186   5.772   1.175 -0.1437 -0.2573 -0.2662
  537TIP3    H123102   2.165   5.865   1.168  1.2960  0.1256  0.2794
  537TIP3    H223103   2.271   5.763   1.133 -0.8857 -1.5918 -1.5604
  538TIP3   OH223104   4.530   5.542   4.841 -0.4637 -0.0888 -0.4097
  538TIP3    H123105   4.579   5.460   4.843 -0.5143 -0.1566  2.0365
  538TIP3    H223106   4.594   5.609   4.818  0.1848 -0.5142  0.1170
  539TIP3   OH223107   3.100   6.436   0.222 -0.3286 -0.5384  0.1700
  539TIP3    H123108   3.079   6.463   0.312  1.1716  0.1332  0.3380
  539TIP3    H223109   3.193   6.415   0.224  0.6015  2.6435 -1.9242
  540TIP3   OH223110   2.740   2.707   3.144 -0.2275 -0.3678  0.3286
  540TIP3    H123111   2.814   2.738   3.092 -0.9637  0.6041 -0.1714
  540TIP3    H223112   2.741   2.612   3.134  0.0520 -0.2502 -0.9070
  541TIP3   OH223113   3.135   3.350   0.872 -0.0197 -0.1627 -0.3431
  541TIP3    H123114   3.135   3.305   0.957 -0.5338 -0.9158 -0.7306
  541TIP3    H223115   3.162   3.439   0.892 -1.3227  0.0081  0.7965
  542TIP3   OH223116   3.461   5.094  12.502 -0.2503 -0.4971 -0.0758
  542TIP3    H123117   3.438   5.001  12.492  0.2361 -0.4990 -1.4790
  542TIP3    H223118   3.542   5.104  12.452 -0.4270  0.7261 -0.1525
  543TIP3   OH223119   0.648   4.569  14.514 -0.6405  0.7049  0.6950
  543TIP3    H123120   0.663   4.475  14.525 -1.6902  0.4846  0.4031
  543TIP3    H223121   0.725   4.601  14.468 -0.8741 -0.2750 -0.4190
  544TIP3   OH223122   1.722   4.507  13.571  0.3671 -0.2974 -0.5536
  544TIP3    H123123   1.696   4.479  13.483  0.8392  0.0725 -0.8172
  544TIP3    H223124   1.704   4.601  13.573  0.2417 -0.3268 -0.2124
  545TIP3   OH223125   2.075   2.840   1.249  0.1144 -0.3762 -0.0316
  545TIP3    H123126   2.040   2.909   1.304 -1.0855 -1.2125  0.3054
  545TIP3    H223127   2.141   2.883   1.194 -0.6591  1.0273  0.1095
  546TIP3   OH223128   5.576   6.448   0.300 -0.3569 -0.2479  0.4603
  546TIP3    H123129   5.546   6.438   0.210 -1.5795  0.4855  0.7605
  546TIP3    H223130   5.499   6.477   0.348  0.5235  0.3905  1.5487
  547TIP3   OH223131   5.794   4.545   5.832 -0.0222  0.2995 -0.0827
  547TIP3    H123132   5.777   4.536   5.738  1.0077  1.2249 -0.3845
  547TIP3    H223133   5.845   4.467   5.855 -0.9083 -0.2985 -0.1211
  548TIP3   OH223134   4.667   2.527  14.331  0.2805 -0.0373  0.3928
  548TIP3    H123135   4.671   2.449  14.386 -0.4777 -0.2713  0.1333
  548TIP3    H223136   4.725   2.591  14.374  1.0281 -0.7861  0.5242
  549TIP3   OH223137   4.309   3.804  15.046 -0.4174 -0.5144  0.1299
  549TIP3    H123138   4.294   3.838  15.134 -0.3451  0.1502 -0.1073
  549TIP3    H223139   4.224   3.772  15.017 -0.1660 -2.0083  0.9559
  550TIP3   OH223140   1.863   4.023   4.748 -0.0298 -0.4670 -0.9120
  550TIP3    H123141   1.813   4.051   4.671  1.5791  0.8170 -1.5649
  550TIP3    H223142   1.920   3.954   4.716 -2.2130 -2.9028  0.1364
  551TIP3   OH223143   4.407   4.362   2.958  0.2335  0.0010  0.0237
  551TIP3    H123144   4.471   4.305   3.000  1.0028 -0.1795 -1.3652
  551TIP3    H223145   4.333   4.304   2.939  0.1486 -0.0578  0.5027
  552TIP3   OH223146   3.242   5.727  13.421  0.2423 -0.5473 -0.6455
  552TIP3    H123147   3.236   5.724  13.516  0.9096 -0.4847 -0.5973
  552TIP3    H223148   3.227   5.637  13.393 -0.0834 -0.5414 -0.4923
  553TIP3   OH223149   0.606   0.141   3.289 -0.2336  0.4831  0.4632
  553TIP3    H123150   0.539   0.079   3.315  0.4504  0.4005  2.1568
  553TIP3    H223151   0.681   0.087   3.266  1.0091  0.5730  3.7409
  554TIP3   OH223152   4.031   5.702  13.309 -0.2945 -0.5230  0.1834
  554TIP3    H123153   4.030   5.663  13.222 -0.7554 -0.7834  0.3014
  554TIP3    H223154   4.108   5.664  13.352 -1.0997 -1.8083  0.5219
  555TIP3   OH223155   2.970   0.346   0.125  0.3279 -0.3126 -0.4559
  555TIP3    H123156   3.024   0.425   0.124 -0.5248  0.3696  1.9147
  555TIP3    H223157   2.905   0.361   0.056 -0.8626  1.8995  1.0161
  556TIP3   OH223158   4.919   3.281   1.837  0.0348  0.6134  0.7585
  556TIP3    H123159   4.963   3.300   1.920  1.6331 -1.8069  0.5596
  556TIP3    H223160   4.968   3.330   1.772 -0.6952  1.8368  1.0906
  557TIP3   OH223161   0.469   3.010  16.647  0.0591  0.3090  0.7100
  557TIP3    H123162   0.563   3.032  16.650 -0.3048  2.1396 -0.0112
  557TIP3    H223163   0.458   2.966  16.563  0.2866 -0.0389  0.8597
  558TIP3   OH223164   1.263   5.203  11.949 -0.8276  0.5691  0.4146
  558TIP3    H123165   1.212   5.125  11.971  0.5068 -0.3436  0.3200
  558TIP3    H223166   1.275   5.198  11.854 -0.6398  0.8395  0.4223
  559TIP3   OH223167   1.530   5.153  12.194  0.4788  0.0630 -0.0613
  559TIP3    H123168   1.604   5.160  12.134  0.7648 -0.0829  0.2674
  559TIP3    H223169   1.539   5.066  12.233  1.4187  0.8473  1.6229
  560TIP3   OH223170   6.396   0.180   2.618  0.4874 -0.5777 -0.5387
  560TIP3    H123171   6.466   0.115   2.608  2.2081  1.1992 -0.7229
  560TIP3    H223172   6.436   0.263   2.590 -1.3800  0.7092  0.3856
  561TIP3   OH223173   3.619   2.263  12.110 -0.4251 -0.6770 -0.2299
  561TIP3    H123174   3.589   2.351  12.091 -1.7417 -0.8569  0.8859
  561TIP3    H223175   3.708   2.274  12.143 -0.8962  0.3283  0.7481
  562TIP3   OH223176   1.503   2.428  15.335 -0.3367  0.2141 -0.5429
  562TIP3    H123177   1.564   2.396  15.268 -1.0754  1.1240 -1.6906
  562TIP3    H223178   1.428   2.370  15.329 -0.7646  0.8075 -1.1262
  563TIP3   OH223179   1.048   2.390   3.331  0.2608 -0.6542  0.0241
  563TIP3    H123180   0.956   2.411   3.349  0.4314 -1.1836  1.7551
  563TIP3    H223181   1.045   2.307   3.283 -0.2229  0.6276 -2.2614
  564TIP3   OH223182   6.057   6.710   0.625 -0.4067 -0.0554 -0.5684
  564TIP3    H123183   5.994   6.732   0.694 -0.3219  1.0766 -0.8232
  564TIP3    H223184   6.042   6.617   0.608 -0.4151 -0.3745  0.9865
  565TIP3   OH223185   3.170   2.707  16.443 -0.3307  0.2386 -0.1068
  565TIP3    H123186   3.182   2.651  16.366  1.3681  0.6908 -0.2178
  565TIP3    H223187   3.079   2.693  16.469 -0.7831 -0.3522 -1.8523
  566TIP3   OH223188   1.962   6.112   3.200 -0.1556  0.3697 -0.1836
  566TIP3    H123189   2.003   6.029   3.223 -0.3509  0.4262  0.4016
  566TIP3    H223190   1.881   6.087   3.156  0.3834  0.2583 -1.1337
  567TIP3   OH223191   4.525   6.441  11.922  0.5941 -0.1919 -0.4668
  567TIP3    H123192   4.505   6.528  11.888 -1.6887  0.0930  1.3420
  567TIP3    H223193   4.452   6.386  11.893 -0.2784 -0.4382  1.9186
  568TIP3   OH223194   2.017   1.169  15.043  0.5019 -0.2760 -0.2569
  568TIP3    H123195   1.971   1.198  15.122 -0.3237  1.5046 -1.3300
  568TIP3    H223196   2.086   1.111  15.076 -1.3760 -1.6627  1.5471
  569TIP3   OH223197   5.979   4.687  15.612  0.2041  0.0050 -0.1211
  569TIP3    H123198   5.989   4.778  15.641 -1.4053  0.5054 -0.9506
  569TIP3    H223199   5.895   4.660  15.649  0.2246 -0.8233 -0.6690
  570TIP3   OH223200   5.281   3.772   4.674 -0.8072  0.1469 -0.5720
  570TIP3    H123201   5.288   3.676   4.678  0.3861  0.2180 -0.4854
  570TIP3    H223202   5.205   3.788   4.619 -0.2645 -0.8653 -1.6847
  571TIP3   OH223203   3.239   6.714   0.775 -0.4523  0.1132 -0.1919
  571TIP3    H123204   3.270   6.624   0.784 -1.4435 -0.1050  1.3827
  571TIP3    H223205   3.231   6.727   0.680  1.6913 -0.7308 -0.5275
  572TIP3   OH223206   6.341   3.722   0.688 -0.5567 -0.2065 -0.0666
  572TIP3    H123207   6.415   3.663   0.705  0.2407  0.3924 -1.2808
  572TIP3    H223208   6.377   3.790   0.632 -1.7569  0.7879  0.3173
  573TIP3   OH223209   1.664   2.882  15.656  0.3366  0.6833  0.1352
  573TIP3    H123210   1.653   2.968  15.695  1.0365  0.4684  0.8379
  573TIP3    H223211   1.576   2.845  15.653 -0.1346  1.8382 -1.1941
  574TIP3   OH223212   0.998   1.912  13.616 -0.0509 -0.5742  0.2699
  574TIP3    H123213   0.967   1.884  13.702 -2.0933 -0.4657 -0.3601
  574TIP3    H223214   0.947   1.991  13.597 -0.2145 -1.0275 -1.3432
  575TIP3   OH223215   1.441   3.244   0.075 -0.1880  0.2892  0.0596
  575TIP3    H123216   1.409   3.295   0.001 -2.0823  0.4232  0.9118
  575TIP3    H223217   1.455   3.309   0.145 -3.9040 -0.2977  1.5955
  576TIP3   OH223218   2.566   0.972  16.040  0.0832  0.3176  0.1534
  576TIP3    H123219   2.653   0.954  16.076 -0.2378 -0.5650  0.4968
  576TIP3    H223220   2.581   1.041  15.975  0.9720  0.4810  0.5222
  577TIP3   OH223221   5.699   4.735  15.163 -0.0919  0.0208  0.2539
  577TIP3    H123222   5.676   4.670  15.098 -0.3804 -0.5227  0.8869
  577TIP3    H223223   5.749   4.687  15.229 -0.1745  0.4643  0.6501
  578TIP3   OH223224   3.483   6.131   4.920  0.4689 -0.8332  0.0266
  578TIP3    H123225   3.486   6.040   4.950 -0.5815 -1.5709 -1.8866
  578TIP3    H223226   3.529   6.130   4.836  1.9022  0.7974  0.7251
  579TIP3   OH223227   1.112   5.619   2.356  0.1991  0.0884  0.1023
  579TIP3    H123228   1.123   5.714   2.356  1.3759 -0.0037  1.6749
  579TIP3    H223229   1.173   5.587   2.423 -1.3069 -1.6325  0.7515
  580TIP3   OH223230   5.137   2.560  13.776 -0.6896  0.3195 -0.2130
  580TIP3    H123231   5.193   2.482  13.782 -0.1014  0.5765 -1.9487
  580TIP3    H223232   5.062   2.532  13.724  0.9277  1.5738 -3.5013
  581TIP3   OH223233   4.493   6.106  13.326  0.0948 -0.1027 -0.0386
  581TIP3    H123234   4.465   6.117  13.236  0.1818  1.1807  0.0688
  581TIP3    H223235   4.412   6.107  13.377  0.0240 -1.1099 -0.1103
  582TIP3   OH223236   4.152   6.198  15.157 -0.1532 -0.2374 -0.1348
  582TIP3    H123237   4.127   6.213  15.066 -2.5219  0.5812  0.5675
  582TIP3    H223238   4.238   6.240  15.166 -1.0462  2.0636 -1.3731
  583TIP3   OH223239   2.172   6.740   3.624 -0.0565 -0.4781 -0.0362
  583TIP3    H123240   2.214   6.663   3.586 -0.4213 -0.6760 -0.0427
  583TIP3    H223241   2.082   6.736   3.593 -0.3431 -0.6078  0.7848
  584TIP3   OH223242   4.304   5.693   2.712 -0.2783  0.3561 -0.2660
  584TIP3    H123243   4.320   5.607   2.673 -0.1253  1.2686 -2.3494
  584TIP3    H223244   4.358   5.694   2.791 -0.3033 -1.4570 -0.1897
  585TIP3   OH223245   4.188   2.297  13.606 -0.0925  0.4375  0.0191
  585TIP3    H123246   4.166   2.226  13.545  0.8084  0.0271  0.1553
  585TIP3    H223247   4.104   2.334  13.631 -0.5313 -0.0513 -0.6910
  586TIP3   OH223248   2.086   3.044  12.433 -0.3311  0.4221 -0.3621
  586TIP3    H123249   2.132   2.978  12.381  0.4121  0.6665 -0.0352
  586TIP3    H223250   2.047   2.995  12.506  2.5917  0.6154  1.5053
  587TIP3   OH223251   1.014   5.266  16.790 -0.3142  0.2304  0.1568
  587TIP3    H123252   1.032   5.320  16.714 -0.6801  4.2007  2.6129
  587TIP3    H223253   1.100   5.242  16.824 -0.1453 -2.0842 -1.6754
  588TIP3   OH223254   3.904   6.215  15.825  0.3563  0.3612 -0.1552
  588TIP3    H123255   3.880   6.293  15.774 -1.3362 -0.9041 -1.3967
  588TIP3    H223256   3.997   6.202  15.806 -0.1014  0.2142 -2.6153
  589TIP3   OH223257   6.094   1.594  16.951  0.8864 -0.0546 -0.6057
  589TIP3    H123258   6.132   1.614  16.865 -2.9066 -0.9871 -2.7023
  589TIP3    H223259   6.084   1.680  16.993  1.5685  0.5463 -1.6187
  590TIP3   OH223260   1.235   5.563   0.546  0.6515  0.5305 -0.0931
  590TIP3    H123261   1.191   5.479   0.558  0.8888  0.3954 -0.1540
  590TIP3    H223262   1.215   5.612   0.626  0.5989  0.3764 -0.0103
  591TIP3   OH223263   5.452   1.806  15.397 -0.4239 -0.3203  0.6135
  591TIP3    H123264   5.514   1.738  15.369 -0.1179  0.0859  0.3069
  591TIP3    H223265   5.473   1.882  15.343 -1.4681 -0.3069  0.2237
  592TIP3   OH223266   5.468   6.529  10.656  0.1110 -0.7737 -0.2510
  592TIP3    H123267   5.471   6.433  10.658  0.8290 -0.7812 -0.9849
  592TIP3    H223268   5.410   6.550  10.583  1.6080 -0.6765 -1.4610
  593TIP3   OH223269   1.709   0.685   5.015  0.8411 -0.2126  0.0314
  593TIP3    H123270   1.673   0.735   4.943 -1.0623  0.4809  1.3945
  593TIP3    H223271   1.792   0.728   5.035  1.3139 -0.3159 -1.5770
  594TIP3   OH223272   3.760   1.043   2.535 -0.1567 -0.3296  0.4237
  594TIP3    H123273   3.854   1.027   2.526 -0.1847 -0.5268  0.4632
  594TIP3    H223274   3.729   0.971   2.591 -0.1774  0.2206  1.1364
  595TIP3   OH223275   2.601   0.588  13.249 -0.5018 -0.5676 -0.1310
  595TIP3    H123276   2.591   0.505  13.202 -1.6090 -0.3825 -0.2356
  595TIP3    H223277   2.691   0.585  13.283  0.1931 -0.9009 -1.8641
  596TIP3   OH223278   4.322   0.510  15.017  0.1472  0.0750  0.3281
  596TIP3    H123279   4.297   0.437  15.075 -0.5593  0.5111  0.5943
  596TIP3    H223280   4.402   0.481  14.974  0.1367 -0.6631  0.7934
  597TIP3   OH223281   1.328   1.857  10.496  0.2679 -0.8636 -0.4898
  597TIP3    H123282   1.332   1.952  10.491  1.2256 -0.9240 -1.0247
  597TIP3    H223283   1.268   1.831  10.426 -1.4210 -0.5696  0.7871
  598TIP3   OH223284   1.080   2.055   5.163  0.1282 -0.2160 -0.3132
  598TIP3    H123285   1.042   2.096   5.241  1.7986 -0.7614  0.8481
  598TIP3    H223286   1.137   2.122   5.126  0.8979 -0.5987  0.1356
  599TIP3   OH223287   5.330   2.863  14.659 -0.0883  0.1370 -0.4665
  599TIP3    H123288   5.328   2.919  14.582 -1.1364  0.6420 -0.0957
  599TIP3    H223289   5.312   2.922  14.733  2.8412  0.0366  0.4559
  600TIP3   OH223290   0.859   6.074  11.223 -0.7138 -0.3014 -0.0328
  600TIP3    H123291   0.933   6.102  11.169  1.2488 -0.5441  2.3680
  600TIP3    H223292   0.785   6.127  11.192  0.5696  0.3935 -2.1046
  601TIP3   OH223293   6.150   5.020   4.744  0.3491  0.0483  0.5912
  601TIP3    H123294   6.234   5.007   4.700  0.0530  1.1653 -0.3713
  601TIP3    H223295   6.114   4.932   4.755  0.4799 -0.3091 -1.3653
  602TIP3   OH223296   6.608   2.664   2.261  0.3239 -0.6345 -0.4052
  602TIP3    H123297   6.618   2.755   2.289  0.8524 -1.1588  1.2453
  602TIP3    H223298   6.527   2.635   2.303  1.1778 -1.4735  0.7233
  603TIP3   OH223299   2.233   2.443  14.732  1.0756  0.2879  0.0590
  603TIP3    H123300   2.221   2.351  14.757  0.5432  0.6953  1.3931
  603TIP3    H223301   2.232   2.442  14.636 -0.2514 -0.9411  0.0383
  604TIP3   OH223302   1.246   5.186  11.684 -0.0024 -0.0562  0.6157
  604TIP3    H123303   1.275   5.246  11.616  0.8046 -0.4064  0.6379
  604TIP3    H223304   1.269   5.099  11.651 -3.5769 -0.6860 -0.6698
  605TIP3   OH223305   0.638   6.010   6.144  0.2954 -0.5541 -0.0288
  605TIP3    H123306   0.547   6.002   6.115  0.5971 -0.9286 -0.9228
  605TIP3    H223307   0.683   6.054   6.071  0.8893 -0.6540  0.2695
  606TIP3   OH223308   2.433   5.336  16.836  0.1052 -0.5018 -0.1587
  606TIP3    H123309   2.461   5.309  16.748 -1.2486  1.6989 -1.3402
  606TIP3    H223310   2.360   5.279  16.857 -0.3239 -0.2739 -0.9953
  607TIP3   OH223311   5.827   0.657  16.935 -0.2517  0.3447 -0.1907
  607TIP3    H123312   5.855   0.653  16.843  0.4698 -1.0499  0.0528
  607TIP3    H223313   5.739   0.621  16.935 -0.6944  1.4019 -0.4790
  608TIP3   OH223314   3.327   3.281  16.114  0.0811  0.3778 -0.9461
  608TIP3    H123315   3.243   3.326  16.104 -0.0151  1.0603  2.0315
  608TIP3    H223316   3.306   3.188  16.108 -0.5483  0.5652 -1.9620
  609TIP3   OH223317   1.844   5.959   4.251 -0.3238  0.3139  0.1602
  609TIP3    H123318   1.800   6.027   4.303  0.2839  1.5412 -0.8610
  609TIP3    H223319   1.838   5.992   4.161  1.1416 -0.3540 -0.2003
  610TIP3   OH223320   4.684   4.977  14.729  0.0218 -0.0778  0.2291
  610TIP3    H123321   4.687   4.994  14.823 -0.0837 -3.0705  0.8605
  610TIP3    H223322   4.593   4.994  14.704  0.2368  1.5352  0.4411
  611TIP3   OH223323   3.145   1.904  16.692  0.0706  0.2748 -0.1541
  611TIP3    H123324   3.077   1.972  16.693  1.6751  2.0183 -1.5339
  611TIP3    H223325   3.217   1.942  16.742  0.6303 -0.8712 -0.0584
  612TIP3   OH223326   6.712   5.888  16.705  0.2737 -0.3700 -0.1626
  612TIP3    H123327   6.690   5.819  16.642  1.6222 -1.1121  0.1468
  612TIP3    H223328   6.637   5.947  16.703 -0.3265 -1.1396 -1.4159
  613TIP3   OH223329   3.520   4.051  16.827  0.3922  0.4392 -0.4706
  613TIP3    H123330   3.532   4.123  16.765  0.6791 -0.5213 -1.5686
  613TIP3    H223331   3.531   3.972  16.774  1.8636 -0.4282  1.0342
  614TIP3   OH223332   0.550   3.926  17.039 -0.6388  0.6601 -0.4286
  614TIP3    H123333   0.532   3.833  17.032  0.1432  0.3946  0.7883
  614TIP3    H223334   0.469   3.969  17.011 -2.2856 -0.4201  2.2749
  615TIP3   OH223335   2.386   1.992  12.557  0.6427 -0.1660 -0.2508
  615TIP3    H123336   2.376   2.074  12.509  0.4091  0.6059  1.0729
  615TIP3    H223337   2.429   2.017  12.639  1.9462 -1.5984 -0.4535
  616TIP3   OH223338   3.966   5.076   3.901 -0.2308 -0.0926 -0.2281
  616TIP3    H123339   3.985   4.985   3.881 -1.2156 -0.1551 -0.9322
  616TIP3    H223340   4.014   5.126   3.835  1.1082 -0.0219  0.7406
  617TIP3   OH223341   1.228   3.215   4.189 -0.2015  0.4388  0.2781
  617TIP3    H123342   1.305   3.162   4.170 -1.9599 -1.7866 -1.2470
  617TIP3    H223343   1.203   3.190   4.278 -0.8476 -1.2398 -0.3219
  618TIP3   OH223344   3.293   6.438   4.087  0.1498  0.2560  0.7034
  618TIP3    H123345   3.376   6.468   4.124  0.5942  0.8447 -0.6967
  618TIP3    H223346   3.226   6.467   4.150  1.0058 -0.5542  2.0300
  619TIP3   OH223347   4.491   4.445  13.984  0.3290  0.2156  0.1752
  619TIP3    H123348   4.540   4.463  14.064 -0.6139  1.1803  0.5585
  619TIP3    H223349   4.545   4.483  13.914  0.5304  0.5173  0.4949
  620TIP3   OH223350   4.953   3.123  11.806  0.3312 -1.2481  0.0938
  620TIP3    H123351   4.862   3.101  11.829  0.0048  0.1035  0.1793
  620TIP3    H223352   4.946   3.207  11.760  1.5519 -1.1284  0.1015
  621TIP3   OH223353   4.357   3.454  11.269 -0.3758 -0.0991 -0.5865
  621TIP3    H123354   4.361   3.549  11.285  0.3154 -0.4219  1.4490
  621TIP3    H223355   4.400   3.442  11.185 -1.3961  1.4898 -1.3744
  622TIP3   OH223356   0.830   4.420  11.497  0.5591 -0.4368  0.2096
  622TIP3    H123357   0.920   4.411  11.467  0.6775  0.0076  0.4216
  622TIP3    H223358   0.777   4.387  11.424  0.9238 -2.0950  0.6709
  623TIP3   OH223359   3.311   6.092   5.355 -0.1708  0.0780  0.2037
  623TIP3    H123360   3.402   6.063   5.351  0.3453  1.6787 -0.5055
  623TIP3    H223361   3.316   6.187   5.353 -1.8646  0.2039  0.4242
  624TIP3   OH223362   4.469   1.000   4.611  0.2654  0.6644  1.0825
  624TIP3    H123363   4.451   0.942   4.685 -3.7023  0.0858 -0.1242
  624TIP3    H223364   4.455   1.089   4.646  0.3243  0.5321  1.4492
  625TIP3   OH223365   5.607   6.627  13.745  0.7528 -0.2288  0.5511
  625TIP3    H123366   5.574   6.556  13.800  1.5855 -0.6280  0.5468
  625TIP3    H223367   5.666   6.677  13.802  1.4782 -0.5371  0.0886
  626TIP3   OH223368   2.274   1.598  10.826  0.3583  0.1797 -0.3514
  626TIP3    H123369   2.313   1.572  10.743  1.1927 -0.2873  0.1709
  626TIP3    H223370   2.181   1.609  10.807  0.2316 -1.6764 -0.9531
  627TIP3   OH223371   1.433   3.538   1.041 -0.4233 -0.0011 -0.6053
  627TIP3    H123372   1.489   3.545   1.119 -0.1017  0.4886 -0.8743
  627TIP3    H223373   1.486   3.491   0.977 -0.3859  0.2983 -0.7976
  628TIP3   OH223374   2.718   0.185   6.262  0.1678  0.4956  0.0125
  628TIP3    H123375   2.784   0.250   6.286  1.1598 -0.3826 -0.2446
  628TIP3    H223376   2.769   0.109   6.234 -0.9580  0.1252 -1.1187
  629TIP3   OH223377   5.143   1.734   3.092 -0.3355  0.0659 -0.5272
  629TIP3    H123378   5.161   1.775   3.007 -0.5219  0.1461 -0.5264
  629TIP3    H223379   5.210   1.769   3.150 -0.3667  0.2091 -0.5777
  630TIP3   OH223380   4.356   3.533  15.335  0.1220  0.4680  0.8574
  630TIP3    H123381   4.402   3.582  15.404  0.6097  1.2335  0.0152
  630TIP3    H223382   4.275   3.582  15.322  0.9401  1.5380 -0.5010
  631TIP3   OH223383   0.876   3.785   0.658  0.3166  0.1499 -0.0332
  631TIP3    H123384   0.849   3.693   0.651 -0.4885  0.4390 -1.0880
  631TIP3    H223385   0.838   3.814   0.741 -0.3630 -0.1870 -0.2141
  632TIP3   OH223386   3.378   4.364   0.081  0.0460 -0.1750 -0.3843
  632TIP3    H123387   3.371   4.388  -0.011 -0.1336  0.3096 -0.2498
  632TIP3    H223388   3.309   4.299   0.095  0.7242 -1.0075 -0.8228
  633TIP3   OH223389   3.039   4.615   5.235  0.1386 -0.2484  0.3255
  633TIP3    H123390   2.965   4.566   5.198 -0.2422 -0.9680  1.9578
  633TIP3    H223391   3.065   4.675   5.165 -1.9155 -0.0504 -0.3352
  634TIP3   OH223392   4.609   0.044   2.845 -0.4752  0.0465 -0.2834
  634TIP3    H123393   4.644   0.126   2.811  0.6953 -0.8428 -1.3073
  634TIP3    H223394   4.576   0.066   2.932  1.2077  1.2927  0.0825
  635TIP3   OH223395   1.650   5.024  16.830  0.3316  0.2630 -0.2175
  635TIP3    H123396   1.633   5.013  16.924  2.1500  0.2695  0.1471
  635TIP3    H223397   1.603   4.951  16.789 -0.0274 -0.0675  0.7391
  636TIP3   OH223398   4.061   2.072   2.357 -0.0867 -0.2927 -0.2491
  636TIP3    H123399   4.004   1.995   2.349 -2.9162  1.5387  0.4786
  636TIP3    H223400   4.018   2.139   2.304 -0.0794  1.9338  2.3564
  637TIP3   OH223401   2.656   0.416   0.118 -0.3650 -0.0610 -0.7638
  637TIP3    H123402   2.580   0.361   0.104  0.6813 -1.7917 -0.0058
  637TIP3    H223403   2.709   0.406   0.039 -0.3682  0.2128 -0.8029
  638TIP3   OH223404   6.458   0.297   5.128  0.1046 -0.4241  0.2701
  638TIP3    H123405   6.538   0.279   5.079  1.1614  2.1422  0.8749
  638TIP3    H223406   6.467   0.388   5.157 -2.5947 -0.3516  1.2297
  639TIP3   OH223407   1.455   2.497  13.914 -0.1950  0.0004  0.0292
  639TIP3    H123408   1.485   2.469  13.828  0.1458 -1.3320  0.5480
  639TIP3    H223409   1.527   2.472  13.973 -0.5985  0.5076  0.7545
  640TIP3   OH223410   5.368   0.589  15.917 -0.1474  0.0186 -0.2883
  640TIP3    H123411   5.387   0.599  15.824 -0.6435  1.8324 -0.2259
  640TIP3    H223412   5.413   0.508  15.942  0.3122 -0.2914 -2.0029
  641TIP3   OH223413   3.477   6.494   2.843  0.3680  0.3683 -0.2033
  641TIP3    H123414   3.504   6.581   2.812 -0.8943  1.1502  0.7845
  641TIP3    H223415   3.527   6.433   2.789 -0.2674  1.6597 -2.3940
  642TIP3   OH223416   6.304   6.592  13.116  0.4864  0.5842  0.3989
  642TIP3    H123417   6.353   6.633  13.044  1.1838  0.1328  0.6096
  642TIP3    H223418   6.273   6.509  13.080 -2.1609  1.8393 -0.5079
  643TIP3   OH223419   1.791   2.943   0.517 -0.2437  0.7050  0.3786
  643TIP3    H123420   1.706   2.962   0.557  1.0340  3.8574  1.9321
  643TIP3    H223421   1.769   2.910   0.430 -3.0795  2.6512  0.1963
  644TIP3   OH223422   1.296   5.209   4.446  0.1061  0.0395 -0.4026
  644TIP3    H123423   1.284   5.261   4.367 -1.3061 -0.0326 -0.2593
  644TIP3    H223424   1.372   5.248   4.489  1.2081 -0.2426 -2.0266
  645TIP3   OH223425   3.239   3.303  17.056 -0.2446 -0.0077 -0.1381
  645TIP3    H123426   3.294   3.307  17.134 -1.6330  0.0231  0.8820
  645TIP3    H223427   3.300   3.286  16.985  1.0024 -0.6624  1.0315
  646TIP3   OH223428   6.134   4.817   6.142 -0.0495 -0.1621  0.2911
  646TIP3    H123429   6.066   4.811   6.075  1.0903  1.1375 -1.0400
  646TIP3    H223430   6.110   4.749   6.206 -0.0527 -2.9196 -2.4120
  647TIP3   OH223431   4.160   2.040   1.844  0.4639  0.3231 -0.3816
  647TIP3    H123432   4.211   2.055   1.764  1.5427 -1.3118 -0.0585
  647TIP3    H223433   4.104   1.966   1.824  0.4943  0.1166  0.2495
  648TIP3   OH223434   4.557   0.175   5.340 -0.3195  0.1530  0.7175
  648TIP3    H123435   4.483   0.235   5.337  0.6988  1.4967  1.3317
  648TIP3    H223436   4.518   0.090   5.361 -1.8749  0.4090 -0.9004
  649TIP3   OH223437   6.240   6.680  12.058  0.6271 -0.2955  0.2942
  649TIP3    H123438   6.243   6.764  12.104  2.4016 -0.3851  0.3876
  649TIP3    H223439   6.305   6.688  11.988 -2.4410  0.1100 -2.7811
  650TIP3   OH223440   0.980   1.559   6.014 -0.1672 -0.4345 -0.7441
  650TIP3    H123441   1.070   1.554   6.046  0.3609 -3.6937 -2.3033
  650TIP3    H223442   0.927   1.525   6.086 -0.2684  1.6639  0.2484
  651TIP3   OH223443   6.651   2.591  12.122  0.3403 -0.5983 -0.6104
  651TIP3    H123444   6.633   2.665  12.181 -0.9156 -0.3660 -1.2444
  651TIP3    H223445   6.636   2.514  12.176 -2.2738 -0.4150 -0.9341
  652TIP3   OH223446   5.569   3.081   0.339 -0.1175 -0.0352  0.1132
  652TIP3    H123447   5.491   3.061   0.287  0.4759  0.5823 -1.0437
  652TIP3    H223448   5.612   2.996   0.351  0.0254 -0.1086 -0.8869
  653TIP3   OH223449   6.581   2.730  16.677 -0.5785  0.0914  0.4463
  653TIP3    H123450   6.503   2.764  16.722  0.0827 -0.2115  1.8950
  653TIP3    H223451   6.549   2.702  16.591 -1.2663  3.7445 -0.6493
  654TIP3   OH223452   0.346   4.607   0.054 -0.3669 -0.2456 -0.4003
  654TIP3    H123453   0.324   4.516   0.075  0.6754 -0.4140  0.0151
  654TIP3    H223454   0.322   4.656   0.133  0.3208 -0.3668 -0.1093
  655TIP3   OH223455   3.518   3.620  14.020  0.1550  0.2198  0.1470
  655TIP3    H123456   3.440   3.630  13.965 -0.3424  1.4583  1.0318
  655TIP3    H223457   3.523   3.526  14.038  0.4398 -0.2623 -2.1126
  656TIP3   OH223458   0.564   5.229   4.381 -0.2733 -0.3246 -0.1489
  656TIP3    H123459   0.605   5.310   4.409 -1.8015  0.2532  0.5183
  656TIP3    H223460   0.503   5.255   4.312  1.2124 -1.3165 -1.9279
  657TIP3   OH223461   1.057   6.529   2.419  0.6155 -0.1610 -0.4239
  657TIP3    H123462   1.110   6.596   2.462  0.8330 -0.5552 -0.0651
  657TIP3    H223463   1.071   6.450   2.473 -0.6639 -0.1660 -0.0803
  658TIP3   OH223464   5.627   1.146   5.668  0.0423 -0.2006 -0.9361
  658TIP3    H123465   5.630   1.093   5.588  1.0997  2.2106 -2.6230
  658TIP3    H223466   5.540   1.186   5.667 -0.1922 -0.6797 -0.4791
  659TIP3   OH223467   1.206   1.462   1.942 -0.7468  0.5166  0.2558
  659TIP3    H123468   1.195   1.478   2.036  0.8491 -0.7405  0.7141
  659TIP3    H223469   1.201   1.367   1.933 -0.5256  0.5973 -0.8767
  660TIP3   OH223470   1.533   5.005  14.212 -0.5220 -0.3958 -0.4466
  660TIP3    H123471   1.511   5.079  14.269  1.0208 -1.5115  1.7349
  660TIP3    H223472   1.512   5.036  14.124 -3.0085  1.4337  0.6630
  661TIP3   OH223473   1.253   3.945   2.362 -0.1169 -0.3516 -0.2903
  661TIP3    H123474   1.245   4.011   2.430 -0.3046 -0.7642  0.0887
  661TIP3    H223475   1.335   3.900   2.381 -0.7164 -1.2080  0.3258
  662TIP3   OH223476   4.055   5.848   4.913 -0.2610 -1.2076 -0.3597
  662TIP3    H123477   4.134   5.795   4.902  0.3128 -0.4856  0.1913
  662TIP3    H223478   4.080   5.916   4.976 -1.9301 -2.1869  1.4612
  663TIP3   OH223479   2.543   6.080  15.108  0.2825  0.3604 -0.0688
  663TIP3    H123480   2.546   6.051  15.017  1.2832 -0.6037  0.2447
  663TIP3    H223481   2.570   6.172  15.105 -0.7362  0.6469 -0.8489
  664TIP3   OH223482   6.087   1.734   3.596 -0.0497  0.0217  0.0819
  664TIP3    H123483   6.110   1.815   3.643 -0.5431  0.9719 -1.2646
  664TIP3    H223484   6.169   1.706   3.556 -0.0341  0.2996 -0.0887
  665TIP3   OH223485   5.468   4.675   0.267 -0.5447 -1.0641  0.0526
  665TIP3    H123486   5.502   4.604   0.213 -0.6780  0.4297 -2.1106
  665TIP3    H223487   5.373   4.670   0.257 -0.4995  0.3688 -1.4886
  666TIP3   OH223488   6.145   1.433  14.778 -0.1150  0.4286  0.1261
  666TIP3    H123489   6.107   1.513  14.815  0.0640  0.3428  0.4963
  666TIP3    H223490   6.133   1.367  14.846 -1.8857 -0.3280 -0.8650
  667TIP3   OH223491   4.921   4.695  13.860  0.5095  0.1784  0.0380
  667TIP3    H123492   4.989   4.754  13.826  0.8061 -1.1407 -1.8140
  667TIP3    H223493   4.936   4.613  13.814 -0.5429 -1.0540  1.7770
  668TIP3   OH223494   3.078   3.866   6.092 -0.6246 -0.5644 -0.0609
  668TIP3    H123495   3.071   3.947   6.143 -1.4311  0.1856 -1.3241
  668TIP3    H223496   3.140   3.812   6.142 -0.2871  0.7058  0.9507
  669TIP3   OH223497   2.405   1.098   3.562 -0.4563 -0.3689 -0.0217
  669TIP3    H123498   2.468   1.094   3.490  0.4304  0.9317  0.6442
  669TIP3    H223499   2.329   1.050   3.530  0.0676 -0.1620 -1.6669
  670TIP3   OH223500   3.793   5.752  17.098  0.2881  0.1809 -0.1107
  670TIP3    H123501   3.737   5.697  17.043  0.4873  0.8643 -1.0219
  670TIP3    H223502   3.801   5.835  17.050  0.8033  0.6543  0.7532
  671TIP3   OH223503   2.364   2.971  17.050  0.0468 -0.3924 -0.4748
  671TIP3    H123504   2.294   3.025  17.014  0.5106  0.9090  0.4684
  671TIP3    H223505   2.321   2.918  17.117 -0.1244  0.1268 -0.1632
  672TIP3   OH223506   6.422   5.948   4.854 -0.4347 -0.1343 -0.4427
  672TIP3    H123507   6.375   5.968   4.773 -1.7830  1.2066  0.6147
  672TIP3    H223508   6.411   5.854   4.866 -0.4611 -0.3009 -1.6449
  673TIP3   OH223509   6.108   4.219  16.471  0.8260  0.1470  0.3361
  673TIP3    H123510   6.195   4.180  16.476  1.7363  1.9755 -0.3602
  673TIP3    H223511   6.086   4.240  16.562  1.2219 -0.0799  0.4829
  674TIP3   OH223512   3.428   3.022  15.294 -0.7408  0.1014  0.5213
  674TIP3    H123513   3.523   3.032  15.287 -0.7371  0.1262  0.5993
  674TIP3    H223514   3.402   2.978  15.213 -0.5909 -0.3953  0.7360
  675TIP3   OH223515   5.258   5.472   3.507 -0.3781 -0.3534 -0.2695
  675TIP3    H123516   5.250   5.560   3.472  1.2118 -0.4010 -0.8556
  675TIP3    H223517   5.319   5.428   3.448 -2.5893 -2.4879 -1.1078
  676TIP3   OH223518   1.574   4.791  12.265  0.1577 -0.2871 -0.0390
  676TIP3    H123519   1.538   4.765  12.350  0.5185 -3.1450 -0.6639
  676TIP3    H223520   1.663   4.822  12.285 -0.1836  0.2118  0.7416
  677TIP3   OH223521   0.165   3.857  16.856  0.0810 -0.5413 -0.1466
  677TIP3    H123522   0.175   3.945  16.819  1.7691 -0.0472  1.3190
  677TIP3    H223523   0.211   3.800  16.795 -0.7087 -0.3715 -0.9152
  678TIP3   OH223524   1.054   4.917   0.786  0.4639 -0.4609 -0.0517
  678TIP3    H123525   1.083   4.927   0.695 -1.2570  1.6819 -0.4624
  678TIP3    H223526   0.981   4.855   0.781 -0.6670  0.8435 -0.4500
  679TIP3   OH223527   6.647   0.442  14.726  0.2915 -0.1008  0.0387
  679TIP3    H123528   6.673   0.513  14.784 -1.5054 -0.3417  1.2150
  679TIP3    H223529   6.728   0.415  14.684  1.5369  0.6239  1.8420
  680TIP3   OH223530   0.048   3.867   3.700 -0.0767  0.0736  0.0423
  680TIP3    H123531   0.120   3.852   3.639 -0.1442 -2.2355  0.4174
  680TIP3    H223532   0.083   3.926   3.766  0.9084  0.3345 -0.7042
  681TIP3   OH223533   1.701   6.594  14.317 -0.0554 -0.7162  0.4713
  681TIP3    H123534   1.673   6.607  14.407  0.5833 -0.4123  0.6315
  681TIP3    H223535   1.621   6.572  14.269 -0.6261  0.4605  0.8490
  682TIP3   OH223536   0.316   0.025  15.860  0.7421 -0.1234 -0.3909
  682TIP3    H123537   0.390   0.070  15.820  1.7629 -0.8552  0.5912
  682TIP3    H223538   0.356  -0.034  15.925 -0.5779 -1.7901 -1.0070
  683TIP3   OH223539   5.744   5.147  11.675  0.1090 -0.5348 -0.7146
  683TIP3    H123540   5.707   5.070  11.632  1.2854 -0.6182 -1.6571
  683TIP3    H223541   5.797   5.189  11.607 -1.1323  1.5731 -0.4553
  684TIP3   OH223542   6.689   0.744   5.280 -0.1194 -0.2666 -0.1557
  684TIP3    H123543   6.763   0.762   5.221 -0.2255  0.4067 -0.0986
  684TIP3    H223544   6.703   0.803   5.354 -0.4159 -0.5413  0.1228
  685TIP3   OH223545   6.025   6.015  11.485 -0.0429  0.1271 -0.1337
  685TIP3    H123546   5.958   6.005  11.553  1.6628 -1.5463  1.4566
  685TIP3    H223547   5.990   5.969  11.409 -1.4312  0.8383  0.0590
  686TIP3   OH223548   6.382   4.765  12.641  0.0064  0.2745 -0.5452
  686TIP3    H123549   6.360   4.849  12.602 -0.7660  0.3104 -0.0613
  686TIP3    H223550   6.425   4.787  12.723 -3.9516  0.3634  1.7975
  687TIP3   OH223551   5.887   2.505  11.226 -0.5943  0.5417 -0.4809
  687TIP3    H123552   5.822   2.572  11.248  0.2322  0.7178  1.5629
  687TIP3    H223553   5.838   2.440  11.176 -1.5612  2.3267 -2.0052
  688TIP3   OH223554   5.383   6.237  16.037  0.2600  0.6875  0.1619
  688TIP3    H123555   5.444   6.299  15.998 -2.1782  1.1061 -3.5007
  688TIP3    H223556   5.307   6.290  16.062 -0.8020 -0.4544 -0.5454
  689TIP3   OH223557   3.615   3.428   2.472 -0.1713 -0.1802 -0.2165
  689TIP3    H123558   3.673   3.432   2.396  1.7664  0.7088  1.2009
  689TIP3    H223559   3.616   3.517   2.508 -1.1638 -0.5353  0.7605
  690TIP3   OH223560   0.057   3.042  11.575  0.3603  0.2217 -0.9296
  690TIP3    H123561   0.041   3.135  11.559 -0.0941 -0.1801 -3.0301
  690TIP3    H223562   0.106   3.040  11.658  2.3891  2.5134 -1.9566
  691TIP3   OH223563   5.240   1.742  14.738  0.0224  0.0641 -0.2417
  691TIP3    H123564   5.267   1.675  14.675  0.3929  0.0999 -0.1195
  691TIP3    H223565   5.321   1.777  14.773 -0.1792 -0.2025  0.5220
  692TIP3   OH223566   1.771   4.904  14.379  0.2938  0.3963 -0.3324
  692TIP3    H123567   1.821   4.859  14.311 -1.0078 -0.5878 -0.6770
  692TIP3    H223568   1.783   4.997  14.360  0.9019  0.1561 -1.1886
  693TIP3   OH223569   2.748   0.631  14.644 -0.1072 -1.4495 -0.1378
  693TIP3    H123570   2.680   0.583  14.596  0.8647 -0.2892 -2.9140
  693TIP3    H223571   2.794   0.680  14.576 -0.3204  2.5484  2.2950
  694TIP3   OH223572   5.905   6.250  14.527 -0.4451 -0.1899  0.1112
  694TIP3    H123573   5.827   6.272  14.577  0.3559  0.6235  1.0223
  694TIP3    H223574   5.962   6.327  14.534  2.0242 -2.0307  2.5545
  695TIP3   OH223575   1.491   4.712   4.487  0.1447 -0.1766  0.0781
  695TIP3    H123576   1.434   4.788   4.476 -0.5092 -0.2809  2.4075
  695TIP3    H223577   1.433   4.637   4.472  0.4231 -0.2603 -0.6301
  696TIP3   OH223578   6.034   3.466  15.258 -0.0124  0.4257 -0.4841
  696TIP3    H123579   5.940   3.454  15.249 -0.0884  1.3438 -1.0769
  696TIP3    H223580   6.047   3.560  15.248  0.9125  0.3756  0.1342
  697TIP3   OH223581   3.226   5.207  14.217 -0.4548  0.0761  0.1902
  697TIP3    H123582   3.165   5.255  14.161  0.7022 -0.6163 -1.7496
  697TIP3    H223583   3.308   5.206  14.168  1.2803  1.2612  2.8602
  698TIP3   OH223584   5.547   0.226  11.556  0.2201 -0.1821 -0.7599
  698TIP3    H123585   5.545   0.289  11.628  0.0112 -0.8858 -0.1432
  698TIP3    H223586   5.626   0.249  11.506  0.3584  0.3151 -0.3179
  699TIP3   OH223587   0.161   2.270   0.641 -0.3498  0.6315 -0.3920
  699TIP3    H123588   0.072   2.253   0.673  0.2148 -1.0090  0.4442
  699TIP3    H223589   0.161   2.363   0.620 -2.3587  0.6057 -0.7514
  700TIP3   OH223590   6.823   5.879  11.761 -0.5342  0.0876  0.1144
  700TIP3    H123591   6.798   5.806  11.703  0.6922 -0.3770  0.1374
  700TIP3    H223592   6.909   5.906  11.729  0.2612 -0.2998  1.8152
  701TIP3   OH223593   4.894   4.086  16.076 -0.2680 -0.2243 -0.1067
  701TIP3    H123594   4.873   4.120  16.163 -2.2133 -2.4943  0.3890
  701TIP3    H223595   4.954   4.151  16.039 -1.6741  2.3150  1.7741
  702TIP3   OH223596   2.242   3.383   3.475 -0.0551  0.3974  0.2547
  702TIP3    H123597   2.185   3.457   3.497  0.4830  0.3023  2.1076
  702TIP3    H223598   2.183   3.307   3.474 -0.2677  0.5600  0.3272
  703TIP3   OH223599   1.974   0.243  12.290  0.3037  0.3183 -0.5795
  703TIP3    H123600   1.929   0.326  12.305 -1.7294 -0.9800  1.1420
  703TIP3    H223601   1.957   0.223  12.199 -0.9610  0.8251 -0.4796
  704TIP3   OH223602   1.326   2.017   2.251  0.0605  0.3405 -0.7801
  704TIP3    H123603   1.409   2.064   2.264 -0.1151  0.2019  1.1069
  704TIP3    H223604   1.287   2.058   2.173  0.5498  2.4074 -0.0093
  705TIP3   OH223605   0.858   3.224   4.110  0.1892 -0.3291 -0.3116
  705TIP3    H123606   0.766   3.226   4.135  0.5983 -2.8819  1.8590
  705TIP3    H223607   0.861   3.166   4.033  0.0569 -0.9650  0.1545
  706TIP3   OH223608   2.447   2.148   2.533 -0.8527 -0.0373  0.1914
  706TIP3    H123609   2.429   2.198   2.612 -3.3346 -0.0678 -0.2850
  706TIP3    H223610   2.407   2.200   2.463 -1.6327 -1.6336 -0.5787
  707TIP3   OH223611   1.787   6.055   2.368  0.3244 -0.2799 -0.0324
  707TIP3    H123612   1.837   6.050   2.449  2.5606 -3.2320 -1.3930
  707TIP3    H223613   1.757   6.146   2.364  2.4827  0.7029  2.7172
  708TIP3   OH223614   2.981   4.803  11.100  0.3874  0.2851 -0.0546
  708TIP3    H123615   2.900   4.854  11.102  0.1206 -0.1595  0.7236
  708TIP3    H223616   2.957   4.723  11.054  0.5548  0.4214 -0.3865
  709TIP3   OH223617   4.210   6.332   3.847 -0.6572  0.3957  0.1117
  709TIP3    H123618   4.223   6.325   3.942 -1.1556  1.7904  0.3171
  709TIP3    H223619   4.296   6.357   3.813 -0.9528  2.0843  0.5038
  710TIP3   OH223620   1.422   3.421   5.937 -0.5508 -0.7843  0.2552
  710TIP3    H123621   1.438   3.450   6.027 -0.4749 -0.8827  0.2729
  710TIP3    H223622   1.412   3.503   5.888 -0.2415 -0.7257  0.2895
  711TIP3   OH223623   1.420   2.542  11.305  0.1022 -0.3872 -0.8128
  711TIP3    H123624   1.446   2.634  11.297  0.4559 -0.3639  0.3458
  711TIP3    H223625   1.452   2.500  11.226 -1.2065  0.7315 -1.9893
  712TIP3   OH223626   0.532   4.397  12.795 -0.1505 -0.2551  0.2223
  712TIP3    H123627   0.484   4.478  12.815 -1.8755 -1.6188  1.9217
  712TIP3    H223628   0.491   4.365  12.714 -2.1596 -1.3635  1.6164
  713TIP3   OH223629   0.889   1.556   5.161  0.8561  0.5903 -0.1680
  713TIP3    H123630   0.849   1.493   5.222  1.7087  0.9034  0.7470
  713TIP3    H223631   0.946   1.609   5.216 -0.7895  3.0361 -0.6846
  714TIP3   OH223632   5.855   1.509   0.046  0.3205  0.4268 -0.2343
  714TIP3    H123633   5.900   1.551  -0.027 -0.8899 -0.2173 -1.3949
  714TIP3    H223634   5.888   1.419   0.047 -0.0920  0.2710 -0.3675
  715TIP3   OH223635   2.405   4.827   5.499 -0.1661 -0.8826  0.4383
  715TIP3    H123636   2.309   4.828   5.501 -0.1537 -0.5467  1.1282
  715TIP3    H223637   2.428   4.736   5.518 -0.3551 -1.2778 -1.0674
  716TIP3   OH223638   6.108   0.712  15.486  0.5225  0.8130  0.3124
  716TIP3    H123639   6.143   0.801  15.488 -0.5392  1.3051 -1.2456
  716TIP3    H223640   6.090   0.691  15.578  1.6699  1.8132  0.7985
  717TIP3   OH223641   6.099   3.790   5.012  0.1836  0.3465 -0.2093
  717TIP3    H123642   6.091   3.744   4.929 -0.1584 -2.0418  1.0597
  717TIP3    H223643   6.193   3.790   5.031  0.0660 -1.4808  0.5880
  718TIP3   OH223644   0.941   5.007  16.757 -0.3527  0.4938 -0.1788
  718TIP3    H123645   0.848   5.007  16.781 -0.2660  0.3546  0.1717
  718TIP3    H223646   0.969   5.098  16.771 -0.1254  0.2632  0.9901
  719TIP3   OH223647   0.214   6.186  14.370  0.5094 -0.7407 -0.1145
  719TIP3    H123648   0.133   6.237  14.373 -0.1783 -1.8368  1.5163
  719TIP3    H223649   0.283   6.249  14.391 -0.3435 -0.4431  2.0401
  720TIP3   OH223650   5.989   5.827  16.162 -0.0608  0.1051 -0.1076
  720TIP3    H123651   6.050   5.855  16.094 -0.2185  0.9886  0.0990
  720TIP3    H223652   5.925   5.773  16.116  0.8669 -0.8207 -0.3255
  721TIP3   OH223653   3.855   3.263   4.491  0.2619 -0.1077  0.1285
  721TIP3    H123654   3.855   3.258   4.587 -1.5826  0.9077  0.2324
  721TIP3    H223655   3.768   3.296   4.469  0.7396 -0.0745 -1.9036
  722TIP3   OH223656   2.303   2.790   2.595  0.2264 -0.4346 -0.3189
  722TIP3    H123657   2.227   2.791   2.536  0.5138 -0.2023 -0.6921
  722TIP3    H223658   2.281   2.853   2.663  1.6033  2.5868 -2.4190
  723TIP3   OH223659   0.104   4.754  16.176 -0.2775  0.0997  0.5730
  723TIP3    H123660   0.008   4.745  16.176 -0.0981 -2.8503 -1.3126
  723TIP3    H223661   0.123   4.810  16.101 -0.4863 -0.0413  0.4127
  724TIP3   OH223662   1.289   1.020   1.155  0.1615 -0.0733 -0.7386
  724TIP3    H123663   1.194   1.015   1.151  0.1459  0.0678 -0.5188
  724TIP3    H223664   1.316   0.932   1.181 -0.0747  0.6258  2.2278
  725TIP3   OH223665   5.689   4.316  16.848 -0.3750 -0.1068 -0.1902
  725TIP3    H123666   5.695   4.308  16.752 -1.7506 -0.0635 -0.2958
  725TIP3    H223667   5.748   4.249  16.881 -0.2441 -0.4448 -1.0692
  726TIP3   OH223668   1.032   2.985  15.208  0.0785  0.2212  0.2674
  726TIP3    H123669   1.083   3.004  15.129 -0.1217 -1.9916 -0.4664
  726TIP3    H223670   1.079   2.913  15.250 -2.2488 -1.8736 -0.4026
  727TIP3   OH223671   5.581   2.748   3.579  0.6183  0.1856  0.3504
  727TIP3    H123672   5.635   2.683   3.624 -0.0566 -1.0876 -0.6155
  727TIP3    H223673   5.513   2.771   3.643  0.2194 -0.8937  0.3328
  728TIP3   OH223674   6.108   1.200  11.736  0.3094  0.9466  0.8237
  728TIP3    H123675   6.164   1.238  11.668  1.1618 -0.9286  0.3972
  728TIP3    H223676   6.019   1.225  11.711  0.6678  0.8919 -0.5890
  729TIP3   OH223677   6.758   2.331   3.370  0.2582  0.0967  0.4978
  729TIP3    H123678   6.742   2.252   3.318  1.4535  0.5330 -0.5913
  729TIP3    H223679   6.693   2.394   3.340  0.7642  0.2534 -0.2957
  730TIP3   OH223680   2.575   5.359  11.503  0.3690 -0.1055  0.5827
  730TIP3    H123681   2.634   5.331  11.574 -1.5806 -1.1958  1.8535
  730TIP3    H223682   2.498   5.303  11.512 -0.9702  1.3973 -0.8836
  731TIP3   OH223683   3.753   5.243  15.344 -0.1910  0.1842  0.0606
  731TIP3    H123684   3.820   5.286  15.397 -0.4116 -0.5619  0.9732
  731TIP3    H223685   3.801   5.183  15.287 -0.0719 -0.4220  0.7840
  732TIP3   OH223686   3.315   4.072  11.961 -0.2252  0.8174  0.5677
  732TIP3    H123687   3.356   4.104  11.882 -0.1637 -1.8362 -0.5883
  732TIP3    H223688   3.386   4.067  12.025  0.9819 -1.8395 -0.8193
  733TIP3   OH223689   2.427   2.201   3.416 -0.1953 -0.2673  0.1631
  733TIP3    H123690   2.496   2.224   3.479  0.4115  0.4771 -0.7384
  733TIP3    H223691   2.451   2.114   3.384 -0.7876 -0.8789  1.3030
  734TIP3   OH223692   2.875   2.815  15.164  0.7940  0.6205 -0.1775
  734TIP3    H123693   2.809   2.825  15.233 -0.0631  1.3768 -1.0843
  734TIP3    H223694   2.918   2.900  15.159 -0.9983  1.4764 -2.3884
  735TIP3   OH223695   1.224   5.601  15.503 -0.1308  0.4480  0.2550
  735TIP3    H123696   1.138   5.608  15.462  0.1326  1.9657 -0.1115
  735TIP3    H223697   1.212   5.536  15.573 -0.9684 -1.0355 -1.1964
  736TIP3   OH223698   1.856   2.772  15.192 -0.0067  0.7117  0.1296
  736TIP3    H123699   1.854   2.814  15.278 -0.6507  1.6331 -0.3257
  736TIP3    H223700   1.771   2.728  15.184  0.7542 -0.9832  0.7149
  737TIP3   OH223701   4.430   4.692  15.134 -0.6683 -0.3884 -0.2054
  737TIP3    H123702   4.498   4.627  15.152 -0.6009  0.5868  3.9908
  737TIP3    H223703   4.349   4.641  15.128 -0.2189 -1.1141 -0.2138
  738TIP3   OH223704   6.619   2.646   3.658 -0.2616  0.2567  0.0306
  738TIP3    H123705   6.657   2.719   3.707 -1.2750  0.9330 -0.1657
  738TIP3    H223706   6.656   2.653   3.571  1.0632 -0.5779  0.4930
  739TIP3   OH223707   6.645   2.146   1.015  0.3430 -0.2045  0.4083
  739TIP3    H123708   6.712   2.163   0.949  0.3025  0.8883  0.6220
  739TIP3    H223709   6.578   2.096   0.969  0.7302 -0.2425 -0.1308
  740TIP3   OH223710   4.583   0.363   3.442  0.2154  0.0523  0.1585
  740TIP3    H123711   4.497   0.323   3.423  0.9095 -0.6393 -1.8267
  740TIP3    H223712   4.586   0.440   3.385  1.5054 -0.8070 -0.9894
  741TIP3   OH223713   5.794   0.323   2.735 -0.1154 -0.1976  0.2793
  741TIP3    H123714   5.803   0.229   2.751  0.2511  0.0215  1.4371
  741TIP3    H223715   5.730   0.352   2.799  1.2330  0.6780  1.2826
  742TIP3   OH223716   4.376   0.700   1.157 -0.7929  0.4766 -0.3106
  742TIP3    H123717   4.350   0.752   1.081  0.1657 -0.1887 -1.1110
  742TIP3    H223718   4.428   0.629   1.121  3.2164  2.3206  1.1854
  743TIP3   OH223719   5.843   4.530  16.633  0.0244 -0.0492 -0.3651
  743TIP3    H123720   5.919   4.511  16.578  0.0133  1.0595 -0.7989
  743TIP3    H223721   5.777   4.466  16.605  0.5133 -0.4684 -0.5798
  744TIP3   OH223722   0.951   3.622   4.980 -0.2982  0.1992 -0.3009
  744TIP3    H123723   0.897   3.557   4.936  0.0174  0.8414 -1.6774
  744TIP3    H223724   0.999   3.666   4.910 -1.0148  2.3922  0.5002
  745TIP3   OH223725   5.307   1.593  16.628  0.1777  0.4708 -0.2973
  745TIP3    H123726   5.367   1.635  16.691  0.2386 -1.5426  1.0841
  745TIP3    H223727   5.225   1.641  16.639  0.9844  2.0851 -0.8971
  746TIP3   OH223728   5.034   5.575   6.190  0.1863 -0.0620  0.2703
  746TIP3    H123729   5.047   5.481   6.205  0.5296  0.2136  2.0039
  746TIP3    H223730   5.096   5.597   6.120  1.5668 -0.7783  1.2081
  747TIP3   OH223731   3.193   1.965  15.875  0.2561  0.3858  0.1090
  747TIP3    H123732   3.205   2.021  15.952  2.2347 -2.6144  2.2311
  747TIP3    H223733   3.281   1.937  15.852 -0.5781 -1.2727 -1.2632
  748TIP3   OH223734   0.058   2.602   4.060 -0.4474 -0.1211  0.1692
  748TIP3    H123735   0.107   2.678   4.090 -2.9562  1.6836 -0.0253
  748TIP3    H223736  -0.005   2.586   4.130 -1.4828 -0.5523 -0.8495
  749TIP3   OH223737   6.564   5.727  11.878  0.9438 -0.1651  0.0295
  749TIP3    H123738   6.645   5.778  11.880  0.4376  0.6552  0.1700
  749TIP3    H223739   6.566   5.677  11.959  0.5167  1.1615  0.9078
  750TIP3   OH223740   2.081   3.567  12.530  0.4369 -0.6247  0.2718
  750TIP3    H123741   2.027   3.644  12.514 -0.5240 -1.5992 -1.5062
  750TIP3    H223742   2.023   3.493  12.510  1.9167 -1.7505 -0.0142
  751TIP3   OH223743   4.921   2.370   2.616  1.0012 -0.4460  0.1533
  751TIP3    H123744   4.902   2.329   2.532 -0.6410  1.5568 -0.5373
  751TIP3    H223745   4.985   2.312   2.657  0.2903 -2.5742 -1.5577
  752TIP3   OH223746   6.308   5.126   3.749 -0.3068  0.5616 -0.7226
  752TIP3    H123747   6.278   5.179   3.675 -2.8015  0.2927  0.0039
  752TIP3    H223748   6.236   5.066   3.767  0.3956  0.3050  1.6312
  753TIP3   OH223749   6.016   5.077  12.284 -0.6155 -0.5661 -0.0046
  753TIP3    H123750   6.071   5.149  12.252  0.2227 -0.5697  1.3467
  753TIP3    H223751   5.933   5.088  12.239  0.3691 -0.3654 -1.8869
  754TIP3   OH223752   5.763   4.948  10.339  0.1121 -0.1283 -0.0982
  754TIP3    H123753   5.733   5.026  10.292  0.3734 -0.0347 -0.1119
  754TIP3    H223754   5.837   4.979  10.392  0.3531 -0.4059 -0.2653
  755TIP3   OH223755   0.118   1.258  14.116  0.1156  0.6480  0.4697
  755TIP3    H123756   0.211   1.259  14.140  0.3983  1.4313 -0.6007
  755TIP3    H223757   0.113   1.194  14.045 -0.4578 -0.5639  1.5646
  756TIP3   OH223758   2.070   1.124   6.179  0.4821  0.2374  0.6231
  756TIP3    H123759   2.048   1.116   6.272 -0.3873 -1.4947  0.3034
  756TIP3    H223760   2.108   1.039   6.156 -0.1057  0.3347 -0.7999
  757TIP3   OH223761   2.047   2.703  11.827  0.3505 -0.0535 -0.1879
  757TIP3    H123762   1.970   2.727  11.879  2.3877  1.5013  2.3290
  757TIP3    H223763   2.068   2.783  11.778  0.5283 -0.3893 -0.6661
  758TIP3   OH223764   0.046   0.916   2.563  0.6712  0.3968  0.0849
  758TIP3    H123765  -0.011   0.851   2.605 -1.1653  1.3064 -0.8805
  758TIP3    H223766   0.010   0.928   2.475  3.4497 -0.2698 -1.2719
  759TIP3   OH223767   0.539   1.266  13.791  0.4294  0.5803  0.0695
  759TIP3    H123768   0.555   1.182  13.747  0.8649 -0.3300  1.8624
  759TIP3    H223769   0.444   1.274  13.794  0.3868  0.6329 -0.9202
  760TIP3   OH223770   1.712   0.011  10.879 -0.0507 -0.3076  0.4882
  760TIP3    H123771   1.781   0.049  10.932 -0.1209  0.4125  0.0783
  760TIP3    H223772   1.712   0.063  10.799 -0.2382 -1.0979 -0.0331
  761TIP3   OH223773   1.586   3.074  11.088 -0.0202 -0.1470 -0.6583
  761TIP3    H123774   1.616   2.987  11.112 -3.4743 -2.2060 -2.9093
  761TIP3    H223775   1.621   3.088  11.000 -1.9172 -0.7094 -1.5530
  762TIP3   OH223776   5.730   0.053  15.610 -0.2233  0.5007 -0.0529
  762TIP3    H123777   5.787   0.097  15.547 -0.8191  0.5841 -0.5403
  762TIP3    H223778   5.648   0.102  15.608 -0.5220  0.0236  0.2028
  763TIP3   OH223779   4.552   2.964   2.245 -0.3967  0.3955 -0.2947
  763TIP3    H123780   4.591   3.046   2.216 -0.8325  0.4596 -0.7114
  763TIP3    H223781   4.553   2.908   2.168 -0.0077 -0.0313  0.0148
  764TIP3   OH223782   4.302   2.927  12.391 -0.0214 -0.1978 -0.1574
  764TIP3    H123783   4.219   2.934  12.344 -0.6527  0.1925  0.9762
  764TIP3    H223784   4.319   2.833  12.397 -1.2567 -0.3711  1.0487
  765TIP3   OH223785   4.348   1.390   1.692  0.5599  0.0325 -0.3287
  765TIP3    H123786   4.270   1.445   1.695 -0.2183 -1.0096 -0.9388
  765TIP3    H223787   4.341   1.334   1.769 -0.2868 -1.3364 -1.3602
  766TIP3   OH223788   1.265   1.737   1.900 -0.5568  0.1454  0.3070
  766TIP3    H123789   1.231   1.667   1.956  2.9469 -0.1164  2.4097
  766TIP3    H223790   1.356   1.713   1.885  0.1237  3.0938 -0.9280
  767TIP3   OH223791   1.786   3.240   5.248  0.0558 -0.2187  0.0830
  767TIP3    H123792   1.875   3.275   5.258  0.0708 -0.1461 -0.3148
  767TIP3    H223793   1.733   3.294   5.307 -0.2135  1.5661 -1.6731
  768TIP3   OH223794   3.580   0.168  12.720 -0.4286  0.2129  0.3913
  768TIP3    H123795   3.628   0.216  12.651  1.4877 -0.7418  0.9811
  768TIP3    H223796   3.520   0.112  12.672 -0.0024  0.4672 -0.4697
  769TIP3   OH223797   2.338   2.050   4.161  0.4541 -0.0249  0.3848
  769TIP3    H123798   2.371   2.012   4.243  2.4112  1.0534  0.1663
  769TIP3    H223799   2.279   2.120   4.190 -0.7554 -1.1794  0.8081
  770TIP3   OH223800   4.267   0.634  15.747 -0.1262 -0.0271  0.4240
  770TIP3    H123801   4.354   0.607  15.718 -0.6059 -0.6781 -0.4574
  770TIP3    H223802   4.214   0.555  15.740 -0.7179  0.2676  1.3031
  771TIP3   OH223803   1.699   3.018   1.572  0.0983 -0.0199  0.0294
  771TIP3    H123804   1.686   3.104   1.611 -0.7406 -0.5552  1.0075
  771TIP3    H223805   1.784   2.989   1.604 -0.4182 -0.2934  1.2205
  772TIP3   OH223806   1.109   3.641  13.609  0.6746  0.1421 -0.1051
  772TIP3    H123807   1.087   3.577  13.677  3.2975 -1.6606 -0.7899
  772TIP3    H223808   1.087   3.726  13.648 -0.5969 -0.9971  1.8320
  773TIP3   OH223809   5.068   6.772   2.498 -0.4867  0.6253  0.0647
  773TIP3    H123810   4.974   6.758   2.485 -0.4823  0.4561  0.2056
  773TIP3    H223811   5.101   6.687   2.529 -0.3013  0.7055  0.0892
  774TIP3   OH223812   2.878   2.722  10.693 -0.1240 -0.1083  0.4017
  774TIP3    H123813   2.787   2.728  10.664 -0.1903 -1.7878  0.1923
  774TIP3    H223814   2.873   2.735  10.788 -0.5435  0.0847  0.3565
  775TIP3   OH223815   2.274   3.196  11.764 -0.6442 -0.3495  0.1968
  775TIP3    H123816   2.368   3.209  11.779 -0.3849 -1.7568 -0.0575
  775TIP3    H223817   2.232   3.255  11.826  0.3580  2.3743 -1.5405
  776TIP3   OH223818   1.993   6.433   4.925  0.3903  0.2415  0.5455
  776TIP3    H123819   1.997   6.431   5.020 -3.0832 -0.6954  0.8028
  776TIP3    H223820   1.973   6.524   4.903  0.7327  0.3628  0.7409
  777TIP3   OH223821   5.273   2.293   3.296  0.5480  0.3466  0.3208
  777TIP3    H123822   5.290   2.283   3.390  1.4441 -0.2333  0.1033
  777TIP3    H223823   5.177   2.297   3.290  0.4603 -0.0480  1.2249
  778TIP3   OH223824   4.253   0.192  10.951  0.0028 -0.2292  0.1650
  778TIP3    H123825   4.296   0.157  11.028  0.0428  0.3616  0.4152
  778TIP3    H223826   4.206   0.118  10.914  0.9364 -0.7987  0.0871
  779TIP3   OH223827   6.764   1.442   1.518  0.0976 -0.1621 -0.3410
  779TIP3    H123828   6.694   1.435   1.583  0.5262  0.0233  0.1500
  779TIP3    H223829   6.730   1.396   1.441 -1.5309  1.9493 -0.9727
  780TIP3   OH223830   6.330   1.572   2.793 -0.5122  0.6997  0.3785
  780TIP3    H123831   6.382   1.634   2.845  0.7688 -1.1752  1.4613
  780TIP3    H223832   6.392   1.533   2.732 -1.0007 -0.3786  0.5486
  781TIP3   OH223833   0.715   4.827  14.906 -0.1420  0.0869 -0.2592
  781TIP3    H123834   0.734   4.917  14.936  2.2158 -0.1218 -0.8927
  781TIP3    H223835   0.781   4.773  14.950 -1.3440 -1.3221 -0.1207
  782TIP3   OH223836   1.256   0.129   2.133 -0.4266  0.3976 -0.4888
  782TIP3    H123837   1.270   0.204   2.076  0.5946  2.6660  2.4827
  782TIP3    H223838   1.163   0.132   2.155 -0.4772  0.5054 -0.7126
  783TIP3   OH223839   2.241   2.108   5.092 -0.3235  0.5183  0.2300
  783TIP3    H123840   2.281   2.066   5.168  0.2596 -0.1856 -0.4501
  783TIP3    H223841   2.298   2.085   5.018 -1.1183  0.8012 -0.5002
  784TIP3   OH223842   3.511   4.101   2.179  0.0441  0.0265 -0.7439
  784TIP3    H123843   3.513   4.108   2.274  1.0200  0.5447 -0.7848
  784TIP3    H223844   3.447   4.167   2.151 -0.5359 -0.3996 -0.4351
  785TIP3   OH223845   5.814   1.195  16.026 -0.1748 -0.1471  0.0562
  785TIP3    H123846   5.868   1.116  16.029  0.9277  0.5279 -0.9448
  785TIP3    H223847   5.735   1.168  15.979  0.7500 -0.3647 -1.4300
  786TIP3   OH223848   2.174   6.406   5.885 -0.4227  0.3632 -0.0842
  786TIP3    H123849   2.113   6.475   5.910 -0.4814  0.5304 -0.6698
  786TIP3    H223850   2.195   6.424   5.793  0.4763  0.2834  0.0923
  787TIP3   OH223851   1.708   0.819   0.709  0.0720  0.3949 -0.2773
  787TIP3    H123852   1.773   0.821   0.780  0.2361 -1.2406 -0.3436
  787TIP3    H223853   1.627   0.847   0.750  0.1270 -0.7108  0.6280
  788TIP3   OH223854   3.170   5.326   5.385 -0.0788 -0.1324  0.5313
  788TIP3    H123855   3.164   5.387   5.458 -0.1936  0.9642 -0.3771
  788TIP3    H223856   3.205   5.378   5.313 -1.4970 -0.7707 -0.6718
  789TIP3   OH223857   0.384   2.127  12.100  0.3622  0.0744  0.1800
  789TIP3    H123858   0.288   2.119  12.104  0.3777  0.0657  0.6351
  789TIP3    H223859   0.414   2.040  12.073  0.1979  0.3277 -0.8640
  790TIP3   OH223860   5.558   3.701   4.390  0.2787 -0.6202 -0.1493
  790TIP3    H123861   5.485   3.744   4.434 -0.8919 -0.3448 -2.2190
  790TIP3    H223862   5.582   3.628   4.447 -1.2055 -0.3456  0.8739
  791TIP3   OH223863   2.262   0.236  14.694 -0.1056 -0.4762 -0.0328
  791TIP3    H123864   2.270   0.146  14.727 -1.2406 -0.1011  1.4175
  791TIP3    H223865   2.317   0.288  14.753 -2.0660  0.1932  1.3234
  792TIP3   OH223866   4.092   2.020   2.859  0.0496  0.5277 -0.4453
  792TIP3    H123867   4.119   1.997   2.770  1.9593  1.2607 -0.0857
  792TIP3    H223868   4.115   1.944   2.912  1.0958  1.0036 -0.2016
  793TIP3   OH223869   4.799   1.117  13.539  0.0377 -0.2591  0.4647
  793TIP3    H123870   4.709   1.086  13.538 -0.7716  1.9375 -0.0094
  793TIP3    H223871   4.820   1.134  13.448  1.1101 -1.1216  0.5241
  794TIP3   OH223872   5.327   3.327   2.412 -0.2482 -0.0683 -0.5476
  794TIP3    H123873   5.291   3.413   2.389 -0.2739 -0.2774 -1.2988
  794TIP3    H223874   5.410   3.323   2.366 -0.2558 -0.4520 -0.5253
  795TIP3   OH223875   0.594   6.334   2.214  0.1285  0.4705 -0.1033
  795TIP3    H123876   0.542   6.407   2.179  1.2815  0.7265 -1.3444
  795TIP3    H223877   0.630   6.291   2.137  0.4952 -0.6546  0.6739
  796TIP3   OH223878   4.594   4.370  16.704 -0.1607  0.5450 -0.1375
  796TIP3    H123879   4.622   4.315  16.631  0.8438 -0.1068  0.7157
  796TIP3    H223880   4.501   4.353  16.714 -0.3530  0.7945 -1.3800
  797TIP3   OH223881   3.982   6.769   5.138 -0.1511 -0.1464 -0.0832
  797TIP3    H123882   4.025   6.814   5.211  0.0186 -0.4332 -0.0056
  797TIP3    H223883   3.890   6.796   5.144 -0.0350  0.2615 -0.0928
  798TIP3   OH223884   4.084   5.181  14.414  0.1006  0.0462  0.8253
  798TIP3    H123885   3.999   5.207  14.379  0.8931 -0.3813 -1.6120
  798TIP3    H223886   4.122   5.261  14.448 -0.1377  0.8450 -0.6996
  799TIP3   OH223887   1.418   3.263  15.739  0.3503 -0.7381 -0.4778
  799TIP3    H123888   1.391   3.173  15.755 -0.8017 -0.2269  0.5797
  799TIP3    H223889   1.349   3.299  15.683  0.3812 -0.2760 -0.2209
  800TIP3   OH223890   6.719   5.214   0.352 -0.1777 -0.3450  0.7317
  800TIP3    H123891   6.808   5.226   0.383 -0.0703  0.6162  0.0932
  800TIP3    H223892   6.678   5.157   0.417  0.5180  0.2618  1.7235
  801TIP3   OH223893   2.406   6.733   1.896 -0.1675  0.4891 -0.7982
  801TIP3    H123894   2.443   6.772   1.817  0.0416 -0.6137 -1.2690
  801TIP3    H223895   2.477   6.679   1.931 -0.3568  0.7289 -0.0166
  802TIP3   OH223896   5.111   6.063  11.887  0.5460 -0.3282 -0.0087
  802TIP3    H123897   5.075   6.137  11.839  0.8242 -0.1143  0.1128
  802TIP3    H223898   5.048   6.046  11.957 -0.0247 -0.8360 -0.6176
  803TIP3   OH223899   0.166   1.759  15.912 -0.3505 -0.3675  0.0592
  803TIP3    H123900   0.164   1.666  15.935 -0.6576  0.2401  2.8799
  803TIP3    H223901   0.259   1.781  15.910 -0.2818 -0.1436  2.5222
  804TIP3   OH223902   5.833   3.295   3.162  0.5960 -0.6376 -0.4932
  804TIP3    H123903   5.911   3.317   3.212  0.1491  0.2538 -0.1690
  804TIP3    H223904   5.867   3.252   3.083  1.6061  1.7501 -1.4762
  805TIP3   OH223905   0.712   4.095   4.052  0.0615 -0.0494 -0.7339
  805TIP3    H123906   0.705   4.052   4.137  1.5886 -0.6512 -0.8766
  805TIP3    H223907   0.740   4.025   3.992  1.7228  0.9321 -1.1573
  806TIP3   OH223908   0.285   3.534   5.397 -0.2976  0.1813 -0.3691
  806TIP3    H123909   0.337   3.511   5.474  0.1237  0.1518 -0.6564
  806TIP3    H223910   0.267   3.628   5.407  0.4856  0.3700 -0.6536
  807TIP3   OH223911   4.342   3.590   5.442 -0.7869 -0.3509  0.3846
  807TIP3    H123912   4.357   3.596   5.536  0.2431 -2.1066  0.3811
  807TIP3    H223913   4.426   3.559   5.407 -1.0814  0.4943 -1.1498
  808TIP3   OH223914   5.721   5.602   3.166  0.7164 -0.2015 -0.3063
  808TIP3    H123915   5.645   5.552   3.135  1.1967  0.2573 -2.3386
  808TIP3    H223916   5.769   5.540   3.221 -1.0274 -0.5336  0.9304
  809TIP3   OH223917   2.089   5.373  16.219  0.5434 -0.0555  0.0535
  809TIP3    H123918   2.162   5.334  16.171  1.9937  0.5856  1.6513
  809TIP3    H223919   2.014   5.318  16.197  1.0313  0.3967 -3.1760
  810TIP3   OH223920   2.972   2.181  16.427  0.2879  0.4312  0.0301
  810TIP3    H123921   3.041   2.185  16.361  1.7445 -0.8688  1.3759
  810TIP3    H223922   3.019   2.184  16.511 -1.3592  0.3063  0.9989
  811TIP3   OH223923   1.897   1.567   1.270 -0.0010 -0.3161 -1.0058
  811TIP3    H123924   1.992   1.557   1.271 -0.0301 -0.6428 -0.1678
  811TIP3    H223925   1.869   1.533   1.355 -0.6459  1.8332 -0.3006
  812TIP3   OH223926   1.125   6.447   1.022  0.2604  0.1450  0.2586
  812TIP3    H123927   1.216   6.477   1.030 -0.2130  1.6862  0.2612
  812TIP3    H223928   1.119   6.412   0.933  1.1560 -1.1244  0.6740
  813TIP3   OH223929   2.666   4.293   0.550  0.4136 -0.4110  0.0204
  813TIP3    H123930   2.656   4.203   0.579  1.2238  0.2892  2.6898
  813TIP3    H223931   2.743   4.326   0.596 -0.6312  2.0286  0.2035
  814TIP3   OH223932   5.021   4.853  14.358 -0.4853 -0.0758  0.0398
  814TIP3    H123933   5.031   4.826  14.449  1.0326  0.9728  0.2191
  814TIP3    H223934   5.000   4.946  14.363  0.9256  0.3052 -0.6845
  815TIP3   OH223935   2.206   4.831   3.070  0.3716 -0.1635  0.0935
  815TIP3    H123936   2.237   4.750   3.030 -0.6801 -0.9620  0.8186
  815TIP3    H223937   2.145   4.869   3.006  1.0774  0.2083 -0.3638
  816TIP3   OH223938   5.980   0.733   5.390  0.4505  0.6850 -0.6332
  816TIP3    H123939   6.070   0.749   5.419  0.2401  1.0529 -0.1629
  816TIP3    H223940   5.986   0.655   5.334  1.1391  1.0338 -1.0544
  817TIP3   OH223941   3.653   1.929  12.233  0.2337 -0.2594 -0.0458
  817TIP3    H123942   3.581   1.872  12.206 -0.4482  0.0473  1.0294
  817TIP3    H223943   3.718   1.922  12.163 -0.8708 -0.4996 -1.0664
  818TIP3   OH223944   0.338   4.038  13.465 -0.8191  0.8035  0.0980
  818TIP3    H123945   0.392   3.981  13.519 -0.4065  1.8747  0.8548
  818TIP3    H223946   0.251   3.997  13.465 -0.3272 -0.2663 -0.0966
  819TIP3   OH223947   0.551   1.578   3.456  0.2243 -0.2969 -0.7517
  819TIP3    H123948   0.491   1.575   3.381 -1.5656 -1.7099  0.6577
  819TIP3    H223949   0.530   1.661   3.500 -2.0978 -1.5796  0.7408
  820TIP3   OH223950   2.440   6.173   5.798 -0.0136  0.3081  0.0794
  820TIP3    H123951   2.430   6.209   5.886 -0.8051 -1.0544  0.5793
  820TIP3    H223952   2.358   6.125   5.782  0.6702 -0.5992 -0.8501
  821TIP3   OH223953   0.804   0.963   5.251  0.4357  0.0033 -0.4566
  821TIP3    H123954   0.882   0.907   5.253  0.1952 -0.3174  1.6008
  821TIP3    H223955   0.736   0.913   5.295 -0.4074  1.0508 -0.5182
  822TIP3   OH223956   2.246   4.510   3.809 -1.0900  0.5322  0.6212
  822TIP3    H123957   2.324   4.480   3.856 -0.0401  1.7708 -0.2605
  822TIP3    H223958   2.242   4.453   3.732 -1.8205 -0.3661  1.2981
  823TIP3   OH223959   1.604   5.008   4.123  0.9781 -0.0398  0.4350
  823TIP3    H123960   1.512   4.982   4.132  0.8449  0.9905  2.4640
  823TIP3    H223961   1.609   5.095   4.161  2.7609  0.0516  0.0944
  824TIP3   OH223962   3.333   3.040  12.588 -0.8742 -0.0471  0.1730
  824TIP3    H123963   3.255   3.009  12.541  0.8208 -2.6851 -1.1308
  824TIP3    H223964   3.330   2.994  12.672 -0.7707 -0.0513  0.1734
  825TIP3   OH223965   1.986   0.950  12.862 -0.4038 -0.1296 -0.1910
  825TIP3    H123966   1.984   0.939  12.957  0.5876 -1.9052 -0.3247
  825TIP3    H223967   1.925   1.022  12.844 -0.2730  0.5339  1.8081
  826TIP3   OH223968   2.236   4.074   0.862 -0.3132 -0.4200  0.3034
  826TIP3    H123969   2.287   4.150   0.891  1.0407 -1.7706  1.6496
  826TIP3    H223970   2.290   4.033   0.795 -1.3115  0.0968 -0.8513
  827TIP3   OH223971   5.635   0.594   1.660  0.0410  0.3179  0.8374
  827TIP3    H123972   5.604   0.680   1.633  1.2165  1.6612  3.3677
  827TIP3    H223973   5.729   0.594   1.638  0.0716 -0.2882  0.9394
  828TIP3   OH223974   2.160   2.099  14.148 -0.2103  0.4455 -0.3253
  828TIP3    H123975   2.181   2.192  14.140  0.5592  0.5485  2.0522
  828TIP3    H223976   2.225   2.055  14.094 -0.9754  1.2744 -2.0007
  829TIP3   OH223977   0.942   4.916   3.372  0.2253 -0.0423 -0.1505
  829TIP3    H123978   1.016   4.932   3.431  0.4307 -0.0560 -0.4051
  829TIP3    H223979   0.865   4.924   3.428  0.4754 -1.4961  0.4508
  830TIP3   OH223980   6.086   6.496  14.800 -0.2072 -0.3108  0.2198
  830TIP3    H123981   6.010   6.470  14.748 -0.9500  0.9486  0.6292
  830TIP3    H223982   6.119   6.414  14.837 -0.9342 -0.9643 -0.5442
  831TIP3   OH223983   5.902   0.304   3.702  0.3538 -0.3977  0.2062
  831TIP3    H123984   5.940   0.285   3.787 -2.8940 -1.2105  1.5977
  831TIP3    H223985   5.905   0.400   3.696  1.7876 -0.3916  0.5856
  832TIP3   OH223986   2.269   5.947  12.942 -0.1612 -1.1222  0.3961
  832TIP3    H123987   2.208   5.958  13.016 -0.9586 -0.9900 -0.2654
  832TIP3    H223988   2.318   5.867  12.963 -0.4277 -1.1238  1.0379
  833TIP3   OH223989   2.881   0.373  16.714 -0.0645  0.4658  0.6638
  833TIP3    H123990   2.934   0.432  16.661 -0.9119  0.7036  0.0548
  833TIP3    H223991   2.791   0.402  16.698 -0.4417 -0.5713  0.8728
  834TIP3   OH223992   3.023   1.432   5.234  0.1343  0.0497  0.1351
  834TIP3    H123993   2.963   1.416   5.161  1.7707 -1.2022 -1.0222
  834TIP3    H223994   3.109   1.410   5.199  1.1823  0.9635  1.9920
  835TIP3   OH223995   1.293   5.980  15.742 -0.0522 -0.1359 -0.1776
  835TIP3    H123996   1.281   6.056  15.686  1.2443 -1.2964 -2.1825
  835TIP3    H223997   1.208   5.937  15.744 -0.8979  1.5138  1.3033
  836TIP3   OH223998   5.583   0.970   5.453  0.1461 -0.0747  0.3052
  836TIP3    H123999   5.600   0.993   5.361 -1.8029 -2.7390 -0.8544
  836TIP3    H224000   5.616   0.880   5.462  2.1258  0.7648  2.8912
  837TIP3   OH224001   4.290   0.906   1.309  0.0856 -0.5866  0.1531
  837TIP3    H124002   4.324   0.825   1.270  0.8908 -0.5056  0.6517
  837TIP3    H224003   4.368   0.952   1.340 -0.1743  1.2942 -1.7643
  838TIP3   OH224004   4.948   5.003   5.495  0.0889  0.4529 -0.3137
  838TIP3    H124005   4.869   4.952   5.474  1.2824 -1.5700 -0.1553
  838TIP3    H224006   4.917   5.068   5.558 -1.7656  0.8207 -1.5126
  839TIP3   OH224007   2.546   1.132   6.687  0.0252 -0.0047 -0.2763
  839TIP3    H124008   2.526   1.041   6.712  0.7544 -0.2835 -0.6678
  839TIP3    H224009   2.555   1.130   6.592  1.6398  0.1232 -0.1673
  840TIP3   OH224010   5.593   2.415  15.505 -0.1880 -0.1032 -0.3344
  840TIP3    H124011   5.640   2.333  15.490  0.5447 -0.0816  1.5310
  840TIP3    H224012   5.660   2.475  15.539 -1.0493  0.7582 -0.1223
  841TIP3   OH224013   4.639   6.451   2.165  0.2420  0.3504  0.5100
  841TIP3    H124014   4.643   6.366   2.210  1.6911  0.0702 -0.0938
  841TIP3    H224015   4.680   6.435   2.080 -0.8777  1.2953 -0.2430
  842TIP3   OH224016   3.364   5.591   1.655 -0.0383 -0.6808  0.0603
  842TIP3    H124017   3.281   5.572   1.610 -0.0219 -0.6621  0.0227
  842TIP3    H224018   3.411   5.508   1.654  0.1723 -0.5577 -0.3906
  843TIP3   OH224019   4.677   5.902  12.300  0.0868  0.1819 -0.3375
  843TIP3    H124020   4.739   5.836  12.268  0.0786  0.5236 -1.0724
  843TIP3    H224021   4.684   5.974  12.237 -1.8924 -0.2498 -1.1143
  844TIP3   OH224022   1.306   0.602  16.860  0.4185 -0.0215  0.0014
  844TIP3    H124023   1.235   0.658  16.828  0.5149 -0.6636 -1.4074
  844TIP3    H224024   1.377   0.662  16.880 -0.3024  0.5752  0.8970
  845TIP3   OH224025   5.670   3.800   1.055 -0.4684  0.4647 -0.4620
  845TIP3    H124026   5.727   3.735   1.098 -0.9509  0.7253  0.6150
  845TIP3    H224027   5.682   3.880   1.107 -1.9162  0.4819 -0.1203
  846TIP3   OH224028   1.660   2.924  12.704 -0.4303 -0.0798 -0.3161
  846TIP3    H124029   1.670   3.016  12.680  1.9375  0.1604  1.2511
  846TIP3    H224030   1.611   2.926  12.787 -0.9683 -0.3030 -0.6211
  847TIP3   OH224031   3.910   5.369   3.120  0.2626  0.0106 -1.1768
  847TIP3    H124032   3.970   5.443   3.114 -0.0671  0.3854 -0.0667
  847TIP3    H224033   3.832   5.398   3.073 -0.0744  0.6022 -0.2801
  848TIP3   OH224034   6.690   1.661   6.166  0.2513 -0.1256 -0.3833
  848TIP3    H124035   6.715   1.752   6.154 -2.0846  0.3738 -2.3225
  848TIP3    H224036   6.715   1.619   6.083 -0.4544 -0.7693 -0.2805
  849TIP3   OH224037   6.392   0.984  16.870 -0.0483  0.1637 -0.5547
  849TIP3    H124038   6.453   1.050  16.904 -0.4656  0.1473  0.2459
  849TIP3    H224039   6.374   1.012  16.781 -0.0869  1.0409 -0.2790
  850TIP3   OH224040   3.033   0.782  14.160 -0.2510 -0.8585  0.2548
  850TIP3    H124041   3.040   0.815  14.070  0.1965 -2.1250 -0.2081
  850TIP3    H224042   2.943   0.750  14.166 -0.8289  0.7893  0.8538
  851TIP3   OH224043   6.799   5.577  16.629  0.2248 -0.1896 -0.0556
  851TIP3    H124044   6.884   5.573  16.584 -0.2960 -0.3123 -1.0582
  851TIP3    H224045   6.819   5.620  16.713  0.9787  1.5111 -1.0378
  852TIP3   OH224046   6.579   0.926   4.574  0.2667  0.0537  0.2498
  852TIP3    H124047   6.660   0.879   4.555  0.6132  0.9888 -0.6650
  852TIP3    H224048   6.521   0.859   4.610  1.1415 -0.8168  0.0913
  853TIP3   OH224049   1.419   2.635   0.722  0.5327 -0.0468 -0.4687
  853TIP3    H124050   1.504   2.679   0.722  0.3651  0.3842 -2.2370
  853TIP3    H224051   1.368   2.682   0.788  1.7037 -0.4340  0.7442
  854TIP3   OH224052   0.554   1.806   1.039 -0.3688  0.5457 -0.0157
  854TIP3    H124053   0.580   1.866   1.109 -1.1817 -0.0112  0.7838
  854TIP3    H224054   0.623   1.740   1.037 -0.8261  0.0171  0.9475
  855TIP3   OH224055   5.973   4.416   3.592 -0.6268 -0.3285 -0.6899
  855TIP3    H124056   5.949   4.326   3.615 -0.4183 -0.1183  0.4196
  855TIP3    H224057   5.923   4.470   3.653  2.2224  0.1523  1.4479
  856TIP3   OH224058   4.641   3.425   2.782 -0.2389  0.1507 -0.5064
  856TIP3    H124059   4.670   3.357   2.721 -0.2387 -0.2128 -0.1090
  856TIP3    H224060   4.718   3.479   2.797  0.5560 -1.3361  1.2519
  857TIP3   OH224061   1.424   5.751  11.867 -0.5107 -0.0165 -0.1350
  857TIP3    H124062   1.433   5.737  11.773  2.0546 -1.0193  0.1521
  857TIP3    H224063   1.427   5.846  11.878  3.6302  0.1266 -0.9064
  858TIP3   OH224064   2.426   0.086   5.790  0.5070 -0.5977  0.1249
  858TIP3    H124065   2.335   0.057   5.785  0.9573 -2.1546  0.5248
  858TIP3    H224066   2.431   0.160   5.729 -1.5323  0.9791  1.6928
  859TIP3   OH224067   5.997   1.828  14.068 -0.2714  0.0059  0.2895
  859TIP3    H124068   5.968   1.756  14.011 -1.5598 -1.4218  2.5678
  859TIP3    H224069   5.933   1.898  14.053  0.1360  0.1460 -0.8844
  860TIP3   OH224070   3.641   5.780  11.796  0.9327 -0.5694 -0.0294
  860TIP3    H124071   3.641   5.771  11.701  3.7870  0.1405 -0.1945
  860TIP3    H224072   3.709   5.720  11.826 -1.2570 -2.3126  1.8504
  861TIP3   OH224073   1.363   4.032   2.072  0.3576  0.6521  0.2948
  861TIP3    H124074   1.446   3.985   2.086 -0.3292 -1.0490 -1.0055
  861TIP3    H224075   1.351   4.083   2.152  2.0641  0.0045  1.0133
  862TIP3   OH224076   3.204   2.458   3.957  0.0960  0.1909  0.2048
  862TIP3    H124077   3.142   2.523   3.925 -1.7106 -1.0588  1.0098
  862TIP3    H224078   3.282   2.509   3.979 -0.6696  1.8396 -0.6762
  863TIP3   OH224079   1.269   3.554   0.642  0.0408 -0.6907  0.8248
  863TIP3    H124080   1.236   3.631   0.689 -0.6261  0.5277 -1.4673
  863TIP3    H224081   1.198   3.490   0.648 -0.9271  0.2223 -0.1765
  864TIP3   OH224082   4.633   4.628  12.745 -0.2555  0.0121  0.5159
  864TIP3    H124083   4.653   4.549  12.694  0.5275  0.0693  0.7237
  864TIP3    H224084   4.717   4.656  12.780 -0.7502  0.0957  1.6809
  865TIP3   OH224085   1.857   0.862  15.976 -0.2385 -0.6231 -0.1700
  865TIP3    H124086   1.859   0.936  16.036 -0.0632  1.9713 -3.1370
  865TIP3    H224087   1.920   0.800  16.013  2.0986  2.1302  0.8332
  866TIP3   OH224088   0.042   5.177  13.341  0.2315 -0.1946 -0.1383
  866TIP3    H124089   0.058   5.263  13.303  1.6419 -0.4676 -0.2393
  866TIP3    H224090   0.095   5.175  13.421  0.8546 -1.2215 -0.5429
  867TIP3   OH224091   3.382   4.340  10.878  0.4001 -0.7614 -0.1011
  867TIP3    H124092   3.372   4.284  10.801 -0.2277 -0.2334 -0.4078
  867TIP3    H224093   3.398   4.427  10.843  1.1101 -0.6921  0.3762
  868TIP3   OH224094   1.129   1.767  14.791 -0.4687 -0.0280  0.1452
  868TIP3    H124095   1.106   1.684  14.750 -1.1018  0.1154  0.2076
  868TIP3    H224096   1.140   1.746  14.883 -1.7003  0.1576  0.3425
  869TIP3   OH224097   4.693   0.600  11.699  0.8667 -0.0666  0.5096
  869TIP3    H124098   4.746   0.540  11.646 -1.5588 -1.3389 -0.6580
  869TIP3    H224099   4.661   0.545  11.771  0.5631  0.4632  0.7806
  870TIP3   OH224100   2.821   3.800  14.206  0.4009  0.1293 -0.1927
  870TIP3    H124101   2.807   3.708  14.229  1.4299 -0.2001 -0.8133
  870TIP3    H224102   2.828   3.845  14.290  2.9977 -0.8720  0.2147
  871TIP3   OH224103   0.927   2.976   3.058  0.1988 -0.7259 -0.0231
  871TIP3    H124104   0.886   2.892   3.037  2.4482 -2.2901  1.5105
  871TIP3    H224105   0.855   3.039   3.051 -1.9256 -2.9687  0.2739
  872TIP3   OH224106   2.355   4.531   3.532  0.5986  0.0704  0.8905
  872TIP3    H124107   2.440   4.573   3.542  0.2432  1.2210 -0.5806
  872TIP3    H224108   2.306   4.588   3.473  0.2315 -2.5478 -1.5737
  873TIP3   OH224109   4.169   5.818  11.791  0.0077 -0.2498  0.0103
  873TIP3    H124110   4.081   5.829  11.827 -0.5785 -1.2917 -1.0382
  873TIP3    H224111   4.225   5.807  11.867 -0.6973  0.8316  0.7125
  874TIP3   OH224112   2.413   3.179  13.363 -0.1524  0.1794 -0.6663
  874TIP3    H124113   2.399   3.090  13.331  1.4665  0.0853 -1.2323
  874TIP3    H224114   2.504   3.199  13.338 -0.6264  2.1525 -0.9758
  875TIP3   OH224115   5.193   3.992  10.560 -0.0773 -0.1730 -0.4262
  875TIP3    H124116   5.130   3.980  10.490 -0.6911  1.0379 -0.1173
  875TIP3    H224117   5.226   4.081  10.548  1.0348 -0.5272 -0.1444
  876TIP3   OH224118   2.224   5.153  16.833 -0.0811  0.2066 -0.3210
  876TIP3    H124119   2.154   5.130  16.771 -0.2578 -1.7771  0.5387
  876TIP3    H224120   2.179   5.171  16.915  0.4060 -1.5674  0.3683
  877TIP3   OH224121   2.772   4.962  10.994  0.2768  0.5639 -0.2144
  877TIP3    H124122   2.686   5.000  10.974 -0.2445 -0.2648  0.3460
  877TIP3    H224123   2.792   4.907  10.918  0.3353  0.8047 -0.3729
  878TIP3   OH224124   3.470   3.977  10.973 -0.7422 -0.0048 -0.7360
  878TIP3    H124125   3.472   3.902  10.913 -1.5121 -0.2978 -0.4127
  878TIP3    H224126   3.379   4.006  10.971 -0.2008  1.7849 -1.8977
  879TIP3   OH224127   3.662   5.430  11.946 -0.8765 -0.1810 -0.3538
  879TIP3    H124128   3.600   5.490  11.988 -1.1935 -0.7455  0.0037
  879TIP3    H224129   3.607   5.364  11.904 -0.5275 -0.4183 -0.4429
  880TIP3   OH224130   0.384   4.181  15.466 -0.3560 -0.2900  0.0724
  880TIP3    H124131   0.393   4.273  15.491 -0.8203 -0.6102  1.4949
  880TIP3    H224132   0.290   4.167  15.459 -0.3079 -0.7899  0.3910
  881TIP3   OH224133   3.105   6.789   2.445 -0.5518 -0.5033 -0.0073
  881TIP3    H124134   3.193   6.791   2.407 -0.3777  1.9030  0.3323
  881TIP3    H224135   3.067   6.708   2.413  1.1983 -0.7903 -1.5573
  882TIP3   OH224136   4.728   5.617  13.539  0.5385  0.2914  0.0999
  882TIP3    H124137   4.740   5.711  13.528  2.9372  0.1499  0.9118
  882TIP3    H224138   4.715   5.605  13.633 -0.0904 -0.1574 -0.0413
  883TIP3   OH224139   0.419   6.712  16.830 -0.0109  0.0547  0.0487
  883TIP3    H124140   0.500   6.731  16.783  1.3603 -0.8922  1.8879
  883TIP3    H224141   0.428   6.620  16.857 -0.7078  0.5197  2.0638
  884TIP3   OH224142   1.994   3.334   5.488  0.2687  0.6064  0.2695
  884TIP3    H124143   1.936   3.404   5.515 -0.6726 -0.0385 -0.0405
  884TIP3    H224144   1.983   3.266   5.555  0.4516  0.3623  0.0562
  885TIP3   OH224145   2.773   1.425  12.214 -0.2765 -0.1395  0.4519
  885TIP3    H124146   2.794   1.516  12.234  1.4429 -0.5815  0.8001
  885TIP3    H224147   2.735   1.428  12.126  1.0701  0.7828 -0.1274
  886TIP3   OH224148   4.471   0.540  16.720 -0.2215 -0.0276  0.0179
  886TIP3    H124149   4.522   0.504  16.794 -0.9580 -0.2401  0.4380
  886TIP3    H224150   4.390   0.489  16.721 -0.5596  0.4990 -0.4661
  887TIP3   OH224151   6.310   4.521   6.671 -0.3476  0.6208 -0.1157
  887TIP3    H124152   6.332   4.457   6.604  0.9506  1.3420 -0.4111
  887TIP3    H224153   6.283   4.469   6.746  1.6529 -0.3299 -0.0051
  888TIP3   OH224154   0.001   1.211  10.853  0.1602  0.2801  0.0162
  888TIP3    H124155  -0.066   1.279  10.858  2.1028  2.3644 -0.8358
  888TIP3    H224156  -0.045   1.136  10.815 -1.6227  1.7678 -0.9573
  889TIP3   OH224157   6.156   3.648  10.882  0.0320 -0.3915  0.3100
  889TIP3    H124158   6.126   3.567  10.841 -1.3012 -0.7580  1.8957
  889TIP3    H224159   6.193   3.699  10.810  1.1844 -2.4942 -0.6889
  890TIP3   OH224160   6.485   0.672   4.627  0.7528 -0.0363 -0.0790
  890TIP3    H124161   6.523   0.654   4.713  1.3822 -1.6103 -0.6557
  890TIP3    H224162   6.433   0.595   4.606  1.5457 -0.2001 -1.6024
  891TIP3   OH224163   4.386   1.337  14.011  0.5432  0.0204  0.4011
  891TIP3    H124164   4.353   1.427  14.007 -0.2888 -0.2895 -0.1117
  891TIP3    H224165   4.317   1.288  14.055  0.5008 -0.5615 -0.2841
  892TIP3   OH224166   0.812   5.502  13.662  0.3533  0.3483  0.0048
  892TIP3    H124167   0.743   5.439  13.641  2.1307 -2.7058  2.3603
  892TIP3    H224168   0.876   5.492  13.590  0.3856 -0.2166  0.1038
  893TIP3   OH224169   0.250   4.109   4.210  0.2228 -0.0202 -0.5543
  893TIP3    H124170   0.330   4.146   4.245 -0.4200 -1.0419  2.2890
  893TIP3    H224171   0.180   4.164   4.246 -0.4240  0.4055 -2.3699
  894TIP3   OH224172   1.667   6.418   5.113 -0.3687  0.0011 -0.0097
  894TIP3    H124173   1.748   6.385   5.154 -0.5486 -1.2469 -0.6131
  894TIP3    H224174   1.609   6.342   5.111 -1.4650  0.8137  0.1427
  895TIP3   OH224175   3.420   3.382   0.744 -0.1385  0.4315 -0.3373
  895TIP3    H124176   3.340   3.348   0.705  0.1722  0.0380 -0.6433
  895TIP3    H224177   3.451   3.448   0.681  0.0783  0.1750 -0.5050
  896TIP3   OH224178   3.295   0.936   3.526 -0.3871  0.2086 -0.6722
  896TIP3    H124179   3.376   0.901   3.564 -0.3191 -0.1489 -1.1388
  896TIP3    H224180   3.231   0.931   3.597  0.0680  0.7346 -0.2250
  897TIP3   OH224181   0.346   0.183  16.380  0.1567 -0.4361  0.1449
  897TIP3    H124182   0.432   0.142  16.372  0.9393  0.6457  2.3623
  897TIP3    H224183   0.354   0.266  16.333  1.0916  0.6858  2.1830
  898TIP3   OH224184   4.798   6.685  14.451  0.1866  0.6589 -0.0607
  898TIP3    H124185   4.880   6.714  14.492  0.3792  1.2951 -0.8582
  898TIP3    H224186   4.811   6.703  14.357 -0.9343  0.9366 -0.1700
  899TIP3   OH224187   4.071   0.359   3.366  0.6011 -0.0840 -0.2176
  899TIP3    H124188   4.017   0.286   3.398  0.3092 -0.1642 -0.8668
  899TIP3    H224189   4.007   0.422   3.333  0.7143  1.4361  2.1952
  900TIP3   OH224190   3.196   4.088   1.601  0.6146  0.2501 -0.4977
  900TIP3    H124191   3.175   3.997   1.582 -0.7789  0.6413 -0.9307
  900TIP3    H224192   3.253   4.114   1.528  1.8795 -0.5516  0.1775
  901TIP3   OH224193   1.103   5.389  14.674  0.0482 -0.3915  0.2723
  901TIP3    H124194   1.139   5.380  14.763 -0.2999 -1.3716  0.3264
  901TIP3    H224195   1.172   5.356  14.617  0.0803 -0.2208  0.2122
  902TIP3   OH224196   6.804   0.947   4.297 -0.3374  0.3262 -0.0932
  902TIP3    H124197   6.730   1.007   4.307 -0.3583  0.4695 -1.0263
  902TIP3    H224198   6.817   0.910   4.384 -0.2481  1.7803  0.5430
  903TIP3   OH224199   1.401   4.232   4.510 -0.1257  0.0656  0.4453
  903TIP3    H124200   1.474   4.184   4.548 -0.7234  0.1629  1.7635
  903TIP3    H224201   1.443   4.304   4.461  0.6815 -0.4437  0.3695
  904TIP3   OH224202   6.697   6.005   3.635 -0.5213  0.9012  0.2995
  904TIP3    H124203   6.784   6.039   3.655  0.6118 -0.2121 -2.3028
  904TIP3    H224204   6.712   5.912   3.614 -2.7839 -0.0755  2.4124
  905TIP3   OH224205   0.707   3.465  14.208 -0.3309  0.3222  0.4338
  905TIP3    H124206   0.758   3.516  14.270  1.5299 -1.0593  0.1226
  905TIP3    H224207   0.716   3.375  14.238  0.0216 -0.2927 -1.4033
  906TIP3   OH224208   1.369   2.618  14.477  0.4565  0.9674 -0.0932
  906TIP3    H124209   1.293   2.560  14.484  1.6257 -0.4210  2.5615
  906TIP3    H224210   1.366   2.671  14.557  1.5501  1.8641 -0.6229
  907TIP3   OH224211   3.158   0.113   4.478  0.2418  0.2462  0.6458
  907TIP3    H124212   3.068   0.084   4.495  0.1147  0.0332 -0.3356
  907TIP3    H224213   3.160   0.135   4.385  1.1416  0.4963  0.7085
  908TIP3   OH224214   0.056   3.123   0.015 -0.6896  0.7581  0.2452
  908TIP3    H124215   0.106   3.053  -0.027 -0.4380  0.5587  0.8633
  908TIP3    H224216   0.073   3.200  -0.038  2.3639  1.3245  1.8275
  909TIP3   OH224217   6.392   2.270   4.856  0.0938 -0.5480  0.2619
  909TIP3    H124218   6.372   2.321   4.777  0.1462 -0.6128  0.2057
  909TIP3    H224219   6.396   2.179   4.825 -0.5786 -0.6514  0.4722
  910TIP3   OH224220   0.545   3.645  10.451  0.0274  0.5307  0.3604
  910TIP3    H124221   0.606   3.585  10.493 -0.0121 -0.5650 -1.0835
  910TIP3    H224222   0.461   3.628  10.493  0.2125  0.2462  0.6128
  911TIP3   OH224223   6.078   5.151  16.077  0.2949  0.1063  1.0191
  911TIP3    H124224   6.097   5.061  16.051 -1.1920 -0.2276  0.9498
  911TIP3    H224225   5.985   5.149  16.099 -0.1074  1.9141 -0.2842
  912TIP3   OH224226   4.259   2.471   3.567 -0.0084  0.6570 -0.0209
  912TIP3    H124227   4.227   2.538   3.627  0.1086 -0.8624  1.8412
  912TIP3    H224228   4.188   2.407   3.563  0.1975  0.4807 -1.1201
  913TIP3   OH224229   4.324   1.522   1.413 -0.1337  0.4860 -0.0298
  913TIP3    H124230   4.406   1.477   1.435  0.2694  0.1916 -1.9118
  913TIP3    H224231   4.314   1.588   1.481  0.5708 -0.8224  1.3980
  914TIP3   OH224232   4.819   6.429   1.966 -0.0707 -0.1407 -0.3489
  914TIP3    H124233   4.848   6.517   1.940 -0.8561  0.2641  0.0941
  914TIP3    H224234   4.883   6.370   1.927  1.6004  0.7230  0.9523
  915TIP3   OH224235   2.349   4.114  12.335 -0.2235  0.1006  0.7141
  915TIP3    H124236   2.290   4.064  12.392 -0.1996  0.7180  1.2909
  915TIP3    H224237   2.434   4.072  12.347 -0.3362 -0.1394  0.6866
  916TIP3   OH224238   1.823   0.918  12.494 -0.4004  0.2628  0.5630
  916TIP3    H124239   1.790   0.955  12.411  0.4759  2.3103  1.0571
  916TIP3    H224240   1.913   0.893  12.475 -0.8767 -1.3966  0.3361
  917TIP3   OH224241   1.639   3.528   1.247 -0.0781  0.3419 -0.0398
  917TIP3    H124242   1.705   3.459   1.254  1.5620  1.7931 -0.3604
  917TIP3    H224243   1.611   3.544   1.337  0.1888 -0.1185  0.1290
  918TIP3   OH224244   2.912   3.106  11.133  0.0490  0.0934  0.7683
  918TIP3    H124245   2.835   3.066  11.174 -0.3638  1.1138  1.0195
  918TIP3    H224246   2.980   3.039  11.140 -0.3341 -0.1953  2.0877
  919TIP3   OH224247   0.368   2.796   5.225 -0.1056 -0.0317  0.1155
  919TIP3    H124248   0.350   2.829   5.313 -0.7607  1.9837 -0.7038
  919TIP3    H224249   0.449   2.747   5.234 -0.6341 -0.6534  2.0064
  920TIP3   OH224250   2.302   5.750   1.788  0.7128 -0.0832  0.1185
  920TIP3    H124251   2.292   5.656   1.774 -1.5910 -0.2729  2.2796
  920TIP3    H224252   2.225   5.788   1.745 -0.5420  0.3197  2.5119
  921TIP3   OH224253   3.537   1.352   2.827  0.0211 -0.0998 -0.1908
  921TIP3    H124254   3.506   1.406   2.899  1.1419  2.4423 -1.4689
  921TIP3    H224255   3.614   1.307   2.862 -0.5139 -0.3484  0.6990
  922TIP3   OH224256   3.053   5.866  15.645  0.3631 -0.1705 -0.6307
  922TIP3    H124257   2.983   5.932  15.642 -0.7321 -0.9028  3.1171
  922TIP3    H224258   3.134   5.917  15.645 -0.4449  1.4506  2.7418
  923TIP3   OH224259   3.396   3.319  13.552  0.3366  0.3898  0.0817
  923TIP3    H124260   3.330   3.303  13.620  0.1554 -1.5705 -0.4744
  923TIP3    H224261   3.346   3.331  13.472  0.6008 -0.7288 -0.2763
  924TIP3   OH224262   2.880   6.831  10.141 -0.7457 -0.8259  0.0963
  924TIP3    H124263   2.945   6.779  10.190  1.5345 -0.0890 -1.9514
  924TIP3    H224264   2.863   6.779  10.062  0.7883  0.9353 -1.4901
  925TIP3   OH224265   6.349   1.915   0.166 -0.2381 -0.1753 -0.0723
  925TIP3    H124266   6.334   1.999   0.122  2.1796 -0.4799 -1.6774
  925TIP3    H224267   6.443   1.898   0.154 -0.8379 -3.7075 -0.9383
  926TIP3   OH224268   0.796   2.103  14.565  0.2519  0.5584 -0.3907
  926TIP3    H124269   0.821   2.011  14.571 -1.4921  0.0621  0.0224
  926TIP3    H224270   0.847   2.146  14.633  1.0313 -0.1145 -0.5362
  927TIP3   OH224271   1.343   0.425  15.346  0.0514  0.0019  0.3022
  927TIP3    H124272   1.248   0.423  15.357  0.0865 -0.5235  0.5304
  927TIP3    H224273   1.360   0.504  15.295 -0.6968 -1.0680 -1.6915
  928TIP3   OH224274   1.765   5.009  16.162 -0.0832  0.6269 -0.3498
  928TIP3    H124275   1.771   4.992  16.068  1.0922 -1.2656  0.0188
  928TIP3    H224276   1.702   4.944  16.195 -0.9175  1.6321  0.1291
  929TIP3   OH224277   4.571   4.457   5.667 -1.0934  0.1931  0.2879
  929TIP3    H124278   4.591   4.367   5.640 -2.0381  0.3288 -0.9900
  929TIP3    H224279   4.545   4.501   5.586 -0.9121  1.5498  0.9386
  930TIP3   OH224280   6.010   3.351   1.105 -0.1545 -0.1588  0.2128
  930TIP3    H124281   6.088   3.328   1.054  0.6329  1.0772  0.8265
  930TIP3    H224282   6.025   3.312   1.191 -0.8309 -1.0256 -0.0434
  931TIP3   OH224283   3.569   0.616  16.421 -0.0561 -0.2347 -0.2133
  931TIP3    H124284   3.563   0.580  16.509 -2.4922  1.0053  0.1987
  931TIP3    H224285   3.554   0.710  16.432  2.7871  0.5143 -1.6380
  932TIP3   OH224286   0.399   0.267   3.492 -0.0484 -0.2012 -0.2202
  932TIP3    H124287   0.476   0.301   3.446 -0.2289 -1.9216 -1.9110
  932TIP3    H224288   0.408   0.300   3.581  1.3173  1.7047 -1.0012
  933TIP3   OH224289   4.831   4.590   1.539  0.0655  0.0731  0.2527
  933TIP3    H124290   4.767   4.638   1.592 -1.0624 -1.4505  0.3490
  933TIP3    H224291   4.820   4.625   1.450  0.8013  1.4762  0.6855
  934TIP3   OH224292   3.171   2.703   4.850  1.3900  0.2348  0.6553
  934TIP3    H124293   3.163   2.696   4.945  0.6769 -1.0234  0.5154
  934TIP3    H224294   3.102   2.647   4.815  1.7398  0.5570 -0.6095
  935TIP3   OH224295   6.377   5.261   4.546  0.4420 -0.1889 -0.1658
  935TIP3    H124296   6.288   5.290   4.565  0.7426  0.9680 -0.4942
  935TIP3    H224297   6.380   5.250   4.451  1.4208  2.5531 -0.5355
  936TIP3   OH224298   1.327   1.897  10.772  0.1832 -0.2113 -0.1202
  936TIP3    H124299   1.307   1.879  10.680  0.0396  0.6355 -0.2585
  936TIP3    H224300   1.250   1.865  10.820  0.5379 -1.2503 -0.2247
  937TIP3   OH224301   5.158   6.283  14.559 -0.1075 -0.1780 -0.3511
  937TIP3    H124302   5.173   6.245  14.473  3.1088  0.7067 -0.3090
  937TIP3    H224303   5.205   6.225  14.619 -0.4139  0.4413  0.5140
  938TIP3   OH224304   3.989   0.814  15.620  0.3314 -0.2262  1.2077
  938TIP3    H124305   4.000   0.909  15.610  1.3183 -0.3619  0.8335
  938TIP3    H224306   3.904   0.803  15.663  0.1331  0.8184  1.0943
  939TIP3   OH224307   5.895   6.486   1.393 -0.0253  0.2924 -0.4269
  939TIP3    H124308   5.935   6.475   1.479  1.1213  1.8905 -0.6984
  939TIP3    H224309   5.837   6.411   1.383 -2.4769  1.5082  2.9433
  940TIP3   OH224310   2.919   1.726  17.025 -0.4458 -0.5414  0.0165
  940TIP3    H124311   2.856   1.658  17.048 -0.7877 -0.0198  0.6402
  940TIP3    H224312   2.906   1.740  16.931  0.0930 -1.8026 -0.2623
  941TIP3   OH224313   1.900   5.341   0.158 -0.2512  0.3239  0.5382
  941TIP3    H124314   1.915   5.308   0.247 -0.2694 -0.0951  0.3903
  941TIP3    H224315   1.817   5.300   0.132  0.2721 -0.3706 -0.0537
  942TIP3   OH224316   2.744   2.177   6.599 -0.3681  0.0567  0.3140
  942TIP3    H124317   2.805   2.249   6.614  0.3415 -0.6506  0.8620
  942TIP3    H224318   2.683   2.181   6.673  0.8889 -1.1269  1.4698
  943TIP3   OH224319   6.291   2.027   1.226 -0.0490 -0.0137  0.2130
  943TIP3    H124320   6.228   2.088   1.188  0.8409  0.4204 -0.6081
  943TIP3    H224321   6.247   1.991   1.303 -1.2093  0.4338 -0.2280
  944TIP3   OH224322   4.014   6.308  13.814  0.4055  0.2412 -0.6025
  944TIP3    H124323   4.021   6.338  13.904  5.8648  0.1215 -0.6453
  944TIP3    H224324   4.012   6.389  13.762  0.3420  0.3403 -0.4481
  945TIP3   OH224325   5.767   3.755   0.412 -0.4446  0.1950 -0.1918
  945TIP3    H124326   5.764   3.685   0.477 -0.3985 -0.6388 -1.0635
  945TIP3    H224327   5.835   3.814   0.444 -0.0258 -0.4954  0.2351
  946TIP3   OH224328   5.208   1.699   2.093 -0.1104 -0.3289 -0.1631
  946TIP3    H124329   5.227   1.616   2.048 -0.3217 -0.2668 -0.3667
  946TIP3    H224330   5.167   1.673   2.175  0.2358 -0.4420 -0.0227
  947TIP3   OH224331   6.695   2.507  14.282  0.1945  0.3433  0.0561
  947TIP3    H124332   6.601   2.522  14.290  0.2929  1.3717 -0.5975
  947TIP3    H224333   6.705   2.464  14.197  0.2373 -0.6279  0.5357
  948TIP3   OH224334   1.532   6.042   2.146 -0.6432 -0.0249 -0.3444
  948TIP3    H124335   1.513   6.134   2.163  2.9523  0.6870  0.6240
  948TIP3    H224336   1.533   6.001   2.232 -0.2761 -0.5351 -0.5838
  949TIP3   OH224337   3.626   5.016  16.291 -0.2209  0.1514 -0.3457
  949TIP3    H124338   3.700   5.052  16.340 -0.0347 -0.4223 -0.2025
  949TIP3    H224339   3.550   5.066  16.322  0.0933  0.7042 -0.4534
  950TIP3   OH224340   0.546   1.838   3.177 -0.4401 -0.1921  0.2384
  950TIP3    H124341   0.604   1.826   3.252 -1.5755 -1.2105  1.0010
  950TIP3    H224342   0.604   1.868   3.107  0.5859  1.2611  1.6145
  951TIP3   OH224343   6.493   6.696   3.297 -0.2031 -0.1572  0.0186
  951TIP3    H124344   6.448   6.648   3.228 -1.8607 -1.8571  2.1096
  951TIP3    H224345   6.426   6.710   3.364  2.1196 -2.4263  3.1534
  952TIP3   OH224346   4.876   5.953  16.467 -0.0562 -0.7293 -0.6953
  952TIP3    H124347   4.872   5.902  16.386 -0.1108 -0.4158 -0.8935
  952TIP3    H224348   4.966   5.983  16.472  0.0422 -1.0639 -0.4393
  953TIP3   OH224349   1.397   6.808   0.803  0.7615  0.3275  0.3902
  953TIP3    H124350   1.449   6.816   0.883  2.4339  0.0936 -0.6210
  953TIP3    H224351   1.399   6.896   0.765 -1.9882  1.0435  1.7000
  954TIP3   OH224352   6.030   2.084  11.672 -0.1884 -0.3470 -0.2951
  954TIP3    H124353   6.083   2.136  11.612  0.0072  1.5953  1.4417
  954TIP3    H224354   5.940   2.096  11.642 -0.1787  1.2870  0.2063
  955TIP3   OH224355   3.143   6.261  15.689  0.3225  0.4021  0.0012
  955TIP3    H124356   3.153   6.269  15.784 -0.7461  2.1035  0.0159
  955TIP3    H224357   3.232   6.267  15.655  0.7371 -0.3853  0.8744
  956TIP3   OH224358   0.996   5.016   1.813  0.2963 -0.0308  0.4359
  956TIP3    H124359   0.920   5.040   1.866  1.8179 -0.8420  3.1713
  956TIP3    H224360   0.993   4.921   1.807  0.5183  0.0048 -0.3971
  957TIP3   OH224361   3.519   0.935  13.601  0.0069 -0.3771  0.3477
  957TIP3    H124362   3.584   0.919  13.669  1.2267  2.0391 -0.1568
  957TIP3    H224363   3.570   0.952  13.522 -1.3579 -1.6944 -0.8699
  958TIP3   OH224364   3.309   1.337   0.438 -0.5092 -0.3112  0.4164
  958TIP3    H124365   3.337   1.305   0.524  0.1589  1.3646  0.8656
  958TIP3    H224366   3.292   1.258   0.387 -0.0268 -1.3455  1.7982
  959TIP3   OH224367   2.542   6.454   4.010  0.0796 -0.0866 -0.3433
  959TIP3    H124368   2.451   6.483   4.021  0.2393  0.0936  0.5633
  959TIP3    H224369   2.536   6.383   3.946 -0.8060 -0.5893  0.2659
  960TIP3   OH224370   5.329   2.573  12.503 -0.5027  0.2966  0.3766
  960TIP3    H124371   5.396   2.581  12.571  0.3707  0.2422 -0.4594
  960TIP3    H224372   5.296   2.484  12.513  3.7793 -2.0533 -2.9039
  961TIP3   OH224373   4.680   2.457  15.763  0.0538 -0.5994 -0.4579
  961TIP3    H124374   4.657   2.409  15.684  0.4297 -0.2236 -0.7973
  961TIP3    H224375   4.770   2.485  15.750 -0.5153  1.2248 -0.7950
  962TIP3   OH224376   6.756   3.728  12.737 -0.3080 -0.2744 -0.2947
  962TIP3    H124377   6.832   3.746  12.793 -0.8893 -0.8637  0.7175
  962TIP3    H224378   6.771   3.781  12.659  0.5197  0.6095  0.4302
  963TIP3   OH224379   1.335   2.432   3.422  0.3174  0.2429 -0.4167
  963TIP3    H124380   1.428   2.456   3.428  0.6836 -1.1851 -0.0816
  963TIP3    H224381   1.305   2.472   3.340  0.5932  2.6890  0.5807
  964TIP3   OH224382   3.631   1.092  15.923  0.0784  0.3365  0.0932
  964TIP3    H124383   3.707   1.074  15.868  2.5085  0.7810  3.0285
  964TIP3    H224384   3.557   1.058  15.874  2.3772 -1.9998 -2.0535
  965TIP3   OH224385   1.264   5.322  14.106 -0.3671 -0.3791 -0.7765
  965TIP3    H124386   1.187   5.268  14.127 -0.8495  0.5446 -0.1044
  965TIP3    H224387   1.263   5.391  14.172  0.0761  0.6109 -1.7827
  966TIP3   OH224388   5.047   2.725  13.350  0.1044  0.3242 -0.1382
  966TIP3    H124389   5.104   2.768  13.415  0.1535  1.0536 -0.6593
  966TIP3    H224390   4.973   2.785  13.340 -0.0774  0.0419 -0.4915
  967TIP3   OH224391   2.677   3.119   1.398 -0.0862 -0.6864 -0.5426
  967TIP3    H124392   2.584   3.119   1.418 -0.1608 -1.9754 -0.7969
  967TIP3    H224393   2.719   3.086   1.477 -0.0998 -2.6009 -1.2706
  968TIP3   OH224394   3.592   5.006   4.342 -0.1099 -0.1462  0.3224
  968TIP3    H124395   3.578   5.100   4.354 -0.7339 -0.2122  0.1328
  968TIP3    H224396   3.541   4.965   4.411 -0.9383 -0.3910 -0.4135
  969TIP3   OH224397   2.686   3.270   3.590  0.6105  0.2731  0.4427
  969TIP3    H124398   2.716   3.244   3.502  1.0479 -0.4497  0.7922
  969TIP3    H224399   2.592   3.258   3.588  0.4456  1.4623 -0.3139
  970TIP3   OH224400   5.159   1.699  16.936 -0.1277 -0.0914 -0.0557
  970TIP3    H124401   5.152   1.640  16.861  0.7069 -0.2821  0.0078
  970TIP3    H224402   5.229   1.760  16.913 -1.4995  1.3866 -0.4426
  971TIP3   OH224403   2.503   1.255   5.780 -0.4423 -0.2374  0.0164
  971TIP3    H124404   2.499   1.294   5.693  1.1841  1.1333  0.4913
  971TIP3    H224405   2.427   1.289   5.826  1.0045  2.7353  0.4773
  972TIP3   OH224406   4.419   2.394  14.408 -0.3084 -0.5367  0.6297
  972TIP3    H124407   4.510   2.374  14.427 -0.1554 -0.6039 -0.1407
  972TIP3    H224408   4.422   2.457  14.336 -0.8821 -2.1396 -0.8812
  973TIP3   OH224409   3.864   2.802  14.751  0.3732  0.5545  0.8222
  973TIP3    H124410   3.788   2.797  14.694  1.6951 -1.9764 -0.9419
  973TIP3    H224411   3.897   2.891  14.740  0.8921  0.0688 -2.9496
  974TIP3   OH224412   1.506   6.009  13.511 -0.2086 -0.4312  0.5214
  974TIP3    H124413   1.532   6.043  13.426 -1.7522 -1.2845 -0.3174
  974TIP3    H224414   1.568   5.938  13.528  1.0002  0.6405  0.8154
  975TIP3   OH224415   1.492   0.641   0.637  0.8387 -0.8469 -0.4799
  975TIP3    H124416   1.587   0.656   0.637  0.6335  0.6827  0.1918
  975TIP3    H224417   1.481   0.555   0.677  2.0553 -2.2096 -2.8810
  976TIP3   OH224418   4.017   3.841  14.954  0.5550 -1.0923  0.4191
  976TIP3    H124419   3.954   3.862  14.885  2.0218 -0.6692 -0.8592
  976TIP3    H224420   4.047   3.753  14.933  1.9147 -0.4963 -0.2521
  977TIP3   OH224421   5.942   0.906   0.521  0.0733  0.3213 -0.0798
  977TIP3    H124422   6.008   0.858   0.470 -0.0825  1.8068 -1.7870
  977TIP3    H224423   5.869   0.917   0.460 -0.0456  2.3758  0.3702
  978TIP3   OH224424   5.437   0.039   4.154  0.2514 -0.5140 -0.0784
  978TIP3    H124425   5.456  -0.045   4.112 -1.1036 -1.2491  0.7271
  978TIP3    H224426   5.466   0.029   4.244 -0.1606 -0.2030  0.0920
  979TIP3   OH224427   1.470   1.219   3.577 -0.4372  0.1223 -0.3953
  979TIP3    H124428   1.530   1.148   3.555 -0.2037 -0.5126  1.9291
  979TIP3    H224429   1.409   1.223   3.504  1.5312 -0.2048 -2.1305
  980TIP3   OH224430   4.311   5.357   1.016 -0.1539 -0.3390  0.6395
  980TIP3    H124431   4.327   5.452   1.021 -0.9727 -0.1497 -0.0684
  980TIP3    H224432   4.398   5.319   1.011  0.1791  0.4058  0.5341
  981TIP3   OH224433   3.984   5.510  15.286  0.1537 -0.3673  0.3245
  981TIP3    H124434   3.951   5.490  15.198 -2.0889  1.7702  0.5403
  981TIP3    H224435   4.045   5.582  15.272 -1.0958  0.7751  0.5595
  982TIP3   OH224436   3.553   6.027   0.662  0.5352  0.1496 -0.0896
  982TIP3    H124437   3.495   6.011   0.737  0.7538  1.5001  0.4049
  982TIP3    H224438   3.586   6.116   0.676 -0.2961  0.9085 -2.3537
  983TIP3   OH224439   1.009   5.439   5.565 -0.7470 -0.0755  0.1435
  983TIP3    H124440   1.079   5.493   5.600 -1.5966  1.0528  0.1809
  983TIP3    H224441   0.933   5.461   5.619 -0.6405 -3.0168  1.6738
  984TIP3   OH224442   5.533   1.741   4.918 -0.1220  0.3038 -0.3948
  984TIP3    H124443   5.627   1.755   4.927  0.2937 -2.0141 -0.3006
  984TIP3    H224444   5.497   1.755   5.005  0.6570 -1.7726  0.3155
  985TIP3   OH224445   1.261   2.695  14.221  0.1258 -0.6885  0.2219
  985TIP3    H124446   1.301   2.694  14.308  0.4204  2.0014  0.1934
  985TIP3    H224447   1.200   2.769  14.223 -0.0189 -0.7023 -1.7934
  986TIP3   OH224448   2.696   1.821  14.699  0.8957 -0.4139  0.5808
  986TIP3    H124449   2.633   1.884  14.734  0.7392  0.2214 -0.7674
  986TIP3    H224450   2.643   1.746  14.673  0.3783  0.7552 -2.0613
  987TIP3   OH224451   5.027   0.937   3.141 -0.4905  0.0545 -0.0275
  987TIP3    H124452   4.938   0.910   3.163 -0.1985 -0.9171 -0.0050
  987TIP3    H224453   5.017   0.989   3.061 -1.1931  0.8984  0.6012
  988TIP3   OH224454   5.126   3.284  13.663  0.3929  0.2908 -0.1559
  988TIP3    H124455   5.193   3.221  13.687  1.1260  0.8252 -0.7593
  988TIP3    H224456   5.141   3.301  13.570 -1.9816 -1.2642 -0.9159
  989TIP3   OH224457   4.137   1.531  13.808 -0.1965 -0.9118  0.4001
  989TIP3    H124458   4.173   1.473  13.741  0.3862  0.0274 -0.1196
  989TIP3    H224459   4.060   1.571  13.766  1.2598  1.1336 -0.4497
  990TIP3   OH224460   1.401   6.620   6.310 -0.0385 -0.2716  0.2710
  990TIP3    H124461   1.329   6.679   6.331  0.5749  1.2136 -1.5120
  990TIP3    H224462   1.446   6.606   6.393 -1.1509  0.4850  1.0237
  991TIP3   OH224463   1.226   5.260  12.861 -0.0297  0.6512 -0.0873
  991TIP3    H124464   1.287   5.314  12.911 -0.5155  1.1198  0.0181
  991TIP3    H224465   1.149   5.253  12.917  0.0434 -0.2070 -0.0791
  992TIP3   OH224466   4.266   0.904   3.228 -0.1415  0.5163 -0.0484
  992TIP3    H124467   4.194   0.963   3.205 -0.7913 -0.6478 -1.1450
  992TIP3    H224468   4.236   0.818   3.199  0.4253 -0.5286  2.2318
  993TIP3   OH224469   4.394   5.323  10.687 -0.8382  0.4436  0.3367
  993TIP3    H124470   4.405   5.416  10.708  2.8619  0.2694 -0.1493
  993TIP3    H224471   4.422   5.278  10.767 -2.0738 -0.2669  0.3760
  994TIP3   OH224472   1.206   3.962   0.135 -0.5407 -0.3370 -0.0967
  994TIP3    H124473   1.145   3.913   0.191 -1.5050 -0.7512 -1.4455
  994TIP3    H224474   1.278   3.902   0.120  1.4355  0.8912  3.2883
  995TIP3   OH224475   5.554   5.547  12.929 -0.3024 -0.3139 -0.0252
  995TIP3    H124476   5.623   5.520  12.870  1.8521  1.8952  1.2794
  995TIP3    H224477   5.518   5.627  12.890  1.3215  1.3187  1.6179
  996TIP3   OH224478   4.032   2.109   1.358  0.2715 -0.2269  0.1366
  996TIP3    H124479   4.076   2.028   1.329 -1.2264 -1.5407  1.3803
  996TIP3    H224480   4.036   2.166   1.281 -2.4492 -3.0803 -2.4031
  997TIP3   OH224481   6.366   4.242   5.707 -0.0465 -0.3230  0.3788
  997TIP3    H124482   6.430   4.310   5.731 -0.2852  0.0820 -0.1046
  997TIP3    H224483   6.281   4.284   5.719 -0.2030  0.4454 -2.4992
  998TIP3   OH224484   3.481   4.471   3.819 -0.7274  0.4871 -0.2104
  998TIP3    H124485   3.406   4.481   3.761 -0.7361  1.1777 -0.0952
  998TIP3    H224486   3.549   4.525   3.780 -0.0604 -0.6610 -0.6730
  999TIP3   OH224487   6.453   0.431  10.446 -0.2381  0.4807  0.2373
  999TIP3    H124488   6.364   0.466  10.457 -0.6097 -0.0159 -0.9880
  999TIP3    H224489   6.484   0.470  10.365 -0.7609 -2.1263 -1.3062
 1000TIP3   OH224490   0.754   6.201  16.094  0.5495 -0.2708 -0.0283
 1000TIP3    H124491   0.793   6.271  16.041 -1.6476  1.3471  0.3650
 1000TIP3    H224492   0.710   6.145  16.031 -1.0807  1.0046 -0.0880
 1001TIP3   OH224493   0.357   4.912  12.115  0.3185  0.1948 -0.0909
 1001TIP3    H124494   0.278   4.863  12.138  1.3527 -1.8912 -0.7148
 1001TIP3    H224495   0.342   5.000  12.149 -2.1040 -0.2353  0.1230
 1002TIP3   OH224496   1.488   5.447  15.385 -0.3957  0.2306 -0.2302
 1002TIP3    H124497   1.431   5.489  15.449 -1.0042  0.4721 -0.9157
 1002TIP3    H224498   1.491   5.508  15.312 -1.2482 -0.8700 -1.2121
 1003TIP3   OH224499   3.548   1.941  12.630  0.1165  0.4659  0.1075
 1003TIP3    H124500   3.561   2.017  12.573  0.5546  0.6788  0.4936
 1003TIP3    H224501   3.595   1.870  12.586  0.3229  0.5915  0.1256
 1004TIP3   OH224502   2.974   0.494  14.035  0.4209  0.0222  0.0080
 1004TIP3    H124503   2.962   0.437  13.959 -0.3972 -0.0865  0.1999
 1004TIP3    H224504   3.030   0.565  14.004 -0.8409  0.5993 -1.0479
 1005TIP3   OH224505   4.809   1.311  16.056 -0.1405 -0.4103  0.4325
 1005TIP3    H124506   4.840   1.233  16.101 -0.5170 -0.3695  0.7673
 1005TIP3    H224507   4.792   1.374  16.126  2.4211  0.8274  0.0750
 1006TIP3   OH224508   5.073   6.671   1.559 -0.4712  0.4077  0.1372
 1006TIP3    H124509   4.979   6.667   1.542 -0.5261 -0.2294  0.5523
 1006TIP3    H224510   5.113   6.635   1.481 -0.6803 -1.5253  0.8729
 1007TIP3   OH224511   4.620   0.922  12.082 -0.2445  0.4400 -0.4070
 1007TIP3    H124512   4.670   0.858  12.134 -0.6616  0.7233  0.3638
 1007TIP3    H224513   4.685   0.989  12.059  0.1341 -0.1164 -0.9910
 1008TIP3   OH224514   3.842   1.679   5.777 -0.1373 -0.1704 -0.2251
 1008TIP3    H124515   3.778   1.626   5.825  1.0050  0.3352  1.9854
 1008TIP3    H224516   3.918   1.622   5.767  0.1743  0.2176 -0.0983
 1009TIP3   OH224517   5.944   1.105   1.973  0.2798 -0.4590  0.6883
 1009TIP3    H124518   5.922   1.186   1.928  2.7098  0.0183  0.2175
 1009TIP3    H224519   5.964   1.043   1.903  0.8456 -0.7068  1.0599
 1010TIP3   OH224520   4.312   4.324  14.572  0.1416  0.2722  0.1937
 1010TIP3    H124521   4.401   4.311  14.603 -0.0474  0.9347  1.0672
 1010TIP3    H224522   4.263   4.351  14.650 -0.8565 -0.2281 -0.2386
 1011TIP3   OH224523   0.312   3.901  10.505 -0.0344 -0.6096  0.2621
 1011TIP3    H124524   0.221   3.931  10.498 -0.6631 -2.1956  1.2512
 1011TIP3    H224525   0.306   3.809  10.530  1.8604 -0.8101  0.1596
 1012TIP3   OH224526   3.390   0.244   5.983 -0.6387 -0.8239 -0.0455
 1012TIP3    H124527   3.393   0.335   6.013  0.4325 -0.3677 -1.4302
 1012TIP3    H224528   3.391   0.192   6.064 -1.2674  0.3791  0.7675
 1013TIP3   OH224529   1.603   6.621  10.642 -0.3936  0.1129 -0.2864
 1013TIP3    H124530   1.687   6.617  10.686  0.3052 -1.9786 -1.6244
 1013TIP3    H224531   1.545   6.566  10.695 -0.3242 -0.1361 -0.4648
 1014TIP3   OH224532   1.756   2.382   0.044 -0.3103  0.3346  0.4565
 1014TIP3    H124533   1.827   2.409   0.101  0.1665 -0.1486  0.1049
 1014TIP3    H224534   1.749   2.288   0.057  1.4017 -0.2474 -1.9684
 1015TIP3   OH224535   2.116   1.722  11.813  0.3671 -0.2256  0.0092
 1015TIP3    H124536   2.142   1.802  11.857 -0.3812  0.5213 -0.8608
 1015TIP3    H224537   2.193   1.665  11.818  0.9144  0.5604  0.6030
 1016TIP3   OH224538   1.874   5.635   1.406 -0.1097  0.1269  0.5406
 1016TIP3    H124539   1.839   5.646   1.495  0.1364  3.2127  0.3806
 1016TIP3    H224540   1.847   5.715   1.360  3.0031  0.4459 -1.0087
 1017TIP3   OH224541   4.392   2.206   4.763 -0.1088  0.4176 -0.1842
 1017TIP3    H124542   4.359   2.116   4.770  0.1684  0.4203  2.0526
 1017TIP3    H224543   4.392   2.224   4.669  2.8154 -3.0221 -1.0840
 1018TIP3   OH224544   1.126   0.590   4.551  0.3463 -0.0066 -0.1400
 1018TIP3    H124545   1.139   0.510   4.499  0.7358  0.3601 -0.6128
 1018TIP3    H224546   1.203   0.643   4.533 -0.2270  0.7654 -0.3472
 1019TIP3   OH224547   3.517   2.478   4.212 -0.2754 -0.0777  0.6865
 1019TIP3    H124548   3.603   2.514   4.233  0.0156  0.1619 -0.8101
 1019TIP3    H224549   3.506   2.406   4.274  1.6808 -1.1068 -0.0571
 1020TIP3   OH224550   0.884   0.885   1.988  1.0255 -0.3965 -0.0509
 1020TIP3    H124551   0.831   0.874   2.067  0.3803  0.6103 -0.3249
 1020TIP3    H224552   0.837   0.836   1.921 -0.2127  1.3705 -0.5560
 1021TIP3   OH224553   1.830   5.153  11.737  0.0149 -0.5785 -0.0960
 1021TIP3    H124554   1.858   5.102  11.660 -0.4338 -0.0862 -0.5966
 1021TIP3    H224555   1.896   5.221  11.746  1.2657 -1.9048  1.2822
 1022TIP3   OH224556   3.785   1.279  14.688  0.0193 -0.2390 -0.2238
 1022TIP3    H124557   3.691   1.290  14.704  0.0513 -0.4195  0.0915
 1022TIP3    H224558   3.825   1.279  14.775  0.2899 -0.3556 -0.3469
 1023TIP3   OH224559   3.502   4.565  14.981  0.2184 -0.4317  0.0368
 1023TIP3    H124560   3.563   4.566  15.055 -0.4172  0.1252  0.5617
 1023TIP3    H224561   3.416   4.551  15.021  0.0830 -2.1836 -0.7759
 1024TIP3   OH224562   5.863   2.956  11.949 -0.1606  0.6506  0.3533
 1024TIP3    H124563   5.893   3.040  11.915 -0.2864  0.4853 -0.1663
 1024TIP3    H224564   5.775   2.974  11.982 -0.7700  0.4087 -1.0696
 1025TIP3   OH224565   0.047   2.924   4.552  0.3129  0.2258  0.4819
 1025TIP3    H124566   0.103   3.001   4.554  0.4439  0.1488 -0.1106
 1025TIP3    H224567  -0.021   2.945   4.489  1.5735 -0.9602 -1.3798
 1026TIP3   OH224568   3.723   2.570   5.473 -0.2711  0.1718  0.3778
 1026TIP3    H124569   3.803   2.571   5.525  1.7193 -0.7371 -2.4078
 1026TIP3    H224570   3.753   2.561   5.382 -3.5106  0.8103 -0.9251
 1027TIP3   OH224571   2.519   3.104  15.493 -0.2377  0.1589 -0.1516
 1027TIP3    H124572   2.566   3.021  15.496 -1.6487 -0.7204 -1.0084
 1027TIP3    H224573   2.507   3.128  15.585  3.0735  1.2087  0.1380
 1028TIP3   OH224574   1.464   2.796   4.042 -0.2980 -0.1150 -0.1429
 1028TIP3    H124575   1.548   2.776   4.083  0.3813  2.0731 -0.3588
 1028TIP3    H224576   1.485   2.808   3.949 -0.8836  0.2571 -0.2300
 1029TIP3   OH224577   0.645   6.813  16.695 -0.3667 -0.1802 -0.1759
 1029TIP3    H124578   0.705   6.832  16.767  0.1121 -1.6746 -0.1620
 1029TIP3    H224579   0.691   6.749  16.641 -1.5745 -0.6729 -0.6582
 1030TIP3   OH224580   3.405   4.365   0.634 -0.2016 -0.4319 -0.7315
 1030TIP3    H124581   3.377   4.283   0.592  1.2943  0.0369 -2.8123
 1030TIP3    H224582   3.447   4.336   0.715 -0.1566 -1.6942 -1.1757
 1031TIP3   OH224583   1.302   4.109  11.264 -0.4068 -0.1519 -0.4027
 1031TIP3    H124584   1.381   4.153  11.235 -0.6929  0.5183 -0.1905
 1031TIP3    H224585   1.231   4.153  11.218 -1.0036  1.8790  2.2293
 1032TIP3   OH224586   3.013   1.737  10.951 -0.5058 -0.5613 -0.4060
 1032TIP3    H124587   3.006   1.759  10.859  0.7370 -0.0113 -0.3808
 1032TIP3    H224588   3.000   1.820  10.997 -2.3155 -1.0197 -0.0056
 1033TIP3   OH224589   1.574   1.458   2.584  0.3367 -0.1393 -0.3133
 1033TIP3    H124590   1.627   1.491   2.657 -0.9227  0.6463  0.2823
 1033TIP3    H224591   1.638   1.443   2.514  1.2496  1.7828  0.0199
 1034TIP3   OH224592   5.917   3.374   6.122  0.2160 -0.0624  0.4978
 1034TIP3    H124593   5.933   3.320   6.200  0.2617  0.4011  0.8125
 1034TIP3    H224594   5.903   3.462   6.156 -2.0633 -0.2457  0.1824
 1035TIP3   OH224595   4.806   3.774  14.925 -0.4993  0.4658 -0.3495
 1035TIP3    H124596   4.735   3.716  14.898 -0.7263  0.5537  0.0494
 1035TIP3    H224597   4.885   3.723  14.911 -0.5343  0.8276 -2.0246
 1036TIP3   OH224598   4.161   3.397   2.819 -0.4040  0.2429  0.3612
 1036TIP3    H124599   4.155   3.380   2.913 -1.5199 -2.5720 -0.1263
 1036TIP3    H224600   4.252   3.423   2.805 -0.1294  0.3536  2.1553
 1037TIP3   OH224601   0.280   2.326  12.829  0.8639  0.1700  0.2842
 1037TIP3    H124602   0.236   2.408  12.808  0.5591  0.2501  1.1981
 1037TIP3    H224603   0.337   2.347  12.903  2.0857 -0.0482 -0.5766
 1038TIP3   OH224604   3.151   2.682   5.110  0.4433 -0.3735 -0.5120
 1038TIP3    H124605   3.217   2.660   5.176  0.8066 -0.3353 -0.8596
 1038TIP3    H224606   3.096   2.749   5.152  1.0523  0.1086 -0.4678
 1039TIP3   OH224607   0.116   1.978   0.703 -0.4034  0.0335  0.1150
 1039TIP3    H124608   0.173   2.054   0.701  1.2543 -1.1509 -0.6501
 1039TIP3    H224609   0.159   1.917   0.764 -0.8661 -0.8527 -0.4145
 1040TIP3   OH224610   4.280   4.154  13.634  0.2955 -0.1263 -0.8177
 1040TIP3    H124611   4.333   4.091  13.683 -0.9088 -1.4132 -1.1057
 1040TIP3    H224612   4.191   4.141  13.665 -0.2011  0.4289 -1.9255
 1041TIP3   OH224613   5.614   4.186   5.409 -0.9259  0.0876  0.0376
 1041TIP3    H124614   5.601   4.091   5.399 -0.1997 -0.3321  2.3835
 1041TIP3    H224615   5.624   4.218   5.319  0.4686 -2.3204 -0.7822
 1042TIP3   OH224616   0.633   2.937  14.078 -0.6268 -0.4335 -0.0424
 1042TIP3    H124617   0.723   2.956  14.103 -0.1736  0.9728 -2.4679
 1042TIP3    H224618   0.597   2.891  14.154  1.6395  0.3166  1.6148
 1043TIP3   OH224619   3.734   1.018  12.821  0.1822  0.1276  0.3922
 1043TIP3    H124620   3.642   0.992  12.812  0.4657 -0.6139 -0.6352
 1043TIP3    H224621   3.768   0.961  12.889  0.4273 -1.2669 -0.8270
 1044TIP3   OH224622   4.798   3.991  14.171 -0.3297  0.4025  0.1107
 1044TIP3    H124623   4.873   3.936  14.148 -1.0658  0.0889 -1.7164
 1044TIP3    H224624   4.733   3.931  14.206 -0.3549  0.4170  0.0895
 1045TIP3   OH224625   5.859   1.354  11.656 -0.0192  0.3764  0.3538
 1045TIP3    H124626   5.784   1.342  11.598  0.9286 -0.8806 -0.6707
 1045TIP3    H224627   5.909   1.424  11.616 -1.0679  1.8584  1.5373
 1046TIP3   OH224628   2.694   2.426   3.695  0.4726 -0.0496  0.2095
 1046TIP3    H124629   2.772   2.474   3.667 -0.4366  2.2956  1.3533
 1046TIP3    H224630   2.623   2.489   3.685 -1.0902 -1.7422  0.2830
 1047TIP3   OH224631   3.418   3.109  13.947  0.4529  0.3627 -0.2474
 1047TIP3    H124632   3.326   3.088  13.933  0.1904  1.4566 -0.3127
 1047TIP3    H224633   3.448   3.047  14.013 -0.3127 -0.0561 -0.2907
 1048TIP3   OH224634   3.625   5.407  11.112 -0.0958  0.3422 -0.1995
 1048TIP3    H124635   3.653   5.465  11.040 -2.7905  0.9496 -0.8821
 1048TIP3    H224636   3.613   5.322  11.070 -0.5656  0.4204 -0.2287
 1049TIP3   OH224637   6.715   0.710   5.762 -0.1926 -0.1264 -0.0442
 1049TIP3    H124638   6.766   0.713   5.843 -0.8183 -1.3221  0.4105
 1049TIP3    H224639   6.781   0.697   5.693  0.2632  0.0941  0.3397
 1050TIP3   OH224640   2.424   3.275   4.428 -0.5272  0.0653  0.5040
 1050TIP3    H124641   2.486   3.320   4.486 -0.9250 -0.9026  1.7420
 1050TIP3    H224642   2.369   3.224   4.488 -0.8724 -1.0904 -0.7536
 1051TIP3   OH224643   1.857   5.054  10.516 -0.2080  0.0180  0.1526
 1051TIP3    H124644   1.934   5.028  10.466  2.1456  1.9910  2.4726
 1051TIP3    H224645   1.784   5.008  10.474  2.0756 -1.3354 -2.6482
 1052TIP3   OH224646   0.307   0.704  15.852  0.0590 -0.0918 -0.1898
 1052TIP3    H124647   0.362   0.760  15.797 -0.6180  0.7358 -0.0431
 1052TIP3    H224648   0.272   0.763  15.919 -0.9514 -0.6072 -0.2420
 1053TIP3   OH224649   6.401   2.557  13.591 -0.8027  0.5824 -0.5060
 1053TIP3    H124650   6.444   2.577  13.674  3.5793 -0.1623 -2.3415
 1053TIP3    H224651   6.398   2.641  13.544 -0.1288  0.4163 -0.8584
 1054TIP3   OH224652   6.539   3.989  13.917  0.6311  0.1777  0.5040
 1054TIP3    H124653   6.583   3.974  13.833 -0.8860 -3.8419  0.2399
 1054TIP3    H224654   6.469   4.051  13.896  2.2722  1.8781 -0.3373
 1055TIP3   OH224655   1.342   4.084  12.265 -0.2074  0.5257  0.1855
 1055TIP3    H124656   1.284   4.014  12.293 -1.8194  1.8190  0.1910
 1055TIP3    H224657   1.363   4.063  12.174  0.5633 -0.7332  0.6229
 1056TIP3   OH224658   2.899   6.105   4.917  0.7018 -0.4150 -0.0563
 1056TIP3    H124659   2.881   6.140   5.004  2.3239 -1.3820  0.7184
 1056TIP3    H224660   2.843   6.027   4.910  0.3725 -0.1862 -0.0032
 1057TIP3   OH224661   2.698   3.763   2.669 -0.2746 -0.3903 -0.2062
 1057TIP3    H124662   2.689   3.801   2.757  1.5299  2.2304 -1.0078
 1057TIP3    H224663   2.652   3.824   2.612  0.8305 -0.6000 -1.3517
 1058TIP3   OH224664   6.604   6.080  14.692  0.3365  0.5080 -0.1652
 1058TIP3    H124665   6.587   6.036  14.776  1.0463 -0.1728 -0.3624
 1058TIP3    H224666   6.525   6.130  14.675 -0.8987 -1.3714 -0.3227
 1059TIP3   OH224667   1.748   0.112  14.031 -0.3469  0.0668  0.0411
 1059TIP3    H124668   1.655   0.091  14.044 -0.5081  0.6316 -0.1693
 1059TIP3    H224669   1.763   0.093  13.938 -0.7295  1.7211 -0.3827
 1060TIP3   OH224670   2.855   6.427  12.157  0.3220 -0.2224  0.2432
 1060TIP3    H124671   2.922   6.370  12.194  1.3761  1.1240  0.4662
 1060TIP3    H224672   2.898   6.472  12.085 -0.6827 -0.1655 -0.3386
 1061TIP3   OH224673   0.820   1.956   0.726 -0.0991  0.7254  0.5380
 1061TIP3    H124674   0.862   2.034   0.689 -0.2910  0.4711 -0.2249
 1061TIP3    H224675   0.824   1.970   0.820  2.9869  0.0577  0.5911
 1062TIP3   OH224676   2.790   5.683   3.526 -0.1679 -0.8480  0.4833
 1062TIP3    H124677   2.767   5.689   3.619  0.5964 -0.1021  0.6337
 1062TIP3    H224678   2.878   5.644   3.526 -0.0438 -0.5706  0.0886
 1063TIP3   OH224679   0.169   1.786   2.870 -0.2351  0.2222  0.4834
 1063TIP3    H124680   0.187   1.716   2.933 -1.6524  1.3760  2.2595
 1063TIP3    H224681   0.196   1.866   2.915 -2.8277  1.2546  0.3401
 1064TIP3   OH224682   4.350   0.194   4.450  0.3993 -0.1331 -0.2080
 1064TIP3    H124683   4.437   0.197   4.491 -0.2342 -1.5718  1.3583
 1064TIP3    H224684   4.292   0.238   4.512 -0.1985 -0.2680 -0.6594
 1065TIP3   OH224685   3.078   6.091  13.318 -0.2202  0.5114 -0.0638
 1065TIP3    H124686   3.085   6.090  13.414 -0.6380  0.4184 -0.0318
 1065TIP3    H224687   2.994   6.133  13.300 -1.6614 -2.2487 -0.2806
 1066TIP3   OH224688   0.964   4.707  10.938 -0.1520  0.1548 -0.3036
 1066TIP3    H124689   0.891   4.683  10.882 -1.4591  0.3424  1.2492
 1066TIP3    H224690   1.007   4.780  10.892 -1.3088  0.4479 -0.9491
 1067TIP3   OH224691   5.707   4.186  12.794 -0.2294 -0.1725  0.0198
 1067TIP3    H124692   5.638   4.197  12.728  0.1687  0.8735 -0.2475
 1067TIP3    H224693   5.663   4.203  12.877 -0.1562  1.2684 -0.2076
 1068TIP3   OH224694   4.123   0.903   3.802 -0.0500 -0.5202 -0.3293
 1068TIP3    H124695   4.113   0.870   3.891 -0.8914  0.6079  0.0193
 1068TIP3    H224696   4.033   0.920   3.772  0.2952  2.8526  0.0956
 1069TIP3   OH224697   2.428   3.512   3.646  0.1418  0.3733  0.2116
 1069TIP3    H124698   2.370   3.443   3.614  0.3198  0.5002 -0.3842
 1069TIP3    H224699   2.418   3.583   3.584  2.2541 -0.2349 -0.9225
 1070TIP3   OH224700   3.439   3.743  10.793  0.1349 -0.4290 -0.3519
 1070TIP3    H124701   3.348   3.720  10.813  0.5618 -2.9383 -0.9762
 1070TIP3    H224702   3.434   3.790  10.710 -0.6210  0.0001 -0.0753
 1071TIP3   OH224703   2.005   5.336   3.155  0.3697  0.0220  0.5693
 1071TIP3    H124704   1.937   5.269   3.166  1.3857 -1.1448  0.0313
 1071TIP3    H224705   1.972   5.393   3.085  0.5550 -1.3919 -0.7164
 1072TIP3   OH224706   6.791   0.659   2.613 -0.0531  0.5870 -0.4344
 1072TIP3    H124707   6.744   0.633   2.692 -0.0797  1.9327  0.0153
 1072TIP3    H224708   6.844   0.582   2.591  2.1926  1.0422  2.5704
 1073TIP3   OH224709   0.895   5.404   1.982  0.8436 -0.0852  0.0784
 1073TIP3    H124710   0.890   5.402   2.077 -0.7607 -2.0220  0.0103
 1073TIP3    H224711   0.976   5.358   1.961  0.7630 -0.4205  0.4930
 1074TIP3   OH224712   5.389   2.141  16.639 -0.2015  0.0424  0.2090
 1074TIP3    H124713   5.328   2.209  16.612 -1.9148 -2.3613 -2.6234
 1074TIP3    H224714   5.473   2.169  16.602 -0.4831  1.3960  0.5418
 1075TIP3   OH224715   2.751   4.438  16.289 -0.1320  0.3516  0.1458
 1075TIP3    H124716   2.812   4.512  16.279 -0.8406  1.1702  1.6210
 1075TIP3    H224717   2.729   4.437  16.382 -2.3124  0.0363 -0.3151
 1076TIP3   OH224718   3.032   1.277   2.854 -0.3293 -0.0682 -0.5866
 1076TIP3    H124719   2.969   1.346   2.877  1.2529  1.1373  0.3070
 1076TIP3    H224720   3.108   1.324   2.821 -0.1485 -1.5342 -2.4366
 1077TIP3   OH224721   4.831   1.920   4.541 -0.1092 -0.1954  0.5906
 1077TIP3    H124722   4.817   1.850   4.605 -0.6765  1.5105  2.3921
 1077TIP3    H224723   4.905   1.970   4.575 -0.7327  1.0277  0.2044
 1078TIP3   OH224724   1.581   4.906   2.369 -0.3032  0.4904 -0.5042
 1078TIP3    H124725   1.505   4.891   2.426  1.0244  0.5760  1.3732
 1078TIP3    H224726   1.608   4.818   2.341 -0.0555  0.3240  0.2470
 1079TIP3   OH224727   3.502   1.201  12.102  0.2057  0.2550 -0.4730
 1079TIP3    H124728   3.538   1.289  12.091  0.1264  0.4570  0.7140
 1079TIP3    H224729   3.562   1.159  12.164 -1.2989  0.4483  1.1937
 1080TIP3   OH224730   0.200   2.087  16.650 -0.2395  0.7692 -0.0542
 1080TIP3    H124731   0.241   2.174  16.652 -0.8296  1.0592 -0.3107
 1080TIP3    H224732   0.236   2.045  16.572 -0.7650  1.1972 -0.5389
 1081TIP3   OH224733   5.000   3.802   3.373 -0.3073  0.0986 -0.3070
 1081TIP3    H124734   5.047   3.747   3.310  0.1918  0.4007 -0.2025
 1081TIP3    H224735   4.954   3.740   3.429  0.6878 -0.2554  0.1529
 1082TIP3   OH224736   2.897   0.239  15.181  0.2399  0.0130 -0.4146
 1082TIP3    H124737   2.809   0.243  15.142  0.4570 -1.0540 -1.0533
 1082TIP3    H224738   2.916   0.330  15.205 -1.2496  0.1812  0.2337
 1083TIP3   OH224739   5.384   4.889   2.867  0.7289 -0.6873  0.2271
 1083TIP3    H124740   5.299   4.874   2.908  0.1527 -1.6497 -1.2155
 1083TIP3    H224741   5.430   4.948   2.927 -0.2795 -1.5242  1.8996
 1084TIP3   OH224742   0.534   6.233  15.700  0.3306 -0.0736 -0.5045
 1084TIP3    H124743   0.455   6.262  15.746  0.8789  2.1049 -0.8195
 1084TIP3    H224744   0.517   6.254  15.608  1.8564  1.9612 -0.3870
 1085TIP3   OH224745   4.090   5.050  11.331  0.3518  0.0767  0.5535
 1085TIP3    H124746   4.177   5.052  11.291  0.3165  1.0860  0.5093
 1085TIP3    H224747   4.102   5.090  11.417 -0.5633  2.8559 -0.5057
 1086TIP3   OH224748   1.529   1.601  13.565 -0.3161  0.3431 -0.7981
 1086TIP3    H124749   1.561   1.574  13.651 -0.6032  0.3233 -0.6982
 1086TIP3    H224750   1.480   1.525  13.533 -2.0324  1.1075 -0.0697
 1087TIP3   OH224751   6.747   3.593   1.017 -0.5037  0.0441  0.0410
 1087TIP3    H124752   6.794   3.668   0.982 -1.6267  0.7887  0.1067
 1087TIP3    H224753   6.815   3.526   1.028  0.2564  0.5299 -1.4359
 1088TIP3   OH224754   4.432   1.351  16.310  0.4614 -0.5581 -0.2316
 1088TIP3    H124755   4.514   1.302  16.317  1.1663  0.3970 -1.3764
 1088TIP3    H224756   4.434   1.388  16.222 -2.2860 -2.3906 -1.1935
 1089TIP3   OH224757   3.993   2.646   2.692 -0.3163  0.0814  0.0056
 1089TIP3    H124758   3.979   2.671   2.783 -1.7012  0.6486 -0.3323
 1089TIP3    H224759   3.905   2.633   2.657  0.0347  2.0984 -1.8542
 1090TIP3   OH224760   1.141   2.052   4.508 -0.0792  0.0886 -0.0384
 1090TIP3    H124761   1.124   2.128   4.563 -0.0719  0.4431 -0.5180
 1090TIP3    H224762   1.058   2.005   4.505  0.1970 -0.4991  1.1168
 1091TIP3   OH224763   3.181   2.191  11.280  0.4838 -0.1688 -0.1411
 1091TIP3    H124764   3.139   2.105  11.268  1.3712 -0.7847  0.9511
 1091TIP3    H224765   3.275   2.171  11.277  0.6983  0.6580  0.8590
 1092TIP3   OH224766   0.775   4.588   4.410  0.0931  0.1650 -0.2581
 1092TIP3    H124767   0.757   4.528   4.337 -0.0631 -0.7116  0.4813
 1092TIP3    H224768   0.701   4.576   4.470  0.6253  0.2623  0.4307
 1093TIP3   OH224769   3.830   0.543  15.207 -0.0920 -1.3707  0.3861
 1093TIP3    H124770   3.748   0.523  15.163 -0.2901 -1.4807  0.8137
 1093TIP3    H224771   3.828   0.638  15.218 -1.0342 -1.5676  2.1290
 1094TIP3   OH224772   1.375   3.807   3.357 -0.1692 -0.2401 -0.0775
 1094TIP3    H124773   1.378   3.889   3.309  0.4635  1.2935  2.3828
 1094TIP3    H224774   1.284   3.798   3.384 -0.1822 -0.1896 -0.1053
 1095TIP3   OH224775   1.414   1.296  14.209 -0.1875  0.1267 -0.3994
 1095TIP3    H124776   1.325   1.325  14.227  0.6249  2.0661  0.7919
 1095TIP3    H224777   1.467   1.337  14.277  1.5420 -1.6226 -0.6009
 1096TIP3   OH224778   3.114   6.567  12.823 -0.4319 -0.0884  0.0472
 1096TIP3    H124779   3.029   6.599  12.792 -1.2456  0.5934  2.6608
 1096TIP3    H224780   3.096   6.478  12.854 -0.4095  0.2771  1.1818
 1097TIP3   OH224781   0.141   3.861  11.687  0.1191 -0.2307  0.2253
 1097TIP3    H124782   0.187   3.777  11.687  2.1709  0.8440  0.4296
 1097TIP3    H224783   0.191   3.916  11.628 -1.3190  0.8153 -0.0701
 1098TIP3   OH224784   0.165   5.747   3.305  0.0347  1.0506  0.1473
 1098TIP3    H124785   0.167   5.813   3.375 -2.2990 -0.1105  1.4357
 1098TIP3    H224786   0.108   5.786   3.238 -0.1270  0.9817  0.2418
 1099TIP3   OH224787   6.600   5.297   1.848 -0.1385  0.4740  0.4224
 1099TIP3    H124788   6.663   5.270   1.914  0.5921  1.6545  0.2308
 1099TIP3    H224789   6.515   5.289   1.891  0.2797  0.5928  1.2915
 1100TIP3   OH224790   0.874   1.166  13.590 -0.0039  0.1621  0.2725
 1100TIP3    H124791   0.838   1.164  13.501  2.0956 -1.4140 -0.6543
 1100TIP3    H224792   0.937   1.093  13.591  0.1783  0.2758  3.0025
 1101TIP3   OH224793   2.128   3.934  12.388 -0.1761 -0.2267  0.4598
 1101TIP3    H124794   2.164   3.951  12.301  0.1422 -1.3183  0.3701
 1101TIP3    H224795   2.033   3.932  12.374 -0.2852  1.7658  0.5443
 1102TIP3   OH224796   4.570   4.521   5.395  0.7775  0.5789 -0.3513
 1102TIP3    H124797   4.521   4.486   5.320  0.5680 -0.6803  0.3507
 1102TIP3    H224798   4.660   4.494   5.379  0.8213  0.7448 -0.3905
 1103TIP3   OH224799   2.932   6.344   4.418 -0.8903  0.3315 -0.0540
 1103TIP3    H124800   3.023   6.367   4.399 -0.6263 -0.9981 -0.4799
 1103TIP3    H224801   2.883   6.370   4.340 -0.6144 -0.3890 -0.4782
 1104TIP3   OH224802   2.590   3.916   4.369  0.1160  0.6454 -0.0542
 1104TIP3    H124803   2.532   3.972   4.422 -0.0193 -0.3488  0.8664
 1104TIP3    H224804   2.566   3.827   4.393  3.1639  0.1549  1.6429
 1105TIP3   OH224805   5.951   1.624  12.397  0.7387 -0.1461  0.3676
 1105TIP3    H124806   6.012   1.563  12.439  2.3207  1.2547  0.2140
 1105TIP3    H224807   5.958   1.704  12.448 -2.0039 -0.2738  1.1437
 1106TIP3   OH224808   2.884   2.892   2.142 -0.1072 -0.1504  0.0119
 1106TIP3    H124809   2.790   2.906   2.131  0.1613  0.6933 -1.5789
 1106TIP3    H224810   2.923   2.979   2.130  0.9266 -0.6127 -0.1184
 1107TIP3   OH224811   1.122   3.673   2.428  0.0770  0.6416  0.2757
 1107TIP3    H124812   1.065   3.639   2.359 -0.2305  1.7145 -0.0121
 1107TIP3    H224813   1.134   3.765   2.406  2.4281  0.3111  0.0009
 1108TIP3   OH224814   1.814   0.638  11.327 -0.2752  0.0163  0.1313
 1108TIP3    H124815   1.888   0.622  11.270 -1.0318  0.5148 -1.0412
 1108TIP3    H224816   1.797   0.732  11.318 -1.8153 -0.3075 -0.6208
 1109TIP3   OH224817   3.952   3.833  14.462  0.8919  0.2534  0.4932
 1109TIP3    H124818   4.016   3.886  14.415  0.1907  0.9627  0.3123
 1109TIP3    H224819   3.991   3.818  14.548  0.6571  2.0147  0.9558
 1110TIP3   OH224820   1.383   1.543  11.927 -0.1462  0.2584 -0.2064
 1110TIP3    H124821   1.446   1.582  11.866  1.0711 -1.4624 -0.1289
 1110TIP3    H224822   1.303   1.534  11.876 -0.3138  2.2931 -0.3807
 1111TIP3   OH224823   3.246   5.591  16.911  0.2929 -0.2924  0.6286
 1111TIP3    H124824   3.312   5.575  16.979  0.8984 -0.8694 -0.0857
 1111TIP3    H224825   3.296   5.597  16.830 -0.4937 -0.3213  0.1325
 1112TIP3   OH224826   6.115   6.343   5.243 -0.2811  0.1264 -0.1931
 1112TIP3    H124827   6.193   6.286   5.242 -0.7047 -0.4941  0.6089
 1112TIP3    H224828   6.100   6.360   5.336 -1.5128 -0.3452 -0.2978
 1113TIP3   OH224829   6.259   4.685   0.580  0.0475 -0.3317 -0.2632
 1113TIP3    H124830   6.218   4.714   0.498 -0.5631 -1.2740 -0.3122
 1113TIP3    H224831   6.186   4.649   0.631  0.6905 -1.3290 -0.0232
 1114TIP3   OH224832   4.651   4.697   2.393 -0.7404 -0.4474 -0.0516
 1114TIP3    H124833   4.724   4.759   2.404 -0.8538 -0.0614 -1.3376
 1114TIP3    H224834   4.573   4.747   2.418 -0.7183 -0.3955 -0.0835
 1115TIP3   OH224835   3.810   5.284  11.545  0.0588 -0.6630  0.0765
 1115TIP3    H124836   3.748   5.272  11.616 -0.0819  0.6007  0.1745
 1115TIP3    H224837   3.758   5.274  11.465  0.0363 -1.1413  0.1482
 1116TIP3   OH224838   0.193   5.342   2.062 -0.1856  0.2005  0.9480
 1116TIP3    H124839   0.240   5.425   2.066  0.5435 -0.2006  0.8627
 1116TIP3    H224840   0.218   5.296   2.142  0.0816 -0.2892  0.5822
 1117TIP3   OH224841   3.323   1.207   0.700 -0.1617  0.2473  0.4646
 1117TIP3    H124842   3.355   1.160   0.777 -0.6917 -1.1249 -0.1085
 1117TIP3    H224843   3.262   1.146   0.659 -1.0372  1.5403 -0.2232
 1118TIP3   OH224844   3.162   6.553   1.356 -0.4268 -0.2112 -0.2907
 1118TIP3    H124845   3.136   6.463   1.337  0.0440 -0.6823  1.1394
 1118TIP3    H224846   3.177   6.593   1.270 -0.0601 -1.6709 -0.9325
 1119TIP3   OH224847   4.771   1.859   3.972  0.1069 -0.6223 -0.4901
 1119TIP3    H124848   4.690   1.897   4.008  1.1319  0.3870  0.8760
 1119TIP3    H224849   4.801   1.798   4.039  2.2534  1.5654  0.7130
 1120TIP3   OH224850   5.567   1.213  10.405 -0.6025 -0.0584  0.0920
 1120TIP3    H124851   5.495   1.159  10.438  0.1787 -2.7707 -2.2743
 1120TIP3    H224852   5.645   1.160  10.419  0.4874  1.3169 -0.5811
 1121TIP3   OH224853   1.547   4.759   0.365 -0.6362 -0.5491  0.4576
 1121TIP3    H124854   1.563   4.680   0.314  0.3359  1.4777 -2.6573
 1121TIP3    H224855   1.571   4.736   0.454 -0.1825 -3.6511 -0.3589
 1122TIP3   OH224856   3.317   5.539  12.720  0.2274 -0.0173 -0.4959
 1122TIP3    H124857   3.254   5.482  12.675 -0.7891  0.0406  0.7903
 1122TIP3    H224858   3.347   5.486  12.794  1.9689 -0.1602 -1.2649
 1123TIP3   OH224859   1.255   0.419   5.970  0.6934 -0.5639  0.1083
 1123TIP3    H124860   1.169   0.391   6.000  0.7284 -1.5767 -0.6619
 1123TIP3    H224861   1.282   0.485   6.033 -0.4187 -0.6090  0.6624
 1124TIP3   OH224862   0.039   1.645  12.260 -0.2872  0.4033  0.5537
 1124TIP3    H124863   0.112   1.687  12.305  1.4056 -1.2775 -0.4703
 1124TIP3    H224864  -0.039   1.673  12.309  1.1341  1.2497  2.4662
 1125TIP3   OH224865   0.574   0.482  11.007 -0.1431 -0.4218 -0.5092
 1125TIP3    H124866   0.622   0.505  11.086  0.0576  0.5633 -0.8886
 1125TIP3    H224867   0.601   0.549  10.943 -1.3885 -0.3326 -0.9719
 1126TIP3   OH224868   1.492   6.593  14.126  0.1114 -0.3095  0.2452
 1126TIP3    H124869   1.469   6.514  14.077  2.8114 -1.0040 -0.0340
 1126TIP3    H224870   1.408   6.636  14.142 -1.3969 -2.8817 -0.1599
 1127TIP3   OH224871   6.809   6.133  13.005 -0.1961 -0.1422 -0.2175
 1127TIP3    H124872   6.859   6.195  12.951 -0.4282 -0.0436 -0.3191
 1127TIP3    H224873   6.875   6.093  13.061  0.4298 -1.7684 -1.9839
 1128TIP3   OH224874   1.697   2.121   0.790  0.2236 -0.0522  0.1035
 1128TIP3    H124875   1.730   2.166   0.867 -1.0135  0.8928  0.1096
 1128TIP3    H224876   1.602   2.125   0.799  0.0588 -0.0471 -1.3983
 1129TIP3   OH224877   3.927   5.951  13.328 -0.2867  0.1633 -0.8054
 1129TIP3    H124878   3.883   5.943  13.243  0.5415 -2.3052 -1.0826
 1129TIP3    H224879   3.967   5.865  13.342  1.8262  1.3385  0.8730
 1130TIP3   OH224880   3.536   2.674  16.106 -0.3113  0.1596 -0.0665
 1130TIP3    H124881   3.615   2.712  16.145 -0.4977  0.7544 -0.2547
 1130TIP3    H224882   3.565   2.590  16.070 -0.1324 -0.4146  1.3588
 1131TIP3   OH224883   1.438   1.254   1.626  0.2190  0.2335 -0.6543
 1131TIP3    H124884   1.381   1.330   1.638  2.7114  2.1647 -0.2447
 1131TIP3    H224885   1.512   1.270   1.684  1.5840 -1.7432 -1.7284
 1132TIP3   OH224886   1.283   3.669  13.413  0.5879  0.2939  0.0322
 1132TIP3    H124887   1.213   3.646  13.474 -0.8801  1.7990 -0.9868
 1132TIP3    H224888   1.324   3.746  13.451 -1.3046  2.1623 -1.4687
 1133TIP3   OH224889   2.063   2.215   0.004  0.7829  0.1573  0.2003
 1133TIP3    H124890   2.013   2.166   0.070  0.1106  0.8231  0.2028
 1133TIP3    H224891   2.143   2.242   0.049  0.7802 -0.2378  0.4425
 1134TIP3   OH224892   1.340   3.773   4.268 -0.5049  0.6194  0.2916
 1134TIP3    H124893   1.292   3.796   4.189  1.6737  2.1030 -0.6856
 1134TIP3    H224894   1.297   3.693   4.299 -2.4638  0.9071 -1.4205
 1135TIP3   OH224895   0.090   3.741   5.174  0.4075  0.4758  0.6306
 1135TIP3    H124896  -0.003   3.744   5.196  0.1464  0.9704 -0.4709
 1135TIP3    H224897   0.096   3.784   5.089  1.3857 -1.2300 -0.2224
 1136TIP3   OH224898   5.341   4.485  16.759 -0.3281 -0.6721 -0.1345
 1136TIP3    H124899   5.248   4.475  16.740 -0.0846 -0.9741 -1.2669
 1136TIP3    H224900   5.385   4.429  16.694  0.7617  1.5401 -1.4461
 1137TIP3   OH224901   5.983   3.667  12.153 -0.1319  0.6886  0.1803
 1137TIP3    H124902   6.017   3.644  12.067 -1.0981 -0.4499  0.0760
 1137TIP3    H224903   5.897   3.707  12.136 -1.3986 -1.6687  0.6811
 1138TIP3   OH224904   4.554   1.135  13.898 -0.0600  0.3600 -0.0080
 1138TIP3    H124905   4.485   1.200  13.892 -1.0222 -0.6446 -0.1446
 1138TIP3    H224906   4.538   1.090  13.981 -1.2014 -1.6109 -1.2129
 1139TIP3   OH224907   4.800   4.329   1.843 -0.2890 -0.1835 -0.0791
 1139TIP3    H124908   4.856   4.345   1.766 -0.1484  0.8071  0.2055
 1139TIP3    H224909   4.733   4.397   1.837 -0.9117 -0.7775  0.1003
 1140TIP3   OH224910   0.391   1.837  14.621  0.3956  0.2208 -0.2179
 1140TIP3    H124911   0.385   1.929  14.598 -0.4323  0.2541  0.0826
 1140TIP3    H224912   0.416   1.837  14.714  0.9311  0.1363 -0.3639
 1141TIP3   OH224913   1.449   0.315  16.810 -0.3525  0.2285 -0.5610
 1141TIP3    H124914   1.544   0.321  16.820 -0.2934  0.9346 -1.3555
 1141TIP3    H224915   1.416   0.398  16.846 -0.6787 -0.0546 -0.1988
 1142TIP3   OH224916   6.774   4.134  15.006 -1.0016  0.2547  0.3113
 1142TIP3    H124917   6.757   4.089  14.923 -0.4272  1.3782 -0.4415
 1142TIP3    H224918   6.841   4.199  14.985 -0.9697  0.6780  1.6249
 1143TIP3   OH224919   3.001   2.284  15.322  0.4714  0.0600 -0.1141
 1143TIP3    H124920   3.039   2.322  15.243  1.6978 -0.3407  0.2597
 1143TIP3    H224921   2.931   2.228  15.290 -0.2123  1.2573 -0.7899
 1144TIP3   OH224922   0.598   0.821   1.299  0.1388 -0.6784 -0.1393
 1144TIP3    H124923   0.611   0.884   1.370 -0.0736 -1.2425  0.4127
 1144TIP3    H224924   0.519   0.849   1.254  0.7308  0.1628 -0.6838
 1145TIP3   OH224925   5.925   0.990  16.993 -0.5537 -0.2993 -0.1322
 1145TIP3    H124926   6.017   0.974  17.015 -0.0784  2.3043  0.0453
 1145TIP3    H224927   5.894   0.906  16.958  2.1813 -0.9467 -1.2527
 1146TIP3   OH224928   2.793   6.145  12.506  0.0326  0.3629  0.5186
 1146TIP3    H124929   2.833   6.231  12.494 -0.0154  0.4529  0.9576
 1146TIP3    H224930   2.699   6.161  12.500 -0.1300  0.7865  2.9294
 1147TIP3   OH224931   3.517   4.628  16.516 -0.0687 -0.0164  0.1928
 1147TIP3    H124932   3.458   4.665  16.451 -0.5153 -0.5104  0.3108
 1147TIP3    H224933   3.573   4.569  16.466 -1.3634 -1.5174  0.4531
 1148TIP3   OH224934   4.087   2.382  14.344 -0.4294 -0.1272 -0.0545
 1148TIP3    H124935   4.121   2.293  14.331  0.5562  0.3828 -1.0910
 1148TIP3    H224936   4.011   2.388  14.286  0.3697  0.1734 -1.0811
 1149TIP3   OH224937   0.746   4.956  10.094  0.0527  0.1910  0.0019
 1149TIP3    H124938   0.812   4.945  10.162 -0.3013  0.0373  0.3239
 1149TIP3    H224939   0.750   5.049  10.070  0.7967  0.0647 -0.4080
 1150TIP3   OH224940   1.455   6.353   0.300 -0.7554 -0.3951 -0.1225
 1150TIP3    H124941   1.543   6.329   0.328 -0.2099  1.4645 -0.0898
 1150TIP3    H224942   1.400   6.281   0.330  0.6336 -1.2123  0.5836
 1151TIP3   OH224943   0.046   1.967  15.609 -0.0951  0.0658  0.4343
 1151TIP3    H124944   0.090   1.967  15.694 -3.1139 -0.7366  2.1512
 1151TIP3    H224945  -0.032   1.912  15.622  0.0883 -1.4335 -3.3435
 1152TIP3   OH224946   2.431   0.218   1.483 -0.7523 -0.5300 -0.0996
 1152TIP3    H124947   2.346   0.248   1.516 -1.1014 -1.4060 -0.1612
 1152TIP3    H224948   2.421   0.221   1.387 -0.7984 -0.8448 -0.1066
 1153TIP3   OH224949   5.199   3.603   5.178 -0.3848 -0.1287  0.9367
 1153TIP3    H124950   5.210   3.636   5.267  1.7047  0.8090  0.3738
 1153TIP3    H224951   5.265   3.534   5.169  1.1130  1.3896 -0.5799
 1154TIP3   OH224952   3.138   6.503   4.555  0.6825  0.6485 -0.2978
 1154TIP3    H124953   3.097   6.557   4.623  0.5161  1.2973 -0.9064
 1154TIP3    H224954   3.156   6.420   4.599 -0.4072  0.6828  0.2558
 1155TIP3   OH224955   4.668   5.996  14.906 -0.6630 -0.4547 -0.5593
 1155TIP3    H124956   4.731   6.000  14.978 -1.1631 -0.7451 -0.0945
 1155TIP3    H224957   4.720   5.979  14.828 -0.1104 -0.1166 -0.2667
 1156TIP3   OH224958   3.695   5.001   5.646 -0.2076 -0.0676  0.3057
 1156TIP3    H124959   3.638   5.065   5.687  0.5419 -0.8962  2.8516
 1156TIP3    H224960   3.739   5.049   5.576 -2.0333  1.2644  0.0068
 1157TIP3   OH224961   6.412   0.633  14.926 -0.0725  0.2203  0.0380
 1157TIP3    H124962   6.360   0.688  14.984 -1.6059 -0.9215 -0.1770
 1157TIP3    H224963   6.493   0.615  14.975  0.1507  2.0384  0.3848
 1158TIP3   OH224964   5.551   3.124   1.706  0.4952 -0.0035  0.6807
 1158TIP3    H124965   5.645   3.118   1.685  0.4157 -0.7273  0.5194
 1158TIP3    H224966   5.507   3.116   1.622  0.2910  0.5622  0.7315
 1159TIP3   OH224967   5.238   4.479  11.459  0.1936  0.3757  0.3212
 1159TIP3    H124968   5.223   4.411  11.524  1.9061  1.1253  1.5767
 1159TIP3    H224969   5.322   4.455  11.418 -0.4875  0.3265 -1.1291
 1160TIP3   OH224970   4.864   0.801  13.074  0.2802 -0.0851 -0.3824
 1160TIP3    H124971   4.824   0.744  13.139 -1.6873  0.0606 -1.3814
 1160TIP3    H224972   4.917   0.743  13.019 -0.8996 -0.8141 -0.7795
 1161TIP3   OH224973   4.323   4.902   4.160 -0.0454  0.1668 -0.1784
 1161TIP3    H124974   4.301   4.886   4.252 -1.7894 -0.7805 -0.7022
 1161TIP3    H224975   4.360   4.819   4.130 -0.9745 -0.0712 -0.7110
 1162TIP3   OH224976   5.115   1.350  15.314 -1.1946  0.1045  0.4143
 1162TIP3    H124977   5.165   1.432  15.321 -0.2760 -0.3976 -0.1174
 1162TIP3    H224978   5.092   1.344  15.221 -0.3500 -0.7684  0.2606
 1163TIP3   OH224979   3.782   3.292  14.837  0.1131 -0.3983 -0.0116
 1163TIP3    H124980   3.854   3.229  14.833  0.7033  0.2619  0.1953
 1163TIP3    H224981   3.799   3.353  14.766  0.2296  0.2595  0.5794
 1164TIP3   OH224982   0.026   2.125   5.124 -0.5439 -0.0909  0.0914
 1164TIP3    H124983   0.100   2.066   5.137  2.6040  3.0703 -1.6837
 1164TIP3    H224984  -0.028   2.083   5.058 -0.1249 -2.2519  1.0479
 1165TIP3   OH224985   6.609   0.468   5.527  0.0827  0.6575  0.3089
 1165TIP3    H124986   6.599   0.391   5.583  0.5259  0.3359 -0.0507
 1165TIP3    H224987   6.692   0.507   5.554 -0.2899  1.1966  0.7080
 1166TIP3   OH224988   1.108   4.193  14.607  0.3751  0.6726  0.6001
 1166TIP3    H124989   1.087   4.187  14.700 -0.9316 -1.6864  0.2311
 1166TIP3    H224990   1.196   4.231  14.604  0.6219  0.3787  2.7937
 1167TIP3   OH224991   2.373   3.614  14.159  0.8091 -0.4616  0.1017
 1167TIP3    H124992   2.379   3.643  14.250 -0.7094 -2.6427  0.9924
 1167TIP3    H224993   2.442   3.550  14.149  2.3511  1.2673 -1.0078
 1168TIP3   OH224994   1.168   2.756  11.166  0.2208 -0.1388  0.6697
 1168TIP3    H124995   1.177   2.780  11.258 -0.3023  1.2130  0.3928
 1168TIP3    H224996   1.095   2.809  11.134  1.1869  0.3926 -0.8184
 1169TIP3   OH224997   6.605   6.606  14.301 -0.5248 -0.4440 -0.0656
 1169TIP3    H124998   6.574   6.516  14.309 -1.4625 -0.3316 -1.8433
 1169TIP3    H224999   6.526   6.660  14.312 -0.5925 -0.0282 -2.1520
 1170TIP3   OH225000   2.120   5.981   2.225 -0.1322  0.0843 -0.5248
 1170TIP3    H125001   2.180   5.908   2.241 -0.6306  0.0585  1.5772
 1170TIP3    H225002   2.145   6.048   2.289 -3.5572 -0.7565  1.9970
 1171TIP3   OH225003   3.235   1.647   2.873  0.7286  0.0498 -0.0355
 1171TIP3    H125004   3.140   1.648   2.887  0.4618  0.2803 -1.6750
 1171TIP3    H225005   3.258   1.740   2.864  0.7463 -0.0736 -1.6459
 1172TIP3   OH225006   0.734   5.815  15.362  0.2156  0.6231  0.5160
 1172TIP3    H125007   0.765   5.785  15.276 -0.8934  2.2608 -0.5063
 1172TIP3    H225008   0.670   5.748  15.388 -0.8580  1.0366 -0.8673
 1173TIP3   OH225009   2.457   3.301   2.687  0.3816 -0.4043 -0.2332
 1173TIP3    H125010   2.460   3.231   2.753 -0.8046 -0.5083 -0.2761
 1173TIP3    H225011   2.365   3.307   2.661  0.6910  0.2251 -1.2623
 1174TIP3   OH225012   1.874   4.060   0.463 -0.1380  0.8033  0.2716
 1174TIP3    H125013   1.860   4.088   0.373  0.5586  1.2512  0.2959
 1174TIP3    H225014   1.844   4.133   0.517  3.2775  2.3857  0.3093
 1175TIP3   OH225015   1.341   4.673  16.155  0.2346  0.7195  0.3878
 1175TIP3    H125016   1.286   4.653  16.231 -1.2852  1.4905 -0.4664
 1175TIP3    H225017   1.429   4.683  16.192  0.1357 -1.9468  1.5912
 1176TIP3   OH225018   6.044   2.353  14.491 -0.1869  0.1334 -0.1657
 1176TIP3    H125019   6.079   2.398  14.568 -0.1168  0.9421 -0.6595
 1176TIP3    H225020   6.121   2.324  14.442 -0.2206 -1.3055  0.5664
 1177TIP3   OH225021   5.729   0.918  11.109 -0.2114  0.0879 -0.0626
 1177TIP3    H125022   5.727   0.926  11.204  2.4173 -3.7291  0.5673
 1177TIP3    H225023   5.654   0.863  11.087  0.0675 -0.3653  0.0879
 1178TIP3   OH225024   3.129   3.383   6.217 -0.8348 -0.4177 -0.4843
 1178TIP3    H125025   3.155   3.301   6.259 -1.9575 -0.0263  1.0458
 1178TIP3    H225026   3.087   3.434   6.287  0.2064  1.6497 -1.2796
 1179TIP3   OH225027   3.902   0.401   5.287 -0.0388 -0.4044 -0.5071
 1179TIP3    H125028   3.829   0.408   5.348  0.0341 -0.8494 -0.3654
 1179TIP3    H225029   3.964   0.342   5.330 -0.9430 -2.4912 -1.9192
 1180TIP3   OH225030   3.578   4.803  11.715 -0.1489  0.0118  0.5134
 1180TIP3    H125031   3.494   4.805  11.668  0.2345  2.2001 -0.2221
 1180TIP3    H225032   3.577   4.883  11.768  1.1285 -0.3655  1.1504
 1181TIP3   OH225033   1.435   3.389  16.330  0.1942 -0.7075  0.0290
 1181TIP3    H125034   1.483   3.397  16.248 -1.9656 -1.6144 -1.3981
 1181TIP3    H225035   1.446   3.474  16.373  0.2864  0.2578 -1.8331
 1182TIP3   OH225036   4.039   3.024  11.284  0.0365 -0.1935  0.0047
 1182TIP3    H125037   4.086   3.107  11.289 -0.7134  0.2053  0.5872
 1182TIP3    H225038   3.960   3.044  11.234 -0.8827 -0.1813  1.4015
 1183TIP3   OH225039   4.299   4.829   4.947  0.3241  0.0916 -0.5593
 1183TIP3    H125040   4.352   4.816   5.026 -2.2878  0.8807  1.5000
 1183TIP3    H225041   4.224   4.772   4.960 -0.9275  1.4048 -1.6961
 1184TIP3   OH225042   5.435   2.311  12.397  0.3442 -0.5252  0.1161
 1184TIP3    H125043   5.492   2.323  12.322  1.8965  2.4428  1.5867
 1184TIP3    H225044   5.347   2.324  12.363  0.9431 -0.1590 -1.3409
 1185TIP3   OH225045   2.578   0.781   2.620  0.5421 -0.3757  0.0574
 1185TIP3    H125046   2.513   0.830   2.569 -0.2551 -0.3567  1.0660
 1185TIP3    H225047   2.557   0.689   2.603  0.2336 -0.3696  0.3904
 1186TIP3   OH225048   3.046   5.330  14.034  0.1265  0.3943  0.4230
 1186TIP3    H125049   2.966   5.285  14.064  1.0078  0.0601  2.4393
 1186TIP3    H225050   3.066   5.289  13.950 -1.5839  0.1845  0.0814
 1187TIP3   OH225051   6.109   1.797  14.663 -0.2204  0.1184  0.2779
 1187TIP3    H125052   6.071   1.716  14.695 -2.0355  0.4693 -0.8505
 1187TIP3    H225053   6.052   1.866  14.697 -0.7735  0.6446 -1.6010
 1188TIP3   OH225054   6.726   3.663   6.394 -0.1749  0.0305 -0.1900
 1188TIP3    H125055   6.677   3.721   6.451  0.6989  1.4565 -0.8254
 1188TIP3    H225056   6.808   3.647   6.441  0.6864  1.4728 -1.1043
 1189TIP3   OH225057   0.111   1.160   5.445  0.5243 -0.6751 -0.1721
 1189TIP3    H125058   0.093   1.133   5.535  0.5866 -0.2572 -0.0340
 1189TIP3    H225059   0.070   1.246   5.437  0.7145 -0.6108 -0.4713
 1190TIP3   OH225060   1.496   5.153   0.834  0.3921  0.1391  0.6240
 1190TIP3    H125061   1.427   5.184   0.892  0.2905  1.8193 -0.3464
 1190TIP3    H225062   1.573   5.206   0.857 -0.0547  1.9701 -1.7375
 1191TIP3   OH225063   5.295   2.356   6.137  0.1659  0.1145 -0.5429
 1191TIP3    H125064   5.255   2.269   6.145 -0.1960  0.1802 -1.5622
 1191TIP3    H225065   5.335   2.371   6.223 -1.9359  0.0240  0.5038
 1192TIP3   OH225066   1.536   4.156  14.052  0.6008  0.1460 -0.2518
 1192TIP3    H125067   1.536   4.217  14.125  0.4756  1.6228 -1.4335
 1192TIP3    H225068   1.621   4.112  14.058  1.6230  1.9905 -0.5830
 1193TIP3   OH225069   3.392   3.479  12.052 -0.0642 -0.0451  0.1771
 1193TIP3    H125070   3.482   3.506  12.031 -0.2868  0.9640  0.4620
 1193TIP3    H225071   3.392   3.385  12.039  0.4948  0.1907 -1.8720
 1194TIP3   OH225072   1.077   3.202  13.579 -0.7706  0.1017  0.6074
 1194TIP3    H125073   1.121   3.119  13.598  4.2632  1.9136 -1.2630
 1194TIP3    H225074   1.102   3.259  13.651  0.9759  1.4402 -0.9533
 1195TIP3   OH225075   5.631   2.436  11.680  0.2065 -0.1406 -0.0351
 1195TIP3    H125076   5.713   2.418  11.635  0.2079 -0.1467 -0.0307
 1195TIP3    H225077   5.573   2.469  11.612 -0.7308 -2.8318 -0.6734
 1196TIP3   OH225078   5.041   2.829   4.079  0.6053 -0.1512  0.2995
 1196TIP3    H125079   4.949   2.805   4.068 -0.3392  2.8850  0.7501
 1196TIP3    H225080   5.070   2.854   3.991 -0.5780  3.5137  0.7624
 1197TIP3   OH225081   2.699   0.605   5.914  0.0366  0.8168  0.6603
 1197TIP3    H125082   2.612   0.646   5.922 -0.1913  0.3401  0.6681
 1197TIP3    H225083   2.685   0.514   5.941  0.7818  1.0190  1.8068
 1198TIP3   OH225084   1.813   6.307  14.895 -0.2569 -0.1065 -0.1472
 1198TIP3    H125085   1.721   6.326  14.879 -0.4141  0.3102  1.1531
 1198TIP3    H225086   1.819   6.290  14.989  1.1708  0.9515 -0.0010
 1199TIP3   OH225087   4.423   4.655  13.631  0.3517  0.1191  0.0455
 1199TIP3    H125088   4.386   4.728  13.681  0.5854  0.8041 -0.7480
 1199TIP3    H225089   4.491   4.619  13.687  0.8615  1.1037  0.0848
 1200TIP3   OH225090   4.934   0.606   2.799  0.1871 -0.4144 -0.1465
 1200TIP3    H125091   4.912   0.580   2.889  1.5479  1.0273  0.6481
 1200TIP3    H225092   4.880   0.549   2.744 -0.8761 -1.1577  1.5779
 1201TIP3   OH225093   3.801   2.471  15.550 -0.0618  0.3429 -0.0447
 1201TIP3    H125094   3.833   2.534  15.485  1.5915 -1.6017 -1.2108
 1201TIP3    H225095   3.728   2.427  15.508  1.2517 -1.1861 -0.8053
 1202TIP3   OH225096   6.643   3.330  11.671 -0.6897  0.4769  0.2871
 1202TIP3    H125097   6.656   3.269  11.598 -0.1175  1.1176 -0.1698
 1202TIP3    H225098   6.731   3.350  11.701 -0.9132  0.4071  1.0091
 1203TIP3   OH225099   0.276   6.006  11.967 -0.0979  0.5049 -0.2124
 1203TIP3    H125100   0.361   5.985  12.006 -0.0707 -3.2404 -1.8773
 1203TIP3    H225101   0.298   6.041  11.880 -0.2151 -0.4159 -0.6229
 1204TIP3   OH225102   6.338   1.359  10.708  0.3704 -0.1282 -0.4497
 1204TIP3    H125103   6.421   1.401  10.687  1.2716 -1.4590  0.2994
 1204TIP3    H225104   6.279   1.432  10.728  2.0741  0.8185  1.5579
 1205TIP3   OH225105   1.746   6.505  13.393  0.2068  0.1423  0.4656
 1205TIP3    H125106   1.806   6.447  13.345 -0.0197 -0.1819  0.5748
 1205TIP3    H225107   1.692   6.544  13.325  1.3542  1.4069  0.2226
 1206TIP3   OH225108   0.060   1.906   4.296 -0.3157  0.1132  0.3011
 1206TIP3    H125109   0.105   1.885   4.378  0.6608 -1.2223 -0.5274
 1206TIP3    H225110   0.128   1.942   4.239 -0.3894 -1.3182 -0.7494
 1207TIP3   OH225111   0.144   4.622   0.525  0.2593  0.1127 -0.4309
 1207TIP3    H125112   0.165   4.571   0.604  1.1166  2.3244  0.8654
 1207TIP3    H225113   0.101   4.701   0.558 -0.3459  0.6039 -2.2859
 1208TIP3   OH225114   4.588   4.390   1.554 -0.8046  0.2676  0.2719
 1208TIP3    H125115   4.625   4.356   1.472  1.2992  1.1500  0.7898
 1208TIP3    H225116   4.565   4.481   1.533 -0.7866  0.3260  0.5069
 1209TIP3   OH225117   5.401   0.549  10.525  0.3000  1.1329  0.1734
 1209TIP3    H125118   5.445   0.469  10.554  0.4986  1.6956  1.5041
 1209TIP3    H225119   5.446   0.574  10.445 -0.3932 -0.5972 -0.8309
 1210TIP3   OH225120   5.812   2.093  16.714  0.1817 -0.1691  0.3378
 1210TIP3    H125121   5.875   2.069  16.782  0.6352 -1.1777 -0.4061
 1210TIP3    H225122   5.772   2.174  16.746  0.8123 -0.2905  1.5118
 1211TIP3   OH225123   2.431   6.191  13.006  0.3840  0.0684  0.1124
 1211TIP3    H125124   2.349   6.197  12.956 -0.3049 -2.0112  0.8964
 1211TIP3    H225125   2.403   6.181  13.097  1.5390  0.0729  0.4812
 1212TIP3   OH225126   2.927   6.853   4.539 -0.3142 -0.2673  0.2396
 1212TIP3    H125127   2.938   6.784   4.604  0.2323 -0.4512 -0.0489
 1212TIP3    H225128   2.854   6.905   4.573  0.4425  0.0856  1.3963
 1213TIP3   OH225129   1.760   3.309   4.786 -0.2743  0.5213 -0.1435
 1213TIP3    H125130   1.776   3.246   4.856  0.0952 -0.3724 -0.9989
 1213TIP3    H225131   1.789   3.263   4.707 -0.7598  1.4756 -0.8844
 1214TIP3   OH225132   3.448   5.533   5.582 -0.1677 -0.8994 -0.1917
 1214TIP3    H125133   3.502   5.575   5.515 -0.0738 -1.3965 -0.4330
 1214TIP3    H225134   3.503   5.462   5.615  1.2008  1.3348  2.8398
 1215TIP3   OH225135   6.116   1.780  15.963  0.6046  0.1934 -0.2997
 1215TIP3    H125136   6.117   1.708  16.027 -1.3744  0.7488  0.4279
 1215TIP3    H225137   6.207   1.809  15.959  1.4578 -2.2553 -0.5425
 1216TIP3   OH225138   3.913   5.741   2.647 -0.1290 -0.1624  0.0654
 1216TIP3    H125139   3.873   5.828   2.647 -0.8437 -0.4716  0.7395
 1216TIP3    H225140   3.960   5.737   2.730  0.6332 -0.1043 -0.3585
 1217TIP3   OH225141   6.139   4.235  14.229  0.1953  0.1469  0.7126
 1217TIP3    H125142   6.181   4.298  14.287  0.6689  0.2097  0.3096
 1217TIP3    H225143   6.058   4.211  14.273 -0.6273  2.0037  0.2999
 1218TIP3   OH225144   1.028   6.033  13.992  0.5767  0.5213 -0.6475
 1218TIP3    H125145   0.934   6.021  13.978  0.3922  1.9382 -0.8045
 1218TIP3    H225146   1.033   6.076  14.078  1.1719 -0.6785 -0.0662
 1219TIP3   OH225147   3.315   4.835   2.465  0.3086 -0.0999  0.0557
 1219TIP3    H125148   3.300   4.904   2.400  0.5619 -0.1590 -0.0679
 1219TIP3    H225149   3.266   4.863   2.542 -0.2744 -0.1941 -0.2705
 1220TIP3   OH225150   4.148   0.204   0.858  0.3897  0.4209 -0.1447
 1220TIP3    H125151   4.214   0.262   0.897  1.2856 -0.5502 -0.2005
 1220TIP3    H225152   4.066   0.231   0.900  1.0238  0.7394  0.9281
 1221TIP3   OH225153   6.585   1.141  13.106 -0.2817  0.5342 -0.1071
 1221TIP3    H125154   6.625   1.164  13.023  1.0248 -1.4586 -0.1059
 1221TIP3    H225155   6.636   1.188  13.172  0.5760 -0.1401 -0.2704
 1222TIP3   OH225156   0.335   1.490  14.049 -0.2450  0.1475  0.4387
 1222TIP3    H125157   0.343   1.421  14.114  0.4898 -0.0564  0.1465
 1222TIP3    H225158   0.295   1.563  14.096  1.0414  0.2947  1.3569
 1223TIP3   OH225159   2.797   1.587  14.176 -0.0885  0.0145  0.3278
 1223TIP3    H125160   2.834   1.674  14.190  1.3908 -0.5773  0.3165
 1223TIP3    H225161   2.853   1.547  14.109  0.7939 -1.8079  2.0500
 1224TIP3   OH225162   5.530   4.483   4.485  0.1491 -0.2230 -0.8505
 1224TIP3    H125163   5.489   4.569   4.493  0.6145  0.0465 -1.3309
 1224TIP3    H225164   5.614   4.500   4.444  0.7259 -0.7835  0.0661
 1225TIP3   OH225165   3.044   2.245   0.017 -0.1218  0.0707 -0.1315
 1225TIP3    H125166   3.101   2.230  -0.059  0.4445  1.7089 -0.0845
 1225TIP3    H225167   3.105   2.265   0.088 -0.6516  3.3230 -0.4108
 1226TIP3   OH225168   6.542   4.122  11.387 -0.0011  0.3276  0.5680
 1226TIP3    H125169   6.561   4.049  11.446  0.4316  0.0708  0.1197
 1226TIP3    H225170   6.543   4.083  11.300  0.2345  0.8718  0.3244
 1227TIP3   OH225171   1.529   4.104   3.583 -0.2012 -0.5606 -0.1075
 1227TIP3    H125172   1.611   4.080   3.540  0.6956  2.5848 -0.4140
 1227TIP3    H225173   1.466   4.114   3.512  0.3223  1.0531 -0.3996
 1228TIP3   OH225174   2.967   3.931   2.400 -0.0575 -0.1718  0.4794
 1228TIP3    H125175   2.897   3.910   2.338 -1.3501 -1.4038  2.2654
 1228TIP3    H225176   3.028   3.858   2.392  2.6408  2.1203 -3.0102
 1229TIP3   OH225177   0.243   3.148   4.858  0.1189  0.3827  1.4912
 1229TIP3    H125178   0.313   3.182   4.914  1.2986 -1.3368  1.1474
 1229TIP3    H225179   0.227   3.060   4.890  1.1282 -0.8124 -1.0751
 1230TIP3   OH225180   0.634   1.054   2.050 -0.2756  0.4001  0.5788
 1230TIP3    H125181   0.583   1.135   2.042  0.5527  1.1789  2.5233
 1230TIP3    H225182   0.614   1.022   2.138  1.0032 -0.3766  0.6052
 1231TIP3   OH225183   6.239   3.120   5.860 -0.1859 -0.4812 -0.7963
 1231TIP3    H125184   6.203   3.050   5.915  0.0773 -0.4605 -0.5938
 1231TIP3    H225185   6.203   3.201   5.896  0.2181 -0.4445 -0.4672
 1232TIP3   OH225186   3.399   2.202   1.544  0.0262  0.1738  0.2417
 1232TIP3    H125187   3.413   2.285   1.497  1.2321  0.1999  0.6314
 1232TIP3    H225188   3.336   2.155   1.489 -0.2872  1.1320 -0.2491
 1233TIP3   OH225189   3.407   4.608  10.278 -0.0597 -0.3003  0.3287
 1233TIP3    H125190   3.312   4.615  10.273  0.0747  1.7920 -0.2477
 1233TIP3    H225191   3.431   4.659  10.355  0.7453  1.6702 -1.1491
 1234TIP3   OH225192   2.477   4.769  13.142  0.9588  0.3837 -0.4879
 1234TIP3    H125193   2.518   4.836  13.197  2.2772 -0.6312 -0.1790
 1234TIP3    H225194   2.511   4.787  13.054  1.4870  0.0129 -0.3673
 1235TIP3   OH225195   3.372   1.508  16.755 -0.1835 -0.0493 -0.0646
 1235TIP3    H125196   3.381   1.588  16.806 -0.9309  0.1230 -0.1901
 1235TIP3    H225197   3.419   1.525  16.674  0.7285 -0.2042  0.4216
 1236TIP3   OH225198   5.349   4.475   5.366  0.1939  0.4592  0.0182
 1236TIP3    H125199   5.361   4.394   5.317 -0.8500  0.1648  0.2208
 1236TIP3    H225200   5.351   4.447   5.458  0.0600  0.7066  0.0954
 1237TIP3   OH225201   4.387   2.309   0.687 -0.5616  0.0539 -0.2176
 1237TIP3    H125202   4.326   2.345   0.623 -1.8018  0.4117  1.1176
 1237TIP3    H225203   4.432   2.386   0.723  0.5684 -0.1922 -1.0573
 1238TIP3   OH225204   6.397   6.735  12.541  0.9387  0.0879 -0.0530
 1238TIP3    H125205   6.417   6.665  12.479  2.4304 -1.1088  1.6913
 1238TIP3    H225206   6.481   6.776  12.560  0.4943  0.5445  1.0349
 1239TIP3   OH225207   5.673   1.467   3.032 -0.5616 -0.0740  0.0512
 1239TIP3    H125208   5.740   1.408   3.066  0.0887 -0.2911 -1.5102
 1239TIP3    H225209   5.608   1.410   2.993  0.7361  0.1549 -2.6923
 1240TIP3   OH225210   3.976   2.881  15.783  0.3086  0.0140 -0.3875
 1240TIP3    H125211   3.915   2.831  15.729  1.1614  0.1421 -1.4986
 1240TIP3    H225212   4.044   2.819  15.807 -0.4591 -0.2491  1.2406
 1241TIP3   OH225213   1.980   3.998  14.868  0.0810 -0.1067 -0.3161
 1241TIP3    H125214   2.074   3.999  14.885  0.1463  0.0158 -0.6795
 1241TIP3    H225215   1.958   4.090  14.853 -0.3552  0.0511  1.1411
 1242TIP3   OH225216   0.352   5.653   5.596 -0.4289 -0.1500 -0.4566
 1242TIP3    H125217   0.380   5.689   5.512 -0.0372  1.4808  0.3517
 1242TIP3    H225218   0.401   5.571   5.604 -1.6798 -1.2001 -2.5368
 1243TIP3   OH225219   5.265   0.825  16.032 -0.2487 -0.0737  0.1715
 1243TIP3    H125220   5.293   0.756  15.972 -0.2229  1.1517 -1.2944
 1243TIP3    H225221   5.342   0.841  16.086 -0.1909 -1.0401  0.3994
 1244TIP3   OH225222   1.424   2.583   0.270 -0.1322 -0.5335 -0.2282
 1244TIP3    H125223   1.402   2.505   0.219 -1.4592  0.0497 -0.5973
 1244TIP3    H225224   1.436   2.652   0.204 -1.9762  0.2556  0.1910
 1245TIP3   OH225225   1.038   5.354   1.109 -0.3274 -0.2413  0.3716
 1245TIP3    H125226   1.068   5.292   1.042 -0.6154  0.7344 -0.7030
 1245TIP3    H225227   1.022   5.300   1.186  1.2477 -1.2223  0.0643
 1246TIP3   OH225228   0.100   4.214  11.783 -0.1577  0.9025 -0.9449
 1246TIP3    H125229   0.029   4.195  11.721  0.0308  2.8850 -1.8536
 1246TIP3    H225230   0.056   4.261  11.855 -0.1705 -0.2656 -0.1698
 1247TIP3   OH225231   5.947   2.502   6.104 -0.4534 -0.3620 -0.2341
 1247TIP3    H125232   5.898   2.452   6.170 -0.8476 -0.6053 -0.7052
 1247TIP3    H225233   6.014   2.548   6.154  0.1943 -1.6820  0.1769
 1248TIP3   OH225234   0.199   2.844  16.525 -0.0872  0.7890 -0.7151
 1248TIP3    H125235   0.182   2.827  16.432  1.0103  0.6893 -0.9116
 1248TIP3    H225236   0.289   2.878  16.527  0.3680 -0.4025  0.4190
 1249TIP3   OH225237   3.481   4.290  16.478  0.1487  0.0874 -0.2167
 1249TIP3    H125238   3.542   4.291  16.404  0.9130  1.8934  0.3908
 1249TIP3    H225239   3.394   4.287  16.437  0.5736 -1.6329 -1.1054
 1250TIP3   OH225240   5.402   2.371  11.182  0.3752  0.4866  0.1560
 1250TIP3    H125241   5.324   2.400  11.135 -0.6611 -0.9332  0.8838
 1250TIP3    H225242   5.460   2.336  11.115 -0.3211  0.0939 -0.2515
 1251TIP3   OH225243   1.847   5.555   0.815 -0.2698  0.0082 -0.4069
 1251TIP3    H125244   1.897   5.600   0.883 -2.0309  1.3161  0.1045
 1251TIP3    H225245   1.847   5.617   0.742  0.2181 -0.6863 -1.0108
 1252TIP3   OH225246   5.480   5.394  11.142  0.3938 -0.7333  0.4358
 1252TIP3    H125247   5.448   5.426  11.057 -1.1559 -2.0642  0.4734
 1252TIP3    H225248   5.403   5.355  11.184  1.7799 -3.0033  1.0769
 1253TIP3   OH225249   4.452   3.288   2.583 -0.0380  0.0496  0.1696
 1253TIP3    H125250   4.446   3.360   2.521 -1.2220 -0.4149 -0.2943
 1253TIP3    H225251   4.538   3.250   2.569 -1.0279 -1.3989 -2.7677
 1254TIP3   OH225252   4.500   2.452   2.134  0.5165 -0.0415 -0.2103
 1254TIP3    H125253   4.560   2.390   2.175  0.8437 -0.1365 -0.8176
 1254TIP3    H225254   4.542   2.537   2.146 -0.7066  0.3251  2.0718
 1255TIP3   OH225255   6.264   6.792  15.924  0.1308  0.5103 -0.0953
 1255TIP3    H125256   6.309   6.832  15.850  2.3006  0.3490  1.0691
 1255TIP3    H225257   6.334   6.768  15.985 -1.5910  0.9470  2.1896
 1256TIP3   OH225258   6.145   1.326  13.416  0.6063 -0.3827 -0.2557
 1256TIP3    H125259   6.074   1.272  13.449  3.0296 -3.8394 -0.1116
 1256TIP3    H225260   6.184   1.273  13.346  4.0870  0.4490  0.8721
 1257TIP3   OH225261   1.864   0.943   4.920 -0.1390  0.3095 -0.1438
 1257TIP3    H125262   1.910   0.908   4.845  0.8496  2.2884 -0.5125
 1257TIP3    H225263   1.811   1.014   4.885 -2.8779 -1.2976  0.4161
 1258TIP3   OH225264   4.010   0.662   6.598  0.4936 -0.3591  0.0667
 1258TIP3    H125265   4.078   0.712   6.643  0.7349 -0.8139  0.2163
 1258TIP3    H225266   3.928   0.705   6.623  0.7421  0.4470 -0.4404
 1259TIP3   OH225267   4.205   6.787  14.387 -0.1954  0.1177 -0.7173
 1259TIP3    H125268   4.253   6.869  14.375  1.0224 -0.5201 -0.3917
 1259TIP3    H225269   4.258   6.721  14.341 -0.6071 -0.6554 -0.1109
 1260TIP3   OH225270   1.257   1.933   3.380 -0.0941 -0.3855 -0.0312
 1260TIP3    H125271   1.164   1.950   3.399  0.1179  0.0412  0.6573
 1260TIP3    H225272   1.267   1.839   3.393 -0.9829 -0.9087 -2.5557
 1261TIP3   OH225273   0.005   6.187  14.161 -0.2610 -0.4250  0.5071
 1261TIP3    H125274   0.091   6.203  14.121  0.1060 -1.4834  0.8372
 1261TIP3    H225275  -0.051   6.256  14.126  0.5600 -0.1246 -0.2488
 1262TIP3   OH225276   2.188   1.278   3.342  0.4351  0.0813  0.4565
 1262TIP3    H125277   2.194   1.228   3.261 -1.8491 -0.1139  0.3457
 1262TIP3    H225278   2.247   1.352   3.329  0.6788 -0.3529 -1.0743
 1263TIP3   OH225279   6.443   2.087  16.605 -0.2882  0.2561 -0.4978
 1263TIP3    H125280   6.481   1.999  16.596  0.4568  0.3143  1.6383
 1263TIP3    H225281   6.482   2.122  16.685 -2.9424  1.3096  0.4348
 1264TIP3   OH225282   4.108   3.472   0.900  0.6348 -0.3578 -0.1189
 1264TIP3    H125283   4.130   3.408   0.832 -0.6796  1.0823 -2.0112
 1264TIP3    H225284   4.191   3.489   0.945  1.1497 -2.8204  0.0093
 1265TIP3   OH225285   5.872   5.579   2.458  0.0137 -0.4283 -0.3708
 1265TIP3    H125286   5.861   5.572   2.363  0.6878 -0.4721 -0.4479
 1265TIP3    H225287   5.938   5.514   2.480 -0.6577 -0.9200  0.2387
 1266TIP3   OH225288   6.005   2.180  10.442 -0.2637 -0.2505  0.4607
 1266TIP3    H125289   5.935   2.116  10.430 -0.4518 -0.2282  1.3691
 1266TIP3    H225290   6.064   2.140  10.505  0.6894 -0.3731 -0.4777
 1267TIP3   OH225291   5.719   6.039  10.522  0.1938  0.1727  0.0377
 1267TIP3    H125292   5.756   6.084  10.446  1.0579  0.8797  0.8447
 1267TIP3    H225293   5.633   6.011  10.494  0.8015 -0.2755 -1.4555
 1268TIP3   OH225294   3.792   4.313   1.005  1.0648  0.4413 -0.0182
 1268TIP3    H125295   3.825   4.350   1.087  0.5763 -0.8559  0.8029
 1268TIP3    H225296   3.754   4.229   1.031  1.0013 -0.0454 -1.6033
 1269TIP3   OH225297   6.136   1.148   4.694  0.0660  0.1909  0.0845
 1269TIP3    H125298   6.218   1.105   4.718  0.1153  0.1838 -0.0972
 1269TIP3    H225299   6.108   1.193   4.774  0.9233  1.2878 -0.2111
 1270TIP3   OH225300   2.799   4.236   2.872  0.5049 -0.3001  0.2829
 1270TIP3    H125301   2.703   4.237   2.867  0.3248 -2.2950  2.0124
 1270TIP3    H225302   2.826   4.179   2.800  0.4800  0.7687 -0.6054
 1271TIP3   OH225303   6.308   6.120  14.519 -0.3505  0.4940  0.2352
 1271TIP3    H125304   6.216   6.094  14.532  0.2451 -2.9335 -1.2928
 1271TIP3    H225305   6.320   6.119  14.424  1.2419  0.9653  0.4047
 1272TIP3   OH225306   5.028   5.293   6.160 -0.1539  0.2048  0.1146
 1272TIP3    H125307   5.111   5.246   6.159  0.4998  1.3059  0.8986
 1272TIP3    H225308   5.009   5.308   6.067  1.2073  1.0970 -0.0484
 1273TIP3   OH225309   3.552   2.957  16.833  0.1657 -0.3934  0.4673
 1273TIP3    H125310   3.585   2.868  16.846 -0.8435 -0.6349  1.5207
 1273TIP3    H225311   3.488   2.970  16.903  0.3551  1.2011  0.3820
 1274TIP3   OH225312   6.661   0.973   3.201  0.0036 -0.2178  0.3722
 1274TIP3    H125313   6.601   0.938   3.136 -2.7504  1.4121  1.8479
 1274TIP3    H225314   6.679   0.899   3.259 -1.2512 -0.5546  0.3577
 1275TIP3   OH225315   3.296   3.032   2.392  0.1649 -0.5990 -0.3452
 1275TIP3    H125316   3.303   2.972   2.318 -3.5445  0.1513 -1.5500
 1275TIP3    H225317   3.334   2.985   2.466  1.6509 -2.4241 -2.1584
 1276TIP3   OH225318   4.116   3.532  13.741 -0.1783  0.5433  0.2071
 1276TIP3    H125319   4.030   3.495  13.719 -0.3925  0.1384  1.6224
 1276TIP3    H225320   4.115   3.620  13.701 -1.2812  0.5754  0.2687
 1277TIP3   OH225321   1.095   2.415   5.417 -0.2906 -0.1194  0.0122
 1277TIP3    H125322   1.181   2.456   5.430 -0.4991 -0.2153  1.9903
 1277TIP3    H225323   1.032   2.484   5.439 -0.6587 -0.8543  1.4069
 1278TIP3   OH225324   5.977   4.998   0.286  0.1107 -0.3120  0.2230
 1278TIP3    H125325   5.918   5.031   0.219 -1.4494 -1.8568  0.7490
 1278TIP3    H225326   5.937   5.025   0.369  1.0988  0.1144  0.5795
 1279TIP3   OH225327   5.693   6.540  12.737 -0.6052 -0.0370  0.5203
 1279TIP3    H125328   5.705   6.459  12.689 -0.7018  0.7280 -0.8482
 1279TIP3    H225329   5.702   6.515  12.829  1.7523 -1.1938  0.0609
 1280TIP3   OH225330   3.137   0.106  13.809 -0.0317 -0.0652 -0.2033
 1280TIP3    H125331   3.196   0.078  13.739 -0.4123 -2.1337  0.2446
 1280TIP3    H225332   3.178   0.072  13.889 -0.8915  0.0606  0.2992
 1281TIP3   OH225333   0.984   1.414  12.382  0.1826 -0.7549  0.4634
 1281TIP3    H125334   1.041   1.434  12.456 -2.0493  1.4770  1.7644
 1281TIP3    H225335   0.899   1.395  12.422 -1.0572  0.3500 -1.4769
 1282TIP3   OH225336   3.305   6.449   3.559 -0.6097 -0.0630  0.7099
 1282TIP3    H125337   3.325   6.355   3.561  1.4536  0.3406  2.4911
 1282TIP3    H225338   3.329   6.480   3.646  0.1800  2.4036 -0.3246
 1283TIP3   OH225339   6.013   0.538   2.773 -0.8099  0.3589  0.2021
 1283TIP3    H125340   6.088   0.490   2.809 -0.9062  1.4731  2.0150
 1283TIP3    H225341   5.948   0.470   2.754  0.6943 -0.6525 -1.6188
 1284TIP3   OH225342   1.951   4.965  11.558 -0.2906 -0.1067  0.5864
 1284TIP3    H125343   1.982   4.984  11.470 -0.3789 -0.4005  0.4910
 1284TIP3    H225344   2.029   4.935  11.604 -0.3022 -0.2291  0.5268
 1285TIP3   OH225345   1.409   5.538  14.518 -0.5871 -0.2283  0.2200
 1285TIP3    H125346   1.385   5.625  14.550 -1.3855 -0.0416 -0.8515
 1285TIP3    H225347   1.505   5.540  14.513 -0.5445  0.2783  1.0372
 1286TIP3   OH225348   0.980   6.227  12.945  0.1714  0.4521 -0.4457
 1286TIP3    H125349   1.020   6.262  12.866  0.0563 -2.2128 -1.7868
 1286TIP3    H225350   1.049   6.175  12.987 -0.0606  1.0350  0.7252
 1287TIP3   OH225351   4.635   3.924   1.292 -0.2851  0.0149 -0.1627
 1287TIP3    H125352   4.720   3.919   1.337  0.1950  1.1839 -0.8779
 1287TIP3    H225353   4.570   3.918   1.362  0.4438  1.6604  0.7093
 1288TIP3   OH225354   4.319   6.425  12.224 -0.0219  0.2216 -0.7369
 1288TIP3    H125355   4.338   6.508  12.181  2.6094  0.9331  1.5007
 1288TIP3    H225356   4.224   6.424  12.235 -0.3377  1.9140 -2.6616
 1289TIP3   OH225357   4.266   6.579   5.213  0.1845  0.1339 -0.3120
 1289TIP3    H125358   4.315   6.511   5.260  0.5334  1.3979  1.2358
 1289TIP3    H225359   4.205   6.613   5.278 -1.2188  0.1230 -1.5754
 1290TIP3   OH225360   3.011   2.295   2.388 -0.2996  0.2255  0.2717
 1290TIP3    H125361   2.970   2.238   2.453 -0.0107 -0.5292 -0.1933
 1290TIP3    H225362   3.016   2.380   2.431 -0.1507 -0.2488  1.2245
 1291TIP3   OH225363   6.141   3.380   5.938  0.1481  0.3073 -0.5629
 1291TIP3    H125364   6.153   3.460   5.887 -0.9966 -0.7832 -2.6615
 1291TIP3    H225365   6.063   3.396   5.991 -0.8258  0.1645 -1.9209
 1292TIP3   OH225366   0.620   2.451  11.124  0.3458 -0.1430 -0.3472
 1292TIP3    H125367   0.667   2.513  11.179  0.2725  0.8867 -1.4220
 1292TIP3    H225368   0.530   2.484  11.122 -0.3110 -1.6849  1.0854
 1293TIP3   OH225369   4.613   5.550   0.272 -0.1494  0.3733  0.0379
 1293TIP3    H125370   4.611   5.601   0.191  0.1592  1.8911  0.9622
 1293TIP3    H225371   4.643   5.463   0.244 -1.5147  0.3985 -1.6935
 1294TIP3   OH225372   3.455   5.716  14.386 -0.3720  0.4467  0.1611
 1294TIP3    H125373   3.451   5.692  14.293 -0.8396  0.8040  0.0827
 1294TIP3    H225374   3.520   5.657  14.423 -0.5488 -0.0457 -0.2922
 1295TIP3   OH225375   4.082   4.187   4.061 -0.5451 -0.0510 -0.1131
 1295TIP3    H125376   4.144   4.211   4.130 -2.2702  0.9912  1.1551
 1295TIP3    H225377   4.110   4.238   3.985  0.9473 -0.6655 -0.0322
 1296TIP3   OH225378   1.554   1.832  16.865  0.3354  0.8726  0.4115
 1296TIP3    H125379   1.594   1.881  16.937 -0.4291 -0.6076  1.9192
 1296TIP3    H225380   1.555   1.741  16.895  1.0403  0.0191 -1.9656
 1297TIP3   OH225381   1.318   1.024  13.604 -0.2520  0.0982  0.1172
 1297TIP3    H125382   1.300   0.979  13.687  0.8152  0.9119  0.8272
 1297TIP3    H225383   1.347   0.955  13.545 -2.5307 -0.7494 -0.1027
 1298TIP3   OH225384   6.466   6.556  13.600  0.2537 -0.4659  0.1423
 1298TIP3    H125385   6.390   6.526  13.551 -1.0741  1.2320  1.0594
 1298TIP3    H225386   6.454   6.518  13.688  0.3889 -0.0724  0.3304
 1299TIP3   OH225387   6.262   5.928  11.397 -0.1082  0.1755 -0.1513
 1299TIP3    H125388   6.175   5.960  11.419 -0.6910 -0.6259 -1.2342
 1299TIP3    H225389   6.318   5.960  11.469 -1.5236 -0.4751  1.2999
 1300TIP3   OH225390   1.043   1.244   5.385 -0.2152  0.2139 -0.2336
 1300TIP3    H125391   1.066   1.238   5.292 -0.7407 -0.0886 -0.3457
 1300TIP3    H225392   1.051   1.337   5.405  2.1498  0.0184  0.0081
 1301TIP3   OH225393   3.736   3.853  13.889 -0.6547  0.0654  0.2811
 1301TIP3    H125394   3.783   3.784  13.937 -0.5213 -1.0142 -1.3169
 1301TIP3    H225395   3.657   3.869  13.941 -0.1181 -0.4608  1.2824
 1302TIP3   OH225396   6.321   4.303  15.273 -0.3706  0.0948 -0.1609
 1302TIP3    H125397   6.386   4.265  15.333 -2.0420 -0.0187  1.6679
 1302TIP3    H225398   6.362   4.384  15.242  1.3068 -0.7920 -0.3705
 1303TIP3   OH225399   6.432   5.406  15.232  0.3619  0.4645 -0.2794
 1303TIP3    H125400   6.438   5.312  15.250  0.8713  0.4546 -0.4728
 1303TIP3    H225401   6.431   5.411  15.136  1.7859  0.7274 -0.2987
 1304TIP3   OH225402   4.293   3.863   0.700 -0.0140  0.2742  0.1775
 1304TIP3    H125403   4.354   3.922   0.744  0.0354  0.0002  0.4761
 1304TIP3    H225404   4.206   3.897   0.725  0.0001 -0.4346  1.2636
 1305TIP3   OH225405   3.262   3.509  15.028  0.6371  0.4582  0.0190
 1305TIP3    H125406   3.317   3.439  15.063  1.4470  0.3317 -1.4451
 1305TIP3    H225407   3.302   3.590  15.060  0.1356  0.2980  1.0909
 1306TIP3   OH225408   3.572   1.575  13.164  0.0466  0.0738  0.5604
 1306TIP3    H125409   3.617   1.625  13.232 -0.0767 -0.2467  0.8843
 1306TIP3    H225410   3.487   1.619  13.155 -0.4111 -0.5806  1.4688
 1307TIP3   OH225411   1.880   1.867  11.284  0.4372 -0.2229  0.2114
 1307TIP3    H125412   1.880   1.772  11.268 -0.6324 -0.3905  1.0688
 1307TIP3    H225413   1.867   1.875  11.379  0.8350  0.7850  0.1906
 1308TIP3   OH225414   3.968   3.930   3.795  0.4578  0.2964  0.4638
 1308TIP3    H125415   4.029   3.929   3.869  0.7727 -0.7355  0.1976
 1308TIP3    H225416   3.966   3.840   3.763  1.0243  0.8749 -1.3533
 1309TIP3   OH225417   5.819   4.508   4.403  0.3556 -0.2138  0.1380
 1309TIP3    H125418   5.864   4.477   4.482 -1.5457 -0.7564  1.0612
 1309TIP3    H225419   5.834   4.603   4.402 -0.7549  0.0204  1.9678
 1310TIP3   OH225420   4.146   4.425   0.245  0.0285 -0.5203 -0.1343
 1310TIP3    H125421   4.119   4.451   0.333  1.1214 -1.7631  0.6137
 1310TIP3    H225422   4.158   4.331   0.250  1.0148 -0.4971 -1.3662
 1311TIP3   OH225423   5.357   4.871  11.694 -0.1436 -0.3200  1.0495
 1311TIP3    H125424   5.313   4.852  11.612  0.2577  0.6736  0.5877
 1311TIP3    H225425   5.365   4.786  11.737 -0.1189 -0.8888 -0.0448
 1312TIP3   OH225426   3.358   2.719   3.015  0.6482 -0.4012 -0.0914
 1312TIP3    H125427   3.417   2.791   3.038  0.1055 -0.1615  0.5481
 1312TIP3    H225428   3.351   2.667   3.094 -1.7057  0.7609  0.5466
 1313TIP3   OH225429   2.458   0.208  14.153 -0.2298 -0.3505 -0.4656
 1313TIP3    H125430   2.531   0.221  14.092  0.2647 -0.8696 -0.0045
 1313TIP3    H225431   2.492   0.144  14.217 -0.7614  0.1169  0.3000
 1314TIP3   OH225432   0.586   1.613   0.646 -0.0135  0.3230  0.8376
 1314TIP3    H125433   0.552   1.577   0.564 -0.4763  0.8876  0.7681
 1314TIP3    H225434   0.508   1.641   0.694  0.1504 -1.3025  2.1260
 1315TIP3   OH225435   2.595   0.505  14.418 -0.1254  0.3625 -0.0752
 1315TIP3    H125436   2.519   0.463  14.378 -0.3890  2.0644 -1.4488
 1315TIP3    H225437   2.668   0.480  14.361  0.0192  0.3648  0.1071
 1316TIP3   OH225438   0.542   0.362  16.980 -0.3238 -0.2743 -0.1653
 1316TIP3    H125439   0.590   0.317  16.910  1.1205  1.0957 -0.1082
 1316TIP3    H225440   0.557   0.455  16.963  1.6416  0.1243  2.9562
 1317TIP3   OH225441   6.317   1.558  11.420  0.3921  0.2499  0.0716
 1317TIP3    H125442   6.326   1.557  11.516  2.3503  0.0930 -0.0647
 1317TIP3    H225443   6.333   1.649  11.396  1.6200 -0.0211 -0.2036
 1318TIP3   OH225444   5.650   5.957   2.393  0.2383  0.1295  0.4438
 1318TIP3    H125445   5.639   5.905   2.473  0.4781 -0.2645  0.2269
 1318TIP3    H225446   5.740   5.990   2.399  0.5847 -0.6679 -0.0960
 1319TIP3   OH225447   0.122   5.766  14.417 -0.5043 -0.2154 -0.3194
 1319TIP3    H125448   0.165   5.706  14.356  1.7319  0.4834  0.4623
 1319TIP3    H225449   0.189   5.785  14.483 -1.6036  1.9844  0.2609
 1320TIP3   OH225450   1.782   5.382   5.338  0.1813  0.2220  0.3425
 1320TIP3    H125451   1.841   5.427   5.278 -0.0343  0.8216  0.5734
 1320TIP3    H225452   1.807   5.414   5.424 -0.4335  0.4209  0.4470
 1321TIP3   OH225453   4.431   5.558  13.888 -0.4842 -0.1707  0.0441
 1321TIP3    H125454   4.516   5.565  13.844 -1.2185  0.4330 -1.3290
 1321TIP3    H225455   4.394   5.646  13.883 -1.7814 -0.7296 -0.5999
 1322TIP3   OH225456   1.436   3.053  13.266  0.2720  0.2247 -0.3997
 1322TIP3    H125457   1.505   3.051  13.199  1.1179 -0.0525  0.4617
 1322TIP3    H225458   1.418   2.961  13.284  0.7710  0.2933  0.4772
 1323TIP3   OH225459   3.497   4.402   3.070  0.9215  0.1892  0.5112
 1323TIP3    H125460   3.408   4.412   3.036  1.2420  1.7701  0.0487
 1323TIP3    H225461   3.494   4.322   3.122 -1.3711  1.3650  2.3683
 1324TIP3   OH225462   0.182   0.090   5.426  0.1821 -0.0765 -0.2200
 1324TIP3    H125463   0.215   0.161   5.370  2.7017 -0.5184  0.5701
 1324TIP3    H225464   0.184   0.013   5.370  0.5880 -0.1133 -0.1576
 1325TIP3   OH225465   6.622   5.055   0.115  0.5751  0.7804 -0.5931
 1325TIP3    H125466   6.562   5.114   0.070 -0.3736 -0.1155 -0.5527
 1325TIP3    H225467   6.669   5.110   0.177  0.8922  1.7718 -1.6867
 1326TIP3   OH225468   0.614   2.626   2.223 -0.2805 -0.2811  0.1144
 1326TIP3    H125469   0.597   2.717   2.198 -0.8137 -0.6046 -0.7519
 1326TIP3    H225470   0.688   2.599   2.169  0.6389 -0.0131  1.2169
 1327TIP3   OH225471   5.437   1.195  14.347 -0.4550  0.4411 -0.0096
 1327TIP3    H125472   5.437   1.141  14.268 -0.6987  2.0306 -1.1634
 1327TIP3    H225473   5.405   1.138  14.416 -1.9602 -0.5298 -1.4335
 1328TIP3   OH225474   0.331   2.491   4.998 -0.1562  0.2870 -0.0219
 1328TIP3    H125475   0.288   2.491   5.083 -0.7843  0.5944 -0.3313
 1328TIP3    H225476   0.367   2.579   4.989  0.3269  0.1077  0.1276
 1329TIP3   OH225477   5.796   2.468  12.634  0.6140  0.1990  0.3508
 1329TIP3    H125478   5.876   2.433  12.673  0.6557  0.1825  0.2504
 1329TIP3    H225479   5.751   2.391  12.600  0.1976  0.1212  1.0618
 1330TIP3   OH225480   3.660   1.886  11.051 -0.0274 -0.3010 -0.7222
 1330TIP3    H125481   3.754   1.907  11.052 -0.0315 -0.2284  1.0603
 1330TIP3    H225482   3.616   1.971  11.049 -0.0334 -0.2395  0.8952
 1331TIP3   OH225483   3.091   0.078  16.148 -0.2067  0.1315  0.8806
 1331TIP3    H125484   3.126   0.037  16.227 -0.8699 -0.2447  0.9829
 1331TIP3    H225485   3.154   0.055  16.080 -1.6127 -2.9497  0.4493
 1332TIP3   OH225486   0.569   1.417   1.548 -0.2736 -0.0351 -0.4942
 1332TIP3    H125487   0.572   1.512   1.535 -1.5193 -0.3125 -3.4899
 1332TIP3    H225488   0.476   1.395   1.549 -0.0029 -1.2595  0.1250
 1333TIP3   OH225489   4.186   0.171   5.870  0.6676  0.4059 -0.3881
 1333TIP3    H125490   4.179   0.162   5.965  0.5005 -1.7895 -0.5554
 1333TIP3    H225491   4.271   0.215   5.857  0.6399  0.8494  0.7594
 1334TIP3   OH225492   1.620   2.836  14.171  0.5810  0.1935  0.2310
 1334TIP3    H125493   1.716   2.833  14.166  0.5930  0.6382  0.1434
 1334TIP3    H225494   1.602   2.879  14.254  0.4707  1.0999 -0.2531
 1335TIP3   OH225495   5.858   1.520  13.562  0.3082  0.3874 -0.5444
 1335TIP3    H125496   5.903   1.438  13.582  0.1931  0.1644 -1.1593
 1335TIP3    H225497   5.832   1.510  13.470 -1.1970  0.3930 -0.1474
 1336TIP3   OH225498   2.174   4.810  10.846  0.1897  0.3219  0.2020
 1336TIP3    H125499   2.240   4.777  10.907  0.8556  0.0057 -0.6811
 1336TIP3    H225500   2.221   4.871  10.790 -0.4159  0.6025 -0.0047
 1337TIP3   OH225501   3.555   3.142  13.717 -0.3642 -0.2152  0.2275
 1337TIP3    H125502   3.497   3.129  13.791  0.1389 -0.0598  0.6575
 1337TIP3    H225503   3.527   3.224  13.678  0.0688  0.2680  0.9144
 1338TIP3   OH225504   2.504   6.735  14.047  0.9860 -0.0989  0.3529
 1338TIP3    H125505   2.559   6.803  14.008  1.0857  0.4876  1.4553
 1338TIP3    H225506   2.555   6.704  14.122  0.7432 -1.0826  0.1273
 1339TIP3   OH225507   1.681   5.786  13.233 -0.0076 -0.4742 -0.0366
 1339TIP3    H125508   1.594   5.783  13.194 -0.5161  0.5985  0.9824
 1339TIP3    H225509   1.729   5.850  13.180 -0.6117  0.7695  0.8762
 1340TIP3   OH225510   1.771   0.184   2.137  0.2609 -0.1174 -0.4802
 1340TIP3    H125511   1.841   0.169   2.072  2.0896  1.2950  1.0419
 1340TIP3    H225512   1.788   0.118   2.205  0.6261  0.7137  0.2552
 1341TIP3   OH225513   5.147   2.232   0.414 -0.5759  0.2100 -0.4685
 1341TIP3    H125514   5.115   2.278   0.336  1.1874  1.1580 -0.6758
 1341TIP3    H225515   5.223   2.182   0.383  1.4075  2.1762  0.9675
 1342TIP3   OH225516   6.545   1.669  13.013  0.1806  0.5624  0.3655
 1342TIP3    H125517   6.547   1.574  13.002  0.0356  0.4745  1.0571
 1342TIP3    H225518   6.463   1.687  13.059  0.2597  1.0110  0.3405
 1343TIP3   OH225519   3.195   3.011  14.608 -0.7670  0.4583 -0.2420
 1343TIP3    H125520   3.130   3.080  14.590  0.3317  1.5260 -0.2201
 1343TIP3    H225521   3.251   3.012  14.530  0.0548  0.5133  0.3498
 1344TIP3   OH225522   6.043   5.514  11.898 -0.3855 -0.0748 -0.4893
 1344TIP3    H125523   6.044   5.595  11.847 -0.9462 -0.3363 -0.9230
 1344TIP3    H225524   6.020   5.446  11.835 -1.2654 -0.3796  0.1385
 1345TIP3   OH225525   6.790   5.754  16.019 -0.6860  0.5468 -0.1056
 1345TIP3    H125526   6.713   5.733  15.967 -0.8620 -1.8313  0.9610
 1345TIP3    H225527   6.762   5.741  16.109  0.9655 -0.5457  0.2928
 1346TIP3   OH225528   2.298   5.343  12.288 -0.1997 -0.3988  0.1552
 1346TIP3    H125529   2.317   5.326  12.380 -0.6306 -1.2969  0.0945
 1346TIP3    H225530   2.381   5.374  12.251  0.2394 -0.9864  0.6267
 1347TIP3   OH225531   5.182   0.147   2.403  0.2917  0.3056  0.3603
 1347TIP3    H125532   5.231   0.113   2.329 -0.2921 -0.4933  0.3230
 1347TIP3    H225533   5.131   0.072   2.434 -1.6940  1.3167 -0.2519
 1348TIP3   OH225534   4.492   1.010  14.140 -0.0892 -0.1177  0.0195
 1348TIP3    H125535   4.477   0.931  14.088  1.4991 -0.4241 -0.0315
 1348TIP3    H225536   4.422   1.010  14.205  0.3826 -2.0660  0.5910
 1349TIP3   OH225537   4.384   6.370   2.922 -0.2151 -0.0998  0.2540
 1349TIP3    H125538   4.327   6.301   2.887 -0.8836  1.9103 -3.0034
 1349TIP3    H225539   4.469   6.327   2.934 -0.6740 -1.5675 -1.3795
 1350TIP3   OH225540   1.079   6.541  14.858 -0.2937 -0.3712 -0.3097
 1350TIP3    H125541   1.115   6.628  14.841 -0.3543 -0.4335 -0.7846
 1350TIP3    H225542   1.065   6.538  14.952 -0.5499  0.2408 -0.3240
 1351TIP3   OH225543   5.622   4.427  14.348  0.2938  0.2911  0.0049
 1351TIP3    H125544   5.567   4.501  14.371 -1.6424  0.1586 -3.4898
 1351TIP3    H225545   5.564   4.351  14.350  1.5831 -0.7187  0.9138
 1352TIP3   OH225546   5.740   2.855  11.694 -0.2248 -0.1326  0.3945
 1352TIP3    H125547   5.804   2.853  11.766 -1.8503  0.9089  1.9650
 1352TIP3    H225548   5.790   2.828  11.617  1.5216 -1.6615  1.9592
 1353TIP3   OH225549   6.064   2.775   5.121 -0.1931 -0.0717  0.3277
 1353TIP3    H125550   6.146   2.726   5.124  0.4979  0.9327 -0.9443
 1353TIP3    H225551   6.040   2.788   5.212  1.2192 -0.1398  0.7296
 1354TIP3   OH225552   5.470   3.925   3.407  0.0215 -0.0543 -0.5183
 1354TIP3    H125553   5.413   3.848   3.405 -0.1268  0.0614 -0.9710
 1354TIP3    H225554   5.426   3.988   3.348 -0.4612  0.7943  0.7109
 1355TIP3   OH225555   2.282   3.256   0.089 -0.1890  0.5609 -0.0682
 1355TIP3    H125556   2.363   3.248   0.140 -0.8872  2.5779  1.5057
 1355TIP3    H225557   2.257   3.166   0.068  0.0184 -0.4236  3.3746
 1356TIP3   OH225558   0.723   1.202   4.471  0.7088 -0.7143 -0.0163
 1356TIP3    H125559   0.805   1.154   4.485  0.8101 -0.5856 -0.1759
 1356TIP3    H225560   0.698   1.231   4.559  1.3236  0.0472 -0.0796
 1357TIP3   OH225561   0.535   4.082  10.980 -0.7439 -0.1457  0.6979
 1357TIP3    H125562   0.442   4.099  10.995 -1.0952 -2.8647  2.2087
 1357TIP3    H225563   0.536   3.999  10.931  0.8795 -0.3570  1.0399
 1358TIP3   OH225564   6.565   2.937  11.314 -0.4408  0.1348  0.5494
 1358TIP3    H125565   6.608   2.903  11.393  0.3027 -0.4622 -0.0912
 1358TIP3    H225566   6.635   2.982  11.267 -1.0163  0.9909  0.5091
 1359TIP3   OH225567   1.640   1.903  12.445  0.5134 -0.2716  0.3014
 1359TIP3    H125568   1.609   1.819  12.478  0.9203 -0.6015 -0.1422
 1359TIP3    H225569   1.618   1.966  12.514  1.1761 -0.9149  1.1173
 1360TIP3   OH225570   2.878   0.653  11.454  0.0938  0.1759  1.0710
 1360TIP3    H125571   2.820   0.674  11.527 -1.1115  0.4684  0.0631
 1360TIP3    H225572   2.912   0.566  11.475 -0.2940  0.2167  1.9210
 1361TIP3   OH225573   0.232   2.905  15.651  0.5708 -0.0278 -0.2010
 1361TIP3    H125574   0.194   2.817  15.644  2.3581 -1.1030  2.0740
 1361TIP3    H225575   0.319   2.897  15.611  1.3913  0.1929  1.4418
 1362TIP3   OH225576   5.541   2.502  13.253 -0.5889  0.2019 -0.6765
 1362TIP3    H125577   5.447   2.508  13.235 -0.6887  0.6660 -0.0140
 1362TIP3    H225578   5.582   2.537  13.174 -0.9737  0.3305 -0.8231
 1363TIP3   OH225579   5.378   3.830  13.491 -0.5336  0.4508  0.1413
 1363TIP3    H125580   5.301   3.848  13.438 -2.1807 -3.2091  0.9452
 1363TIP3    H225581   5.408   3.744  13.461  0.6111 -0.1360  2.6784
 1364TIP3   OH225582   2.533   0.667  10.625 -0.2169 -0.0439  0.0676
 1364TIP3    H125583   2.584   0.727  10.680 -0.6398  0.9674 -0.6074
 1364TIP3    H225584   2.460   0.639  10.682 -0.6776  1.0264  0.0326
 1365TIP3   OH225585   4.603   4.955  15.440 -0.1463 -0.1773 -0.2733
 1365TIP3    H125586   4.574   4.952  15.531  0.1156 -0.2513 -0.1887
 1365TIP3    H225587   4.690   4.915  15.442  0.7775  1.7159 -0.2065
 1366TIP3   OH225588   6.438   4.587   0.957  0.0856 -0.3485  0.2040
 1366TIP3    H125589   6.359   4.536   0.976  0.6029 -1.3650 -0.2541
 1366TIP3    H225590   6.510   4.534   0.993  0.4271  1.7802  3.0335
 1367TIP3   OH225591   5.367   1.260  11.487  0.1308 -0.1766 -0.2571
 1367TIP3    H125592   5.330   1.186  11.438 -0.8342  0.9901 -1.3304
 1367TIP3    H225593   5.333   1.248  11.576 -3.1202  0.9447 -1.2350
 1368TIP3   OH225594   0.214   6.377   1.759 -0.2512  0.4658 -0.4732
 1368TIP3    H125595   0.149   6.314   1.727 -1.0107  0.8555  0.2822
 1368TIP3    H225596   0.233   6.349   1.848  2.4200 -1.0642 -1.4189
 1369TIP3   OH225597   6.121   1.691   2.654  0.2840 -0.1547 -0.3303
 1369TIP3    H125598   6.210   1.709   2.684  0.0555 -1.2296  1.1275
 1369TIP3    H225599   6.066   1.748   2.707  0.0005 -0.6736 -0.0595
 1370TIP3   OH225600   4.914   3.644   1.965  0.4006  0.2840  0.0505
 1370TIP3    H125601   4.962   3.568   1.997 -0.1023  0.0513  0.2698
 1370TIP3    H225602   4.848   3.660   2.032  0.5429  0.9577  0.0368
 1371TIP3   OH225603   6.733   3.657  13.157  0.4446  0.1722  0.1691
 1371TIP3    H125604   6.821   3.631  13.132 -0.0829 -1.6324 -0.0123
 1371TIP3    H225605   6.744   3.736  13.209  2.2367 -0.4916  0.8534
 1372TIP3   OH225606   4.161   6.774   3.200 -0.2391  0.3243 -0.1394
 1372TIP3    H125607   4.188   6.865   3.208 -1.4896  0.5859  1.8875
 1372TIP3    H225608   4.212   6.727   3.266 -0.8427 -0.1343  0.0130
 1373TIP3   OH225609   3.306   5.404  16.166 -0.2616  0.2944 -0.7024
 1373TIP3    H125610   3.335   5.494  16.153  2.7537 -0.3669  0.5988
 1373TIP3    H225611   3.241   5.409  16.236  0.1790  1.4131 -0.3681
 1374TIP3   OH225612   6.369   2.910  12.197  0.1151  0.0666  0.0682
 1374TIP3    H125613   6.361   2.966  12.273  1.2917  0.6420 -0.2172
 1374TIP3    H225614   6.463   2.899  12.184  0.0894  2.1045 -2.8124
 1375TIP3   OH225615   3.925   2.800  10.829  0.4587 -0.3745 -0.0859
 1375TIP3    H125616   3.948   2.883  10.787 -0.2251 -1.2618 -2.4211
 1375TIP3    H225617   3.830   2.800  10.831  0.4640 -0.9374  0.2484
 1376TIP3   OH225618   2.665   1.183  12.298  0.2642  0.6463  0.5825
 1376TIP3    H125619   2.698   1.271  12.279  1.4424  0.2991  0.8805
 1376TIP3    H225620   2.712   1.126  12.237  2.9982 -0.2925  3.3002
 1377TIP3   OH225621   1.271   4.305  16.368  0.1236  0.2810 -0.2054
 1377TIP3    H125622   1.192   4.337  16.411  0.5026  2.2780 -0.9045
 1377TIP3    H225623   1.343   4.344  16.417  0.5976  0.8176 -1.2902
 1378TIP3   OH225624   2.044   1.164   4.563  0.0045 -0.7313  0.3426
 1378TIP3    H125625   2.035   1.072   4.587 -1.0969 -0.4816  0.9578
 1378TIP3    H225626   2.083   1.205   4.641  0.5852 -0.6790  0.0337
 1379TIP3   OH225627   1.649   3.790   1.397 -0.0859 -0.0321  0.1199
 1379TIP3    H125628   1.557   3.801   1.373 -0.9961  0.3790  3.4014
 1379TIP3    H225629   1.669   3.865   1.453  1.9986 -0.5796  0.1926
 1380TIP3   OH225630   0.567   2.725   3.821  0.1142 -0.2039  0.0892
 1380TIP3    H125631   0.483   2.684   3.837  0.5784 -1.6947 -1.0443
 1380TIP3    H225632   0.605   2.739   3.908 -1.5944  1.2446  0.6531
 1381TIP3   OH225633   0.180   4.757   2.067  0.3566  0.0709 -0.3335
 1381TIP3    H125634   0.098   4.785   2.107 -0.1581 -0.6154 -0.8861
 1381TIP3    H225635   0.246   4.769   2.136 -0.2476  0.3854  0.1972
 1382TIP3   OH225636   6.570   3.046   6.108 -0.1443 -0.2656 -0.2168
 1382TIP3    H125637   6.604   3.036   6.019  0.8189  1.6367 -0.0997
 1382TIP3    H225638   6.643   3.082   6.158 -0.9714 -0.3831  1.1208
 1383TIP3   OH225639   0.056   0.736  10.853 -0.4511  0.1272 -0.4092
 1383TIP3    H125640   0.138   0.783  10.836 -0.6314  0.2407 -0.9985
 1383TIP3    H225641   0.006   0.796  10.908  1.0844 -1.2025  2.6691
 1384TIP3   OH225642   5.253   1.547   0.751 -0.3620 -0.3740  0.5330
 1384TIP3    H125643   5.248   1.492   0.829  0.9380 -0.0008  0.9115
 1384TIP3    H225644   5.231   1.488   0.679  0.0074 -1.1410  1.0283
 1385TIP3   OH225645   0.073   3.056   0.713 -0.2343 -0.2927  0.1269
 1385TIP3    H125646   0.097   3.089   0.626  1.7215  0.7840  1.0014
 1385TIP3    H225647   0.041   3.133   0.759 -1.4295 -0.8969  0.3448
 1386TIP3   OH225648   0.064   6.387  17.001 -0.1250  0.1455  0.1321
 1386TIP3    H125649   0.050   6.479  17.021 -2.1422 -0.4365  1.7399
 1386TIP3    H225650  -0.024   6.350  16.992  0.6105 -1.7179  0.0144
 1387TIP3   OH225651   4.612   4.210   2.559  0.2949  0.3180 -0.0259
 1387TIP3    H125652   4.641   4.289   2.513  0.2753  0.2307 -0.1872
 1387TIP3    H225653   4.553   4.166   2.498 -0.2483  0.5365  0.3326
 1388TIP3   OH225654   1.341   1.011  14.165 -0.1845  0.1306 -0.6449
 1388TIP3    H125655   1.357   1.097  14.203 -0.4133  0.0630 -0.3994
 1388TIP3    H225656   1.276   1.027  14.096 -2.0676 -0.1965  0.9689
 1389TIP3   OH225657   2.608   5.726  13.413  0.2714  0.1306  0.1390
 1389TIP3    H125658   2.528   5.775  13.394 -2.3291 -2.5543  3.1868
 1389TIP3    H225659   2.649   5.773  13.485  1.2076  1.1115 -0.9717
 1390TIP3   OH225660   6.198   5.275   2.940  0.4960  0.4732  0.2444
 1390TIP3    H125661   6.247   5.325   3.005 -1.8727  0.8539  1.8630
 1390TIP3    H225662   6.184   5.190   2.980 -0.5117  0.5247  0.0343
 1391TIP3   OH225663   0.902   4.997  12.697  0.2767  0.1248 -0.2855
 1391TIP3    H125664   0.974   4.955  12.745  0.9069  0.5408 -0.8527
 1391TIP3    H225665   0.896   4.947  12.616 -1.3544 -1.1287  0.5293
 1392TIP3   OH225666   1.161   4.339  10.333 -0.1148  0.1412  0.0903
 1392TIP3    H125667   1.075   4.380  10.322 -0.2739 -0.5696 -1.6760
 1392TIP3    H225668   1.147   4.247  10.310  1.2178  0.1501 -0.8531
 1393TIP3   OH225669   1.624   3.087  14.049 -0.1893 -0.3256  0.0081
 1393TIP3    H125670   1.664   3.004  14.074 -0.5830 -0.4209  0.3605
 1393TIP3    H225671   1.687   3.129  13.991 -0.3374 -1.2326 -0.8300
 1394TIP3   OH225672   4.326   2.087   0.425 -0.1458 -0.0187 -0.1961
 1394TIP3    H125673   4.395   2.149   0.449 -0.6444  0.3256  0.3963
 1394TIP3    H225674   4.306   2.041   0.506 -1.4188  0.7113 -0.0708
 1395TIP3   OH225675   1.180   1.856   0.519  0.3437 -0.2670  0.7404
 1395TIP3    H125676   1.234   1.814   0.452  2.2912 -0.5500  2.3931
 1395TIP3    H225677   1.126   1.918   0.471  1.1989 -0.9122 -1.1486
 1396TIP3   OH225678   2.735   6.078   3.351  0.0238 -0.1696 -0.0140
 1396TIP3    H125679   2.752   6.154   3.406  2.3093 -0.0311 -0.7893
 1396TIP3    H225680   2.727   6.113   3.263 -3.2158 -0.4294  0.0719
 1397TIP3   OH225681   3.817   6.385  12.750 -0.3379  0.5913  0.2822
 1397TIP3    H125682   3.859   6.362  12.667  0.2125  1.6940  0.2401
 1397TIP3    H225683   3.726   6.403  12.727  0.1259  2.3290 -0.3670
 1398TIP3   OH225684   6.101   0.073   2.169 -0.0585 -0.2239 -0.3484
 1398TIP3    H125685   6.140   0.153   2.204 -2.2582  0.7549  0.0133
 1398TIP3    H225686   6.114   0.008   2.237  2.0210 -0.3235 -0.7634
 1399TIP3   OH225687   6.362   0.518  15.788 -0.0813  0.6466  0.1449
 1399TIP3    H125688   6.434   0.535  15.849 -1.1562 -0.1212  1.6904
 1399TIP3    H225689   6.289   0.569  15.822 -1.4893 -1.8422  1.1482
 1400TIP3   OH225690   3.113   2.619  17.029  0.1209  0.6866  0.6545
 1400TIP3    H125691   3.188   2.606  16.972  0.4519  1.2250  0.9603
 1400TIP3    H225692   3.082   2.708  17.008 -1.1231  0.0765 -0.2736
 1401TIP3   OH225693   2.044   3.298   3.792 -0.1104 -0.8729  0.1767
 1401TIP3    H125694   1.997   3.352   3.729  2.6686 -0.2873 -1.5609
 1401TIP3    H225695   2.055   3.355   3.868 -0.3080 -0.2686 -0.2362
 1402TIP3   OH225696   4.585   0.300  13.021  0.2830 -0.1585 -0.5255
 1402TIP3    H125697   4.493   0.274  13.015  0.4468 -0.7376 -0.6454
 1402TIP3    H225698   4.584   0.395  13.010 -0.6169  0.3117  2.6189
 1403TIP3   OH225699   5.431   4.237  14.410 -0.1132 -0.0633 -0.5238
 1403TIP3    H125700   5.418   4.237  14.504  0.9856  1.9592 -0.3243
 1403TIP3    H225701   5.362   4.179  14.376 -0.8086 -0.4562  1.4561
 1404TIP3   OH225702   5.315   3.738  13.179 -0.6091 -0.0765 -0.3706
 1404TIP3    H125703   5.388   3.781  13.134 -0.6672 -0.8805 -1.2642
 1404TIP3    H225704   5.357   3.690  13.251 -0.1765 -0.8782 -1.1306
 1405TIP3   OH225705   3.412   0.116  11.424 -0.7126 -0.4790  0.6152
 1405TIP3    H125706   3.412   0.147  11.333  3.7136  2.8844  1.4538
 1405TIP3    H225707   3.341   0.165  11.466 -1.1323 -0.1250 -0.4713
 1406TIP3   OH225708   3.861   0.658   2.236 -0.3973 -0.5318 -0.1531
 1406TIP3    H125709   3.926   0.710   2.283 -2.6495  1.8926  0.5087
 1406TIP3    H225710   3.896   0.652   2.147  1.6077 -0.9953  0.6125
 1407TIP3   OH225711   6.843   0.695  13.929  0.5567  0.3526  0.1118
 1407TIP3    H125712   6.750   0.719  13.929  0.1913 -1.0166 -0.2276
 1407TIP3    H225713   6.861   0.670  13.838  1.4938  1.4440 -0.0264
 1408TIP3   OH225714   5.811   6.438  15.605  0.5321  0.5402 -0.0727
 1408TIP3    H125715   5.802   6.347  15.631  0.0996  0.0794 -1.7205
 1408TIP3    H225716   5.754   6.486  15.665 -1.3597 -0.6127 -0.8643
 1409TIP3   OH225717   0.480   6.796  16.099 -0.0766  0.1865  0.0648
 1409TIP3    H125718   0.437   6.710  16.104 -0.4599  0.2268 -1.8919
 1409TIP3    H225719   0.514   6.811  16.187  0.3007 -2.1267  0.3679
 1410TIP3   OH225720   1.919   2.249   2.320 -0.4641  0.6055  0.3306
 1410TIP3    H125721   1.921   2.343   2.303  0.8291  0.7207  0.9389
 1410TIP3    H225722   2.010   2.227   2.341 -0.4992 -1.0203 -1.0173
 1411TIP3   OH225723   2.209   0.241  16.856 -0.4425 -0.0349  0.0019
 1411TIP3    H125724   2.167   0.327  16.859 -0.5797  0.1275 -3.1190
 1411TIP3    H225725   2.303   0.260  16.865 -0.4156  0.5485 -1.3101
 1412TIP3   OH225726   2.029   5.594   2.549 -0.3644  0.0164 -0.1387
 1412TIP3    H125727   1.975   5.548   2.613 -0.8635  0.3015 -0.3456
 1412TIP3    H225728   2.118   5.587   2.583 -0.6068  0.0480  0.5190
 1413TIP3   OH225729   3.519   5.732  14.723  0.4080  0.3445  0.2528
 1413TIP3    H125730   3.444   5.672  14.727  0.8309 -0.2579 -0.4991
 1413TIP3    H225731   3.591   5.682  14.761  0.7064  0.4539 -0.1567
 1414TIP3   OH225732   4.447   0.843  13.380  0.4088  0.3039 -0.0939
 1414TIP3    H125733   4.514   0.885  13.326  0.7031  1.2868  0.9835
 1414TIP3    H225734   4.495   0.807  13.454 -0.3417  2.1551  1.3677
 1415TIP3   OH225735   6.519   6.076  16.679  0.1305  0.3176 -0.0424
 1415TIP3    H125736   6.426   6.054  16.688  0.1649  0.6800  1.5052
 1415TIP3    H225737   6.522   6.171  16.693  0.8652  0.1265  1.2045
 1416TIP3   OH225738   0.351   1.393  11.138  0.1543  0.0575  0.5000
 1416TIP3    H125739   0.347   1.339  11.217 -0.1793 -1.3863 -0.4596
 1416TIP3    H225740   0.443   1.390  11.112  0.6740  2.1209  1.8286
 1417TIP3   OH225741   4.885   3.333   1.129 -0.3916  0.1070  0.3945
 1417TIP3    H125742   4.973   3.297   1.125 -0.8489 -1.1760  1.1672
 1417TIP3    H225743   4.888   3.397   1.200  0.0394  0.5041  0.0317
 1418TIP3   OH225744   1.075   2.411  12.562 -0.4074 -0.2035  0.1056
 1418TIP3    H125745   1.141   2.342  12.565  0.1794  0.2739 -1.1556
 1418TIP3    H225746   0.997   2.369  12.526 -0.3511 -0.4335  0.2557
 1419TIP3   OH225747   4.962   1.428  12.404 -0.5660 -0.2169  0.3254
 1419TIP3    H125748   4.954   1.349  12.351  1.3152 -1.4753  1.7715
 1419TIP3    H225749   5.046   1.418  12.450 -1.5601  1.2835  2.6825
 1420TIP3   OH225750   5.190   2.446  15.325 -0.1283  0.0572 -0.1934
 1420TIP3    H125751   5.268   2.438  15.271  1.0557  1.5749  1.1645
 1420TIP3    H225752   5.142   2.520  15.287  0.3633  0.6904  0.3849
 1421TIP3   OH225753   0.309   0.869  13.657  0.3492  0.1344  0.4181
 1421TIP3    H125754   0.351   0.824  13.730 -0.6213 -2.1185 -0.3116
 1421TIP3    H225755   0.311   0.805  13.586 -0.2961  1.6185 -0.9987
 1422TIP3   OH225756   3.475   4.998   5.342 -0.6866 -0.4851  0.0478
 1422TIP3    H125757   3.516   5.003   5.256 -2.2792  0.2022 -0.7150
 1422TIP3    H225758   3.503   4.913   5.377  0.4579 -0.5205 -0.8799
 1423TIP3   OH225759   0.453   4.381   2.691  1.0335 -0.0909  0.3349
 1423TIP3    H125760   0.366   4.347   2.668  0.9470 -0.1232  0.7064
 1423TIP3    H225761   0.509   4.355   2.617  0.2950  1.8065 -0.9683
 1424TIP3   OH225762   6.338   3.939  15.199  0.3297  0.0789 -0.0600
 1424TIP3    H125763   6.415   3.979  15.159  0.4563 -0.6115 -0.5200
 1424TIP3    H225764   6.274   4.009  15.205  0.4969  0.3166 -0.9927
 1425TIP3   OH225765   1.947   0.064   4.165 -0.0700 -0.1390  0.3785
 1425TIP3    H125766   1.992   0.011   4.231  0.9387 -0.1926 -0.3202
 1425TIP3    H225767   1.861   0.024   4.157  0.2544 -0.9416  0.7146
 1426TIP3   OH225768   6.272   4.933  15.079 -0.2291 -0.2853 -0.4721
 1426TIP3    H125769   6.289   4.908  15.170 -0.3346  0.1185 -0.3393
 1426TIP3    H225770   6.262   4.850  15.033 -1.6590 -0.5081  0.1695
 1427TIP3   OH225771   0.188   4.654  11.776  0.0768  0.0096  0.1434
 1427TIP3    H125772   0.118   4.694  11.826  0.7697  0.3618  0.8517
 1427TIP3    H225773   0.146   4.621  11.696 -0.7738  0.7409  0.2835
 1428TIP3   OH225774   3.903   5.385  12.070  0.6978 -0.0245 -0.2026
 1428TIP3    H125775   3.825   5.381  12.015  0.3743  1.5236  0.0869
 1428TIP3    H225776   3.869   5.384  12.159  0.7219  3.3653 -0.0411
 1429TIP3   OH225777   2.316   4.246  14.457  0.2095  0.6891 -0.1363
 1429TIP3    H125778   2.308   4.166  14.405 -0.6992  1.1685 -0.7652
 1429TIP3    H225779   2.310   4.217  14.548 -2.9122  0.2731 -0.3688
 1430TIP3   OH225780   4.726   3.832  13.415  0.6944  0.1166  0.1472
 1430TIP3    H125781   4.673   3.754  13.400  0.0436  0.1728  1.9427
 1430TIP3    H225782   4.752   3.860  13.327 -1.8190 -0.2051 -0.7759
 1431TIP3   OH225783   2.715   5.699   1.457  0.3579 -0.4522 -0.0301
 1431TIP3    H125784   2.685   5.673   1.544  0.4849  0.7052  0.3756
 1431TIP3    H225785   2.645   5.671   1.398 -0.9586  1.0213  0.7456
 1432TIP3   OH225786   1.216   3.958  14.891 -0.4444  0.4591 -0.1179
 1432TIP3    H125787   1.219   4.000  14.977 -2.4651  0.1969  0.1164
 1432TIP3    H225788   1.153   4.010  14.841  0.7831  0.6805 -1.5151
 1433TIP3   OH225789   2.492   4.209   5.211 -0.0535  0.1975 -0.0300
 1433TIP3    H125790   2.402   4.241   5.201 -0.1715  0.7781  2.2734
 1433TIP3    H225791   2.537   4.279   5.259  1.0454 -0.9593  0.7041
 1434TIP3   OH225792   3.675   2.725   4.632  0.0193  0.2602 -0.5325
 1434TIP3    H125793   3.593   2.719   4.582 -0.3594  0.6899  0.0319
 1434TIP3    H225794   3.673   2.812   4.670  0.1049 -0.2180  0.5916
 1435TIP3   OH225795   5.067   0.812   6.766  0.1009 -0.1500  0.3721
 1435TIP3    H125796   4.999   0.766   6.717  1.3557 -1.6877 -0.0012
 1435TIP3    H225797   5.020   0.881   6.813 -1.3890  0.2301 -1.5520
 1436TIP3   OH225798   3.156   0.246  12.136 -0.6348  0.0296 -0.1431
 1436TIP3    H125799   3.121   0.160  12.161 -1.5184  0.4767  0.2328
 1436TIP3    H225800   3.177   0.238  12.044  0.3496 -0.9263  0.1483
 1437TIP3   OH225801   5.973   2.745  10.354  0.7388  0.6313  0.5753
 1437TIP3    H125802   5.972   2.733  10.449  0.0320  0.1863  0.5137
 1437TIP3    H225803   5.894   2.797  10.336 -0.9613 -2.0121 -0.1072
 1438TIP3   OH225804   2.161   3.262  10.983  0.1910  0.2415 -0.1532
 1438TIP3    H125805   2.222   3.230  10.916  2.0977  0.4307  1.4162
 1438TIP3    H225806   2.096   3.192  10.992  2.1757 -1.5983  0.5820
 1439TIP3   OH225807   4.918   6.218  12.249 -0.4445  0.4228  0.1907
 1439TIP3    H125808   4.983   6.201  12.318 -2.3791 -2.1806  1.5114
 1439TIP3    H225809   4.851   6.270  12.292 -1.1427 -0.2924 -0.0184
 1440TIP3   OH225810   5.681   5.003  15.155  0.4224  0.6979  0.6753
 1440TIP3    H125811   5.589   5.030  15.154  0.2862  0.2483 -0.7599
 1440TIP3    H225812   5.678   4.907  15.153  0.9167  0.6758  0.9060
 1441TIP3   OH225813   6.655   3.853   4.530 -0.5946 -0.5332 -0.1663
 1441TIP3    H125814   6.747   3.875   4.518 -0.8855  0.7236 -0.2063
 1441TIP3    H225815   6.648   3.829   4.623 -0.3217 -0.1902 -0.0580
 1442TIP3   OH225816   4.627   3.578   5.378  0.5508 -0.5324 -0.2152
 1442TIP3    H125817   4.699   3.561   5.317 -1.0693 -1.2763 -1.9874
 1442TIP3    H225818   4.671   3.608   5.458  2.7355  0.9036 -1.8352
 1443TIP3   OH225819   6.488   6.377  14.334  0.5297  0.0112  0.5490
 1443TIP3    H125820   6.536   6.301  14.367 -0.2896 -0.6869  0.1908
 1443TIP3    H225821   6.460   6.351  14.246  0.4944  0.8490  0.3024
 1444TIP3   OH225822   3.630   6.370  17.088  0.6793 -0.3571  0.6311
 1444TIP3    H125823   3.695   6.427  17.129  1.9179 -1.8524  0.8379
 1444TIP3    H225824   3.679   6.291  17.064 -1.3712 -2.2640  2.3108
 1445TIP3   OH225825   1.008   6.382   5.404  0.4145  0.1560  0.1156
 1445TIP3    H125826   0.988   6.378   5.311  0.3244 -0.7430  0.1625
 1445TIP3    H225827   0.967   6.304   5.441  2.9238 -1.1367  0.4100
 1446TIP3   OH225828   6.739   6.590  14.542  1.1476  0.2407  0.0425
 1446TIP3    H125829   6.696   6.620  14.462  0.0974 -0.6189  0.2613
 1446TIP3    H225830   6.803   6.525  14.512 -1.5782 -2.6914  0.0487
 1447TIP3   OH225831   1.323   6.391   4.958 -0.3802  0.1486 -0.0994
 1447TIP3    H125832   1.256   6.418   4.895 -1.5456  1.1629  1.4939
 1447TIP3    H225833   1.330   6.464   5.019  1.2729 -0.4741  0.5123
 1448TIP3   OH225834   0.226   3.389  15.787 -0.0710  0.0530 -0.4780
 1448TIP3    H125835   0.162   3.388  15.716 -1.3633 -3.4797  0.5069
 1448TIP3    H225836   0.296   3.331  15.758  1.3424  1.6377 -0.3729
 1449TIP3   OH225837   1.913   5.685  16.945  0.4657 -0.1478  0.3291
 1449TIP3    H125838   1.943   5.772  16.920  1.0125 -0.2728  0.5423
 1449TIP3    H225839   1.841   5.667  16.885  0.1896  0.5500  0.4422
 1450TIP3   OH225840   3.978   2.879   6.421  0.2295 -0.2787  0.5502
 1450TIP3    H125841   4.015   2.793   6.400  1.1965 -0.0274  1.1928
 1450TIP3    H225842   4.023   2.906   6.501  0.0289  0.8855  0.2895
 1451TIP3   OH225843   2.939   4.580   3.683 -0.5188 -0.1732 -0.5047
 1451TIP3    H125844   2.899   4.568   3.769  2.3709  0.6373  1.0962
 1451TIP3    H225845   2.953   4.674   3.676  0.7235 -0.3821 -1.1344
 1452TIP3   OH225846   1.594   4.012   5.596 -0.1029 -0.2710  0.1335
 1452TIP3    H125847   1.572   3.931   5.549  1.7827 -0.0222 -1.2927
 1452TIP3    H225848   1.588   4.080   5.529 -0.8350  0.6537  1.1230
 1453TIP3   OH225849   4.016   0.634   3.599  0.1125  0.4020 -0.5338
 1453TIP3    H125850   4.004   0.689   3.522  0.3644  1.1484 -0.0488
 1453TIP3    H225851   4.111   0.618   3.603  0.2855  1.4769  0.3521
 1454TIP3   OH225852   1.006   1.797  14.523  0.0953  0.1908  0.4160
 1454TIP3    H125853   0.910   1.797  14.528  0.0691  2.0493  0.6132
 1454TIP3    H225854   1.035   1.788  14.614  0.0833  0.8605  0.4887
 1455TIP3   OH225855   5.023   5.052  11.153  0.2837 -0.2678 -0.3747
 1455TIP3    H125856   4.993   4.971  11.196 -1.2469  0.9374  0.9243
 1455TIP3    H225857   5.053   5.023  11.067  0.5206 -2.3362  0.3422
 1456TIP3   OH225858   3.452   2.384   4.652 -0.1704 -0.0323  0.3603
 1456TIP3    H125859   3.499   2.324   4.595 -1.3344  0.9354 -1.7469
 1456TIP3    H225860   3.455   2.468   4.606 -1.2834  0.7736  1.6703
 1457TIP3   OH225861   1.424   2.368  14.826 -1.0016 -0.4742 -0.0389
 1457TIP3    H125862   1.495   2.405  14.774 -0.2870  1.7180  2.2863
 1457TIP3    H225863   1.431   2.273  14.812  0.8916 -0.1631 -1.6689
 1458TIP3   OH225864   2.985   1.491   1.643  0.0552 -0.4985 -0.6746
 1458TIP3    H125865   3.072   1.518   1.616 -0.1876  0.9679 -0.0538
 1458TIP3    H225866   2.933   1.571   1.643 -1.5900 -1.4921 -2.0599
 1459TIP3   OH225867   4.583   2.947  11.529  0.3024 -0.0291  0.0524
 1459TIP3    H125868   4.529   2.945  11.450 -1.5608 -0.1485  1.2588
 1459TIP3    H225869   4.577   3.038  11.559  1.2141  0.0754 -0.0603
 1460TIP3   OH225870   3.093   0.861  12.523 -0.3719  0.8519 -0.3554
 1460TIP3    H125871   3.034   0.786  12.513  1.8998 -0.9168 -1.5508
 1460TIP3    H225872   3.163   0.829  12.579 -0.3716  2.8171  0.8443
 1461TIP3   OH225873   1.350   3.758  12.847 -0.8149  0.1832 -0.1418
 1461TIP3    H125874   1.283   3.691  12.861 -0.0674 -0.7482 -0.8374
 1461TIP3    H225875   1.385   3.775  12.935 -0.7160 -0.6732 -0.0047
 1462TIP3   OH225876   3.963   0.865  13.529 -0.2080 -0.2171 -0.2373
 1462TIP3    H125877   3.973   0.950  13.487 -1.3117 -0.3243 -0.7394
 1462TIP3    H225878   4.051   0.828  13.529  0.9030  2.0340  2.4624
 1463TIP3   OH225879   2.981   5.265   0.453 -0.4328 -0.0809 -0.3260
 1463TIP3    H125880   3.066   5.307   0.468 -0.5994  0.6869 -1.3886
 1463TIP3    H225881   2.991   5.222   0.368  0.0550 -3.1071  1.1285
 1464TIP3   OH225882   1.168   0.767  12.188 -0.2706 -0.2064  0.2172
 1464TIP3    H125883   1.157   0.795  12.279 -0.0560  1.7032 -0.3176
 1464TIP3    H225884   1.203   0.843  12.143  0.3242 -1.3507 -1.3413
 1465TIP3   OH225885   4.795   0.992   1.393 -0.2309  0.2605 -0.3504
 1465TIP3    H125886   4.797   0.950   1.479 -1.3370 -0.1301 -0.4953
 1465TIP3    H225887   4.854   1.067   1.401 -0.4492  0.3219  0.7992
 1466TIP3   OH225888   5.454   3.107   3.799 -0.2419  0.1664  0.4003
 1466TIP3    H125889   5.385   3.128   3.862  1.0108  1.3365  1.4457
 1466TIP3    H225890   5.438   3.165   3.725 -1.1274 -0.4950  0.0614
 1467TIP3   OH225891   6.381   2.736  14.774 -0.0838 -0.2555 -0.5608
 1467TIP3    H125892   6.454   2.777  14.727 -0.0494 -1.5940 -1.7345
 1467TIP3    H225893   6.384   2.776  14.861  0.8758  1.0845 -1.1637
 1468TIP3   OH225894   2.433   2.686   2.293 -0.1395 -0.3590 -0.2026
 1468TIP3    H125895   2.447   2.666   2.386 -0.9617 -2.2094 -0.4227
 1468TIP3    H225896   2.520   2.686   2.255  0.0480 -2.2766  0.1206
 1469TIP3   OH225897   2.574   6.052  10.948  0.1785 -0.4848 -0.0102
 1469TIP3    H125898   2.638   6.064  11.018  0.0827 -0.1184  0.0152
 1469TIP3    H225899   2.534   6.139  10.936  1.1129 -0.2043 -1.4132
 1470TIP3   OH225900   6.573   2.039   5.998 -0.0925  0.1893 -0.1335
 1470TIP3    H125901   6.536   1.991   6.071  0.0637  1.5201  0.8538
 1470TIP3    H225902   6.609   2.119   6.037  0.7460  0.5424 -1.5391
 1471TIP3   OH225903   1.886   4.074   0.124  0.5236  0.5240  0.1250
 1471TIP3    H125904   1.846   4.124   0.053 -0.6874  0.2293  0.5896
 1471TIP3    H225905   1.980   4.074   0.102  0.4304  2.0832 -0.4473
 1472TIP3   OH225906   0.225   5.860  13.003 -0.1331 -0.1880 -0.0826
 1472TIP3    H125907   0.130   5.848  12.999 -0.1209 -0.6978  0.7922
 1472TIP3    H225908   0.261   5.780  12.965 -0.0665 -1.6779  2.8598
 1473TIP3   OH225909   6.270   2.220   4.286 -0.2328 -0.1725  0.5269
 1473TIP3    H125910   6.334   2.226   4.357  0.1762  2.1969  0.0500
 1473TIP3    H225911   6.309   2.159   4.224 -0.7638 -2.5685  2.4194
 1474TIP3   OH225912   5.587   1.148   2.073 -0.5921  0.2081  0.0088
 1474TIP3    H125913   5.634   1.078   2.028  2.4839  2.6626 -0.9495
 1474TIP3    H225914   5.617   1.142   2.164  1.0229  1.1672 -0.4062
 1475TIP3   OH225915   3.118   3.598   1.984  0.6501  0.1992 -0.3847
 1475TIP3    H125916   3.160   3.520   1.949 -0.3940  0.3550 -2.1607
 1475TIP3    H225917   3.160   3.671   1.938 -0.2233  0.4664 -0.8041
 1476TIP3   OH225918   5.847   3.657   1.456  0.1867  0.8939  0.2522
 1476TIP3    H125919   5.764   3.621   1.426  0.5271  1.4141 -1.4684
 1476TIP3    H225920   5.825   3.712   1.531 -0.9735  0.7161  0.0523
 1477TIP3   OH225921   4.486   6.759  15.034  0.0485  0.6357 -0.1948
 1477TIP3    H125922   4.482   6.729  15.124  0.1826  1.8415  0.2282
 1477TIP3    H225923   4.475   6.680  14.981 -0.5988 -0.0024  0.8744
 1478TIP3   OH225924   4.363   5.513  14.370  0.3153  0.0867  0.4876
 1478TIP3    H125925   4.452   5.499  14.338 -0.0344 -0.5619 -0.2396
 1478TIP3    H225926   4.346   5.605  14.354 -0.3292 -0.4763 -2.5356
 1479TIP3   OH225927   5.125   5.878  14.163 -0.5339 -0.1912  1.1326
 1479TIP3    H125928   5.193   5.826  14.118 -1.0264  0.5442 -0.5454
 1479TIP3    H225929   5.116   5.836  14.249 -0.0425 -2.1115  0.3040
 1480TIP3   OH225930   4.796   5.955  15.780  0.1908 -0.8918 -0.6363
 1480TIP3    H125931   4.838   5.979  15.863  0.8240 -1.5120 -0.7681
 1480TIP3    H225932   4.811   6.031  15.723  1.5547 -1.2770 -0.8209
 1481TIP3   OH225933   0.515   2.281   4.718 -0.1861 -0.2776 -0.6905
 1481TIP3    H125934   0.592   2.224   4.722 -0.5190 -0.7804 -1.3155
 1481TIP3    H225935   0.548   2.368   4.741  0.5212 -0.5279 -0.7398
 1482TIP3   OH225936   5.185   3.967  12.128 -0.1030  0.1145  0.5593
 1482TIP3    H125937   5.148   3.880  12.142  0.0775  0.0500  0.6454
 1482TIP3    H225938   5.158   4.018  12.204 -2.7969  1.0387 -0.8924
 1483TIP3   OH225939   0.662   6.369  16.336  0.2726 -0.1959 -0.1117
 1483TIP3    H125940   0.754   6.392  16.351  0.3351 -1.7791  2.5392
 1483TIP3    H225941   0.664   6.312  16.259  1.4423  0.2043 -0.3925
 1484TIP3   OH225942   0.937   0.630  16.509 -0.6988 -0.6527 -0.0325
 1484TIP3    H125943   0.862   0.688  16.496 -0.5725  0.3712  3.0499
 1484TIP3    H225944   0.904   0.560  16.565  0.3422 -0.9044  0.2976
 1485TIP3   OH225945   5.533   3.760   3.944 -0.4486  0.0560  0.1714
 1485TIP3    H125946   5.583   3.768   4.025 -0.3597 -1.2574  0.2633
 1485TIP3    H225947   5.444   3.737   3.973 -1.0129  1.8413 -0.0139
 1486TIP3   OH225948   5.937   5.759   1.206  0.5900 -0.3606 -0.5672
 1486TIP3    H125949   5.955   5.827   1.271 -1.1285  0.4847 -0.9258
 1486TIP3    H225950   5.969   5.678   1.246  1.3113  0.4218  0.4949
 1487TIP3   OH225951   1.765   1.721   0.009  0.5062  0.1296  0.1220
 1487TIP3    H125952   1.788   1.814   0.011 -1.2126  0.6034 -0.6165
 1487TIP3    H225953   1.756   1.698   0.102  1.9323  0.3943  0.3636
 1488TIP3   OH225954   6.125   5.503  13.881 -0.1933 -0.5335 -0.1673
 1488TIP3    H125955   6.045   5.520  13.831 -0.1089  1.6672  0.3276
 1488TIP3    H225956   6.192   5.485  13.815 -0.4072  0.8597 -0.7889
 1489TIP3   OH225957   0.682   3.988  12.107  0.4667 -0.6742  0.1578
 1489TIP3    H125958   0.768   4.015  12.077 -0.8659 -0.4634 -4.2845
 1489TIP3    H225959   0.624   4.060  12.082 -1.4196 -2.2830 -0.4219
 1490TIP3   OH225960   1.064   6.531  15.926 -0.0510  0.2244  0.4054
 1490TIP3    H125961   1.081   6.597  15.858 -0.1394  0.6388  0.7792
 1490TIP3    H225962   1.114   6.454  15.898 -0.0253  0.4175 -0.0894
 1491TIP3   OH225963   4.397   6.204   3.373  0.7486  0.2160  0.6196
 1491TIP3    H125964   4.478   6.154   3.384  0.1645 -0.3639  2.8292
 1491TIP3    H225965   4.329   6.148   3.411 -0.9362  0.2312 -2.0808
 1492TIP3   OH225966   6.167   4.557  11.620  0.2744 -0.3736  0.3328
 1492TIP3    H125967   6.212   4.621  11.675  0.9025 -0.1840 -0.3837
 1492TIP3    H225968   6.190   4.582  11.530  0.5060 -1.5828  0.0363
 1493TIP3   OH225969   0.217   4.345   1.620 -0.1086 -0.2184  0.2015
 1493TIP3    H125970   0.292   4.400   1.598 -0.9283  0.5952 -0.6396
 1493TIP3    H225971   0.234   4.263   1.573  0.3097 -0.0828  0.1060
 1494TIP3   OH225972   2.219   0.207  12.725  0.1437  0.8463  0.0590
 1494TIP3    H125973   2.170   0.187  12.645  0.8558  1.9250 -0.6758
 1494TIP3    H225974   2.306   0.232  12.695  0.7409  0.2930  1.2518
 1495TIP3   OH225975   1.235   0.677   5.783  0.3019  0.7712 -0.1847
 1495TIP3    H125976   1.180   0.643   5.854  2.6265 -1.5101  0.6712
 1495TIP3    H225977   1.190   0.650   5.703 -0.6994  0.4860  0.4488
 1496TIP3   OH225978   2.152   0.861  13.793  0.6299 -0.3242 -0.6724
 1496TIP3    H125979   2.201   0.923  13.848  1.1844 -0.0428 -1.4655
 1496TIP3    H225980   2.147   0.782  13.845  1.3398 -0.1289 -0.2947
 1497TIP3   OH225981   2.131   5.709  11.039  0.6405  0.3791  0.5296
 1497TIP3    H125982   2.111   5.748  10.954 -0.1880 -3.2805 -1.1687
 1497TIP3    H225983   2.046   5.695  11.080  0.9317  0.5147  1.2046
 1498TIP3   OH225984   1.364   3.751  16.998 -0.4948 -0.2882  0.0407
 1498TIP3    H125985   1.316   3.670  16.984 -1.9250  0.3933  0.7861
 1498TIP3    H225986   1.383   3.752  17.092  0.2946 -0.1622 -0.1103
 1499TIP3   OH225987   3.674   3.004   1.414 -0.0299  0.0521  0.2047
 1499TIP3    H125988   3.680   3.064   1.488 -0.5012 -0.1627  0.4193
 1499TIP3    H225989   3.765   2.986   1.390  0.1467 -0.4722  1.2117
 1500TIP3   OH225990   0.520   2.088   2.219 -0.3400  0.2880  0.1622
 1500TIP3    H125991   0.615   2.093   2.224 -0.0004 -3.0554 -0.1236
 1500TIP3    H225992   0.500   2.100   2.126  0.0186 -0.5871 -0.0424
 1501TIP3   OH225993   5.869   6.718  14.602 -0.0818 -0.2290  0.3326
 1501TIP3    H125994   5.837   6.806  14.583  0.2159 -0.2674 -0.4114
 1501TIP3    H225995   5.794   6.672  14.640 -0.3723  0.2109  0.2955
 1502TIP3   OH225996   0.911   6.759  13.192  0.4845 -0.3108  0.1089
 1502TIP3    H125997   0.996   6.803  13.193  0.8291 -0.7261 -2.3915
 1502TIP3    H225998   0.909   6.715  13.107 -1.1631 -2.5029  1.1990
 1503TIP3   OH225999   3.290   1.538   2.219  0.1790  0.3049  0.1408
 1503TIP3    H126000   3.279   1.492   2.302  2.7576  1.1906  1.0975
 1503TIP3    H226001   3.380   1.571   2.222 -0.6438  3.0750 -1.6513
 1504TIP3   OH226002   4.292   4.482   2.393 -0.1322  0.1238  0.1186
 1504TIP3    H126003   4.337   4.501   2.476 -0.3992  0.6434  0.1446
 1504TIP3    H226004   4.280   4.387   2.395 -1.0042  0.2291  1.1394
 1505TIP3   OH226005   0.094   0.846   1.327 -0.6414  0.1193  0.1060
 1505TIP3    H126006   0.036   0.776   1.358 -1.6437  1.2857  0.9435
 1505TIP3    H226007   0.039   0.924   1.326  0.0759  0.6631 -2.1437
 1506TIP3   OH226008   5.894   0.109  11.647 -0.4016  0.0920 -0.0019
 1506TIP3    H126009   5.881   0.102  11.741 -0.5439  1.9109  0.1455
 1506TIP3    H226010   5.910   0.202  11.631 -1.3644 -0.0157 -1.8954
 1507TIP3   OH226011   6.269   1.786   5.323 -0.3056  0.4599  0.3466
 1507TIP3    H126012   6.307   1.798   5.411 -0.1446  0.6397  0.2530
 1507TIP3    H226013   6.248   1.875   5.294 -1.5712  0.3005  0.7378
 1508TIP3   OH226014   5.108   1.873   4.991 -0.1649 -0.3889  0.2562
 1508TIP3    H126015   5.057   1.795   5.012  1.0943 -0.7520  2.3581
 1508TIP3    H226016   5.132   1.909   5.077  2.3417  0.2390 -0.6182
 1509TIP3   OH226017   4.027   1.603  14.783 -0.0744  0.1504 -0.0990
 1509TIP3    H126018   4.064   1.542  14.720  0.9172  1.1235 -0.5031
 1509TIP3    H226019   3.994   1.675  14.730 -3.6227 -1.1237  0.1474
 1510TIP3   OH226020   1.025   3.294   3.708  0.0266 -0.3297 -0.3929
 1510TIP3    H126021   1.027   3.344   3.789  0.1727  0.1724 -0.7020
 1510TIP3    H226022   1.019   3.202   3.736  1.7555 -0.2869  0.2208
 1511TIP3   OH226023   6.649   3.829  11.301  0.7032  0.1011 -0.0930
 1511TIP3    H126024   6.585   3.767  11.334 -1.1945  0.8183 -2.1343
 1511TIP3    H226025   6.732   3.802  11.339 -0.5743 -1.7464  1.5317
 1512TIP3   OH226026   1.088   3.199   5.366  0.3702  0.1746  0.2743
 1512TIP3    H126027   1.091   3.260   5.292  0.1346  0.2256  0.3076
 1512TIP3    H226028   1.167   3.218   5.416  1.3975 -0.9389 -0.8230
 1513TIP3   OH226029   2.912   2.323   4.326 -0.1296 -0.1914  0.1888
 1513TIP3    H126030   2.853   2.371   4.267  0.0701  0.1131  0.2349
 1513TIP3    H226031   2.988   2.303   4.271  0.4366  0.8412  0.5594
 1514TIP3   OH226032   3.071   1.715  15.906 -0.1120 -0.0117 -0.3951
 1514TIP3    H126033   3.154   1.677  15.934 -0.2735 -0.6505 -0.7751
 1514TIP3    H226034   3.090   1.808  15.895  0.2660  0.0454  0.6117
 1515TIP3   OH226035   3.243   1.746   0.915  0.2738 -0.1055  0.5861
 1515TIP3    H126036   3.310   1.703   0.861 -0.5032 -2.2520  1.2384
 1515TIP3    H226037   3.286   1.762   0.999  0.7025  0.8975  0.1990
 1516TIP3   OH226038   2.397   3.293   1.690 -0.1745  0.3192  0.5177
 1516TIP3    H126039   2.329   3.352   1.657 -2.3892 -0.4486  3.3198
 1516TIP3    H226040   2.451   3.350   1.746  0.5955  0.6096 -0.4972
 1517TIP3   OH226041   3.990   2.005  13.802  0.3921  0.0189 -0.4336
 1517TIP3    H126042   3.973   2.097  13.818 -0.9499 -0.2265 -0.3316
 1517TIP3    H226043   3.970   1.962  13.885 -0.1893 -0.4964 -0.8290
 1518TIP3   OH226044   2.500   0.964   0.291 -0.5941 -0.1693 -0.2039
 1518TIP3    H126045   2.425   0.924   0.335  0.1007 -0.5143  0.7017
 1518TIP3    H226046   2.466   0.992   0.206 -1.6928 -0.4990  0.1119
 1519TIP3   OH226047   5.584   5.170   5.394  0.1845 -0.8535 -0.5289
 1519TIP3    H126048   5.675   5.155   5.367 -0.0486  0.3368 -2.0865
 1519TIP3    H226049   5.532   5.143   5.319 -0.7971 -1.7124  0.4258
 1520TIP3   OH226050   5.209   4.282  15.500 -0.1659  0.0335  0.4510
 1520TIP3    H126051   5.162   4.239  15.429 -2.1189  0.4160  1.4328
 1520TIP3    H226052   5.266   4.214  15.536 -0.1142 -0.5250 -0.6385
 1521TIP3   OH226053   5.988   5.781  15.618 -0.5091  0.2866  0.1933
 1521TIP3    H126054   5.969   5.718  15.688  0.0206 -0.1170 -0.0191
 1521TIP3    H226055   6.060   5.834  15.652 -1.0473  0.8760  0.4272
 1522TIP3   OH226056   0.412   2.071  12.785 -0.1035  0.0654 -0.2661
 1522TIP3    H126057   0.415   2.166  12.794 -2.9788  0.2367  0.0588
 1522TIP3    H226058   0.416   2.038  12.875  2.6424 -0.2964 -0.4586
 1523TIP3   OH226059   4.966   3.924   5.719 -0.1220 -0.3553  0.1657
 1523TIP3    H126060   4.985   4.017   5.730  0.0832 -0.2900 -0.6554
 1523TIP3    H226061   4.935   3.916   5.629  1.4367 -1.3280 -0.3269
 1524TIP3   OH226062   5.753   6.111   4.093  0.2057 -0.1947  0.4484
 1524TIP3    H126063   5.814   6.152   4.153  0.0150  1.3126 -0.3516
 1524TIP3    H226064   5.797   6.030   4.065  0.9754 -0.0972  1.3458
 1525TIP3   OH226065   1.326   5.284  16.100 -0.2946 -0.0553 -0.5558
 1525TIP3    H126066   1.385   5.278  16.025  1.0445 -0.6829  0.5035
 1525TIP3    H226067   1.366   5.229  16.167 -1.0515  1.0693  0.8904
 1526TIP3   OH226068   1.292   6.105   6.464  0.0206  0.2661  0.0736
 1526TIP3    H126069   1.243   6.182   6.494 -2.2215 -0.9382 -0.2297
 1526TIP3    H226070   1.333   6.133   6.382 -1.4681  0.9175 -0.4870
 1527TIP3   OH226071   3.865   0.421   4.322 -0.4847 -0.3795  0.1355
 1527TIP3    H126072   3.794   0.480   4.346 -1.5362 -0.6995 -1.9244
 1527TIP3    H226073   3.848   0.400   4.230  2.4276 -0.2815 -0.5172
 1528TIP3   OH226074   4.822   4.963   4.803 -0.3028  0.2278 -0.1932
 1528TIP3    H126075   4.766   4.963   4.726  1.3779 -1.7928 -1.5005
 1528TIP3    H226076   4.841   4.870   4.820  0.2817  0.6723  1.9927
 1529TIP3   OH226077   3.577   5.497   4.260  0.7959  0.0086  0.3120
 1529TIP3    H126078   3.570   5.566   4.325 -0.5017 -1.6955  2.0670
 1529TIP3    H226079   3.669   5.470   4.264  0.7718  0.0457  1.3081
 1530TIP3   OH226080   1.419   3.795  15.309  0.0629  0.4370 -0.2404
 1530TIP3    H126081   1.502   3.774  15.352  0.0082 -0.2593 -0.4641
 1530TIP3    H226082   1.412   3.890  15.316  0.2211  0.3764  0.9934
 1531TIP3   OH226083   6.579   4.470  12.972  0.0468 -0.6905 -0.2301
 1531TIP3    H126084   6.496   4.440  12.935  0.0585 -0.7203 -0.2325
 1531TIP3    H226085   6.628   4.504  12.897 -0.6720  1.0085  0.0277
 1532TIP3   OH226086   1.602   6.287   1.729 -0.5366 -0.3864  0.4437
 1532TIP3    H126087   1.697   6.293   1.744 -0.4756 -0.9135  0.3043
 1532TIP3    H226088   1.592   6.301   1.635 -0.2494 -3.4101 -0.1637
 1533TIP3   OH226089   2.907   3.458  14.488 -0.0474 -0.3131  0.1753
 1533TIP3    H126090   2.958   3.406  14.426 -1.6689 -0.9690 -0.6689
 1533TIP3    H226091   2.855   3.394  14.536  0.3901  0.2863  1.5035
 1534TIP3   OH226092   1.001   1.713  11.636  0.0451  0.3777  0.1581
 1534TIP3    H126093   0.930   1.777  11.648  0.6161  1.3263 -1.1469
 1534TIP3    H226094   0.966   1.651  11.572 -0.1105  0.0462  0.5688
 1535TIP3   OH226095   6.591   6.186   3.431  0.5285  0.1853 -0.1194
 1535TIP3    H126096   6.600   6.277   3.459  1.0503  0.0102  0.3121
 1535TIP3    H226097   6.643   6.137   3.494  0.9470 -0.3254 -0.8442
 1536TIP3   OH226098   1.451   1.310  11.078  0.0613 -0.0421 -0.2058
 1536TIP3    H126099   1.475   1.393  11.118  0.8863 -0.7555  0.8019
 1536TIP3    H226100   1.365   1.327  11.039  0.2608  1.3012 -0.1090
 1537TIP3   OH226101   4.397   6.620  12.951 -0.4163 -0.3786  0.0219
 1537TIP3    H126102   4.385   6.662  13.036  1.9623  0.1813  0.1491
 1537TIP3    H226103   4.361   6.532  12.962 -1.0187  0.0064  1.2918
 1538TIP3   OH226104   0.454   5.208   5.178 -0.3763 -0.1872 -0.1519
 1538TIP3    H126105   0.418   5.293   5.202  0.0217 -0.1633  0.3845
 1538TIP3    H226106   0.386   5.167   5.125 -1.6430 -0.5993  1.7305
 1539TIP3   OH226107   4.222   3.207   4.602  0.4176 -0.9414 -0.5042
 1539TIP3    H126108   4.192   3.295   4.625  1.9856  0.5046 -3.3958
 1539TIP3    H226109   4.157   3.176   4.539 -0.4004 -2.1498  0.8676
 1540TIP3   OH226110   1.527   3.519   2.634  0.4768  0.1518  0.1241
 1540TIP3    H126111   1.505   3.431   2.663  1.0712 -0.0732 -0.1092
 1540TIP3    H226112   1.443   3.560   2.614  0.3047 -1.0867 -1.9066
 1541TIP3   OH226113   4.021   3.394  16.060 -0.3687 -0.2723  0.2459
 1541TIP3    H126114   3.961   3.456  16.018  1.0606  0.9304 -0.1024
 1541TIP3    H226115   4.067   3.446  16.126 -0.2718 -1.3682  1.0645
 1542TIP3   OH226116   3.828   5.837  14.587  0.5901 -0.1146  0.6923
 1542TIP3    H126117   3.832   5.835  14.683  2.0233  0.7436  0.6745
 1542TIP3    H226118   3.818   5.745  14.562 -1.0230 -0.2501  1.6763
 1543TIP3   OH226119   4.470   6.584   0.696  0.0811  0.1570  0.0324
 1543TIP3    H126120   4.386   6.574   0.651 -0.1408  0.3965  0.3906
 1543TIP3    H226121   4.483   6.679   0.701  1.8914  0.1597 -2.8309
 1544TIP3   OH226122   2.823   0.707   0.667 -0.3905  0.0959  0.8841
 1544TIP3    H126123   2.844   0.662   0.586  0.1149  1.8670 -0.0137
 1544TIP3    H226124   2.852   0.797   0.653 -0.7351  0.5611  2.8536
 1545TIP3   OH226125   1.324   2.769   1.985 -0.3540 -0.0728  0.1300
 1545TIP3    H126126   1.355   2.824   2.057  0.6475 -2.0295  1.2722
 1545TIP3    H226127   1.365   2.806   1.907  2.6969 -0.8480  1.2322
 1546TIP3   OH226128   5.271   3.686   5.438 -0.9756 -0.2228 -0.4199
 1546TIP3    H126129   5.343   3.635   5.477  1.0233  0.5530 -2.8090
 1546TIP3    H226130   5.203   3.687   5.505  1.5963 -0.2311  2.4013
 1547TIP3   OH226131   4.360   5.234  15.586 -0.5697  0.3750  0.1786
 1547TIP3    H126132   4.295   5.298  15.557  0.5392  1.1529 -0.6905
 1547TIP3    H226133   4.439   5.256  15.536  0.2905 -0.7007  1.0178
 1548TIP3   OH226134   2.682   3.472   5.228  0.0743 -0.0248  0.2129
 1548TIP3    H126135   2.724   3.549   5.267  1.9214 -0.8813 -0.0234
 1548TIP3    H226136   2.618   3.509   5.166  1.1637  1.3370 -0.1483
 1549TIP3   OH226137   2.245   0.863   4.498 -0.3348 -0.0503  0.2600
 1549TIP3    H126138   2.204   0.890   4.416 -0.0111 -2.0647 -0.6172
 1549TIP3    H226139   2.211   0.775   4.514  0.2819 -0.0362  1.8517
 1550TIP3   OH226140   4.543   2.788   0.140  0.3162 -0.0671 -0.0817
 1550TIP3    H126141   4.520   2.880   0.149  0.5609 -0.0852  0.8481
 1550TIP3    H226142   4.460   2.743   0.122  0.5400  0.6778 -3.9526
 1551TIP3   OH226143   2.553   2.301  11.006 -0.3439  0.0560  0.3387
 1551TIP3    H126144   2.522   2.362  11.074  0.1109  0.3084  0.3243
 1551TIP3    H226145   2.583   2.358  10.935  1.1764 -0.1425  0.7936
 1552TIP3   OH226146   1.165   5.128  15.204 -0.0737  0.0009 -0.4879
 1552TIP3    H126147   1.086   5.082  15.176 -0.4867  1.2607 -1.5163
 1552TIP3    H226148   1.207   5.156  15.122  0.1085  1.4919  0.0850
 1553TIP3   OH226149   3.888   0.372  16.315  0.2543  0.1322 -0.1229
 1553TIP3    H126150   3.792   0.374  16.317  0.2175 -0.7682 -0.4470
 1553TIP3    H226151   3.911   0.296  16.368  0.8781  1.3152  1.3799
 1554TIP3   OH226152   6.277   3.252   2.158 -0.0073  0.2094  0.3658
 1554TIP3    H126153   6.355   3.294   2.122  1.1342 -2.1357 -0.1103
 1554TIP3    H226154   6.247   3.195   2.088 -1.0673 -0.2829  1.1998
 1555TIP3   OH226155   1.156   3.149   3.195 -0.2992  0.4966 -0.2504
 1555TIP3    H126156   1.071   3.188   3.172  0.3012  2.8066  1.0928
 1555TIP3    H226157   1.209   3.161   3.117 -0.5591  1.1317 -0.3398
 1556TIP3   OH226158   2.438   0.819  15.836 -0.2095 -0.4819 -0.1735
 1556TIP3    H126159   2.497   0.854  15.903 -0.1861 -0.4791 -0.1957
 1556TIP3    H226160   2.442   0.883  15.765  0.6492 -1.0554 -0.6586
 1557TIP3   OH226161   6.417   0.618   2.881 -0.1228 -0.5690 -0.3706
 1557TIP3    H126162   6.485   0.562   2.842  0.1908 -2.3371  2.4576
 1557TIP3    H226163   6.337   0.567   2.873 -0.1293 -0.7615  0.8666
 1558TIP3   OH226164   0.760   4.590  12.324  0.3611 -0.0403  0.3288
 1558TIP3    H126165   0.825   4.582  12.254  0.4568  0.5039  0.3501
 1558TIP3    H226166   0.695   4.651  12.288 -0.7027 -1.3958 -0.1123
 1559TIP3   OH226167   6.616   3.318  14.257 -0.0467 -0.0170  0.2095
 1559TIP3    H126168   6.524   3.315  14.284  0.0444  0.4291  0.5731
 1559TIP3    H226169   6.628   3.407  14.222  0.0641 -0.3032 -0.5035
 1560TIP3   OH226170   0.745   3.692   4.684 -0.1838 -0.8127  0.0807
 1560TIP3    H126171   0.711   3.769   4.639  1.7398  1.3238  1.9908
 1560TIP3    H226172   0.674   3.663   4.741 -1.1659 -0.9465 -1.1790
 1561TIP3   OH226173   1.166   6.676   0.797 -0.0885  0.0903 -0.0367
 1561TIP3    H126174   1.158   6.667   0.892  0.1740 -0.1292 -0.0325
 1561TIP3    H226175   1.246   6.727   0.784  0.8303 -1.3117 -0.1724
 1562TIP3   OH226176   6.493   2.516  13.264 -0.3366  0.3897  0.1565
 1562TIP3    H126177   6.448   2.549  13.341  2.1353  0.3130  1.7681
 1562TIP3    H226178   6.514   2.425  13.286  2.1728  0.9334  0.3648
 1563TIP3   OH226179   3.808   1.352   4.532 -1.0643  0.1261  0.2031
 1563TIP3    H126180   3.897   1.386   4.528 -1.6807  1.7384 -1.3810
 1563TIP3    H226181   3.813   1.266   4.490  0.0452 -0.6588  1.8508
 1564TIP3   OH226182   3.754   0.954   5.670  0.5997 -0.4158  0.2924
 1564TIP3    H126183   3.828   0.924   5.724  0.5042  1.1733  1.3883
 1564TIP3    H226184   3.795   0.985   5.589  1.4120  1.8869  1.4724
 1565TIP3   OH226185   1.302   0.081  11.537 -0.2212 -0.6540  0.0519
 1565TIP3    H126186   1.299   0.126  11.621  0.0419  1.3385 -0.9641
 1565TIP3    H226187   1.250   0.002  11.551  0.4395 -0.7633  2.2811
 1566TIP3   OH226188   3.097   2.648  13.389 -0.3534 -0.2826 -0.3386
 1566TIP3    H126189   3.045   2.568  13.392 -2.4435  0.7803 -3.5565
 1566TIP3    H226190   3.145   2.643  13.307  2.6632  0.0662  1.2656
 1567TIP3   OH226191   4.724   2.310   0.059 -0.3502  0.3716  0.4794
 1567TIP3    H126192   4.811   2.287   0.025 -0.3616  0.9565  0.0335
 1567TIP3    H226193   4.664   2.262   0.003 -0.3161 -0.2673  0.9739
 1568TIP3   OH226194   2.140   3.360  11.558  0.4869 -0.0167 -0.4627
 1568TIP3    H126195   2.176   3.289  11.612 -1.6446 -0.3276  0.6379
 1568TIP3    H226196   2.216   3.414  11.537  1.7832 -1.2676  0.7641
 1569TIP3   OH226197   1.554   0.914   6.249  0.8620  0.2035  0.2069
 1569TIP3    H126198   1.516   0.910   6.336  3.7650 -2.0933  1.5570
 1569TIP3    H226199   1.486   0.880   6.191 -0.4232 -0.1619  1.8912
 1570TIP3   OH226200   5.294   5.611  14.840 -0.3341  0.2156  0.1890
 1570TIP3    H126201   5.256   5.669  14.775  1.1853  1.0561  0.0208
 1570TIP3    H226202   5.305   5.527  14.795 -1.7944 -0.0132  0.2046
 1571TIP3   OH226203   1.777   1.669  14.252 -0.1911  0.3107  0.2615
 1571TIP3    H126204   1.777   1.765  14.259  0.3293  0.6135 -2.7549
 1571TIP3    H226205   1.724   1.651  14.175  0.7785 -1.7814  0.0292
 1572TIP3   OH226206   5.635   1.082  12.913  0.6466  0.1254 -0.0378
 1572TIP3    H126207   5.604   1.140  12.844 -1.8142 -0.8861  0.1317
 1572TIP3    H226208   5.731   1.091  12.911  0.5672  1.1424 -2.6411
 1573TIP3   OH226209   0.221   2.699  11.768 -0.4981 -0.0328  0.8535
 1573TIP3    H126210   0.140   2.652  11.745 -2.5339  3.1646  0.9086
 1573TIP3    H226211   0.278   2.687  11.692 -0.7610 -2.7012  0.9819
 1574TIP3   OH226212   2.267   2.922  16.414  0.5708 -0.7834  0.3989
 1574TIP3    H126213   2.311   2.911  16.330 -1.0894 -0.8958 -0.5082
 1574TIP3    H226214   2.187   2.970  16.393  1.9161  2.7540  2.5075
 1575TIP3   OH226215   0.366   4.768  14.957 -0.1257  0.3705  0.4192
 1575TIP3    H126216   0.353   4.847  14.904 -0.0138 -0.6967 -1.2661
 1575TIP3    H226217   0.452   4.735  14.931  0.5398  0.5161  2.2729
 1576TIP3   OH226218   2.874   4.027   1.715  0.2050 -0.5650  0.2011
 1576TIP3    H126219   2.952   3.983   1.682 -0.0416 -1.2574  0.5303
 1576TIP3    H226220   2.882   4.022   1.811 -1.4553 -2.8938  0.2908
 1577TIP3   OH226221   0.068   0.307  16.169  0.0121  0.0208 -0.2466
 1577TIP3    H126222  -0.018   0.274  16.146  0.3670 -1.6235  0.6725
 1577TIP3    H226223   0.118   0.303  16.087 -0.7704  1.0636 -0.8004
 1578TIP3   OH226224   2.305   2.026  12.864 -0.0377 -0.0539  0.2866
 1578TIP3    H126225   2.388   2.056  12.828 -0.9500  3.9028  0.9668
 1578TIP3    H226226   2.303   2.063  12.953 -2.2232 -0.5612  0.5121
 1579TIP3   OH226227   3.801   4.960   4.156  0.5225 -0.0197  0.4047
 1579TIP3    H126228   3.887   4.953   4.196  0.8753  1.3774 -0.0449
 1579TIP3    H226229   3.740   4.960   4.229  0.8689 -1.1520  0.7207
 1580TIP3   OH226230   1.038   0.396   2.252 -0.5288  0.3399 -0.9990
 1580TIP3    H126231   1.017   0.383   2.160 -0.9772 -1.2875 -0.7081
 1580TIP3    H226232   0.970   0.455   2.284 -0.5396  0.6826 -1.6510
 1581TIP3   OH226233   0.811   2.237   2.911  0.5785  0.3429 -0.1428
 1581TIP3    H126234   0.815   2.318   2.962 -2.1989 -0.8616  2.2264
 1581TIP3    H226235   0.798   2.267   2.820 -4.0741  2.7302  1.0207
 1582TIP3   OH226236   4.121   4.349  16.446 -0.6691 -0.0801 -0.3899
 1582TIP3    H126237   4.131   4.257  16.420 -0.9405 -0.2872  0.2075
 1582TIP3    H226238   4.037   4.352  16.491 -0.2069  0.2473  0.4718
 1583TIP3   OH226239   4.127   2.278   2.041  0.0766  0.3995 -0.2344
 1583TIP3    H126240   4.170   2.210   1.988 -1.2774  0.9039 -2.0766
 1583TIP3    H226241   4.169   2.359   2.015  0.7677  0.4495  0.9766
 1584TIP3   OH226242   4.811   4.090  11.465 -0.1990 -0.4742  0.1993
 1584TIP3    H126243   4.892   4.040  11.470 -0.8255 -1.8367 -2.0118
 1584TIP3    H226244   4.749   4.041  11.520  0.0932 -0.1422  0.8430
 1585TIP3   OH226245   4.690   4.364   3.864 -0.6248  0.5898 -0.1108
 1585TIP3    H126246   4.720   4.435   3.808  2.7598 -0.5390  0.0730
 1585TIP3    H226247   4.724   4.386   3.951 -0.0331 -0.9259  0.0646
 1586TIP3   OH226248   0.019   6.328  15.893  0.2256 -0.2521 -0.4634
 1586TIP3    H126249   0.009   6.366  15.980  0.1691 -0.0652 -0.5520
 1586TIP3    H226250  -0.057   6.271  15.883  0.6440 -0.8948 -0.0727
 1587TIP3   OH226251   0.189   4.012   5.864  0.2945  0.1330  0.1004
 1587TIP3    H126252   0.166   4.046   5.951  0.8012  1.4457 -0.2613
 1587TIP3    H226253   0.258   3.948   5.881 -0.3146 -0.3689  0.7523
 1588TIP3   OH226254   1.736   6.637  13.811  0.0809  0.8365  0.2795
 1588TIP3    H126255   1.768   6.550  13.836  0.8045  0.6625 -1.1232
 1588TIP3    H226256   1.785   6.657  13.731 -2.2476  1.2273 -1.1198
 1589TIP3   OH226257   2.178   5.221   3.310  0.0490 -0.1844  0.5215
 1589TIP3    H126258   2.131   5.281   3.252 -1.2802  0.3944  2.1353
 1589TIP3    H226259   2.254   5.272   3.340 -0.7398  0.5190  1.3962
 1590TIP3   OH226260   2.580   6.434   1.743 -0.2047 -0.1701 -0.0912
 1590TIP3    H126261   2.623   6.519   1.746  0.2948 -0.4513  0.8067
 1590TIP3    H226262   2.544   6.422   1.831  0.3571 -1.2064  0.0132
 1591TIP3   OH226263   3.933   6.069   1.529 -0.1383  0.4590 -0.6487
 1591TIP3    H126264   3.841   6.089   1.511 -0.8589 -1.0993  0.9153
 1591TIP3    H226265   3.933   6.037   1.620  1.9296  0.2578 -0.6693
 1592TIP3   OH226266   6.028   0.700  17.125  0.2080 -0.1101  0.1268
 1592TIP3    H126267   5.956   0.687  17.062  0.2093  0.7010 -0.0578
 1592TIP3    H226268   6.072   0.615  17.129 -1.1697 -0.8240  0.7621
 1593TIP3   OH226269   2.326   6.826  13.454 -0.8998 -0.4085  0.2461
 1593TIP3    H126270   2.369   6.896  13.502  2.0350 -1.1279 -1.1292
 1593TIP3    H226271   2.336   6.748  13.510 -1.6413 -0.3436  0.4909
 1594TIP3   OH226272   1.170   3.048   1.318  0.0492  0.1012  0.0465
 1594TIP3    H126273   1.141   2.972   1.267 -4.2243  1.1045  0.6684
 1594TIP3    H226274   1.168   3.121   1.256 -0.2019  0.4510  0.4624
 1595TIP3   OH226275   6.681   5.501  15.049  0.6741 -0.5390  0.1859
 1595TIP3    H126276   6.615   5.442  15.013  1.0720 -0.2202 -1.1163
 1595TIP3    H226277   6.693   5.472  15.140 -0.0160 -1.6761 -0.0743
 1596TIP3   OH226278   2.514   5.404  14.150  0.0788  0.2113 -0.6023
 1596TIP3    H126279   2.526   5.322  14.197 -0.5775 -0.3606 -1.3857
 1596TIP3    H226280   2.514   5.471  14.218  2.4253 -0.2175 -0.1014
 1597TIP3   OH226281   5.016   0.020   5.700  0.4311  0.2066 -0.1396
 1597TIP3    H126282   5.104   0.049   5.676  1.2993  0.4395  2.8611
 1597TIP3    H226283   4.968   0.101   5.716 -0.0560  0.0605 -0.8155
 1598TIP3   OH226284   0.741   1.771  14.580  0.3239  0.3948  0.2992
 1598TIP3    H126285   0.737   1.738  14.670  0.1462 -0.6718 -0.0972
 1598TIP3    H226286   0.650   1.776  14.552  0.3848  0.6393  0.1339
 1599TIP3   OH226287   5.625   5.331   4.653 -0.2821 -0.0934 -0.3477
 1599TIP3    H126288   5.718   5.342   4.634 -0.3099  0.9105  0.0804
 1599TIP3    H226289   5.599   5.412   4.696 -0.8574 -1.2096  1.5080
 1600TIP3   OH226290   5.237   0.067  12.991  0.6242  0.0255 -0.5772
 1600TIP3    H126291   5.226   0.142  13.049 -0.3740  1.5857 -2.6258
 1600TIP3    H226292   5.327   0.074  12.960  0.3618  0.7997 -1.2240
 1601TIP3   OH226293   0.135   5.534  11.548 -0.0575  0.0816  0.2005
 1601TIP3    H126294   0.204   5.515  11.612  0.7002  0.9120 -0.3437
 1601TIP3    H226295   0.058   5.556  11.601  0.5763  0.8221  0.8418
 1602TIP3   OH226296   2.964   2.334   6.635  0.1237 -0.1435 -0.3798
 1602TIP3    H126297   3.058   2.316   6.643  0.2074  0.2033 -0.5790
 1602TIP3    H226298   2.959   2.427   6.616 -0.1811 -0.4227 -1.7706
 1603TIP3   OH226299   2.808   4.570   1.455 -0.1522 -0.0206 -0.0855
 1603TIP3    H126300   2.739   4.509   1.480 -1.0743  0.7402 -0.6968
 1603TIP3    H226301   2.763   4.655   1.446  0.5509  0.2151 -1.9306
 1604TIP3   OH226302   0.498   2.792  14.292  0.0884  0.7151 -0.1955
 1604TIP3    H126303   0.498   2.778  14.387  1.7437 -0.3889 -0.3084
 1604TIP3    H226304   0.406   2.784  14.267 -0.2311 -0.2945  1.1502
 1605TIP3   OH226305   4.382   3.127  12.025  0.0310 -0.2897  0.4914
 1605TIP3    H126306   4.469   3.125  11.985 -0.1865 -0.7541  0.0179
 1605TIP3    H226307   4.373   3.042  12.067 -1.3921 -1.6173 -2.1899
 1606TIP3   OH226308   6.006   3.553   3.460 -0.1009 -0.1805 -0.5409
 1606TIP3    H126309   6.078   3.532   3.520 -1.6481 -0.8666  1.1563
 1606TIP3    H226310   6.017   3.491   3.387  0.0634 -1.4656  0.5327
 1607TIP3   OH226311   6.638   0.192  12.905  0.3307 -0.3023  0.3109
 1607TIP3    H126312   6.590   0.267  12.940  2.1508  0.8034  0.6127
 1607TIP3    H226313   6.703   0.172  12.973  1.1948 -0.8348 -0.6367
 1608TIP3   OH226314   3.332   1.062  16.327  1.1062  0.1516 -0.3637
 1608TIP3    H126315   3.240   1.040  16.344  1.0567  1.5112  1.3952
 1608TIP3    H226316   3.366   0.987  16.278 -0.5518 -1.0481  0.2250
 1609TIP3   OH226317   5.534   3.885   0.612  0.5241 -0.1259 -0.1083
 1609TIP3    H126318   5.517   3.834   0.533 -0.9390  0.6040 -0.3193
 1609TIP3    H226319   5.463   3.950   0.614  0.7078  0.0776  1.6388
 1610TIP3   OH226320   1.876   1.600   5.057  0.0044  0.1935  0.0832
 1610TIP3    H126321   1.858   1.658   5.131 -1.8302  0.1514 -0.2931
 1610TIP3    H226322   1.865   1.655   4.980  1.9037  0.2309 -0.2053
 1611TIP3   OH226323   3.760   3.730  16.088 -0.3956 -0.1937 -0.5774
 1611TIP3    H126324   3.664   3.727  16.087 -0.3924 -0.2997 -1.4751
 1611TIP3    H226325   3.787   3.654  16.037  0.1835 -0.5370  0.2285
 1612TIP3   OH226326   0.687   1.062   3.805  0.0625 -0.1915 -0.4011
 1612TIP3    H126327   0.712   1.137   3.859  3.3351 -2.0836  1.0016
 1612TIP3    H226328   0.755   1.057   3.738  0.2383 -2.1676 -0.1312
 1613TIP3   OH226329   4.271   2.189   3.337  0.1200 -0.0391 -0.4115
 1613TIP3    H126330   4.189   2.200   3.383 -0.7579 -0.9456 -1.6780
 1613TIP3    H226331   4.246   2.159   3.250  1.7621  0.3723 -1.0754
 1614TIP3   OH226332   6.319   1.349   1.174  0.2143 -0.4638  0.7000
 1614TIP3    H126333   6.312   1.422   1.112 -1.5130  0.9981  2.4737
 1614TIP3    H226334   6.295   1.272   1.122 -0.7760  0.6394 -0.5852
 1615TIP3   OH226335   1.339   5.549   1.662 -0.1840 -0.4096 -0.4224
 1615TIP3    H126336   1.351   5.595   1.745  0.1774  1.1950 -1.3263
 1615TIP3    H226337   1.316   5.617   1.599 -0.7963 -1.6337 -1.5844
 1616TIP3   OH226338   1.065   3.906  12.030 -0.0545 -0.4458  0.3940
 1616TIP3    H126339   1.157   3.934  12.025 -0.2250  0.1737  0.6428
 1616TIP3    H226340   1.032   3.948  12.110 -0.8759  0.2942 -0.3187
 1617TIP3   OH226341   5.991   0.233   3.955 -0.9264  0.0695 -0.1320
 1617TIP3    H126342   5.921   0.169   3.964 -0.6331 -0.0797  1.4048
 1617TIP3    H226343   6.071   0.181   3.948 -0.8119  0.2462 -0.1604
 1618TIP3   OH226344   6.541   1.597  16.138  0.3372  0.0453  0.0037
 1618TIP3    H126345   6.620   1.626  16.092  0.4616  1.5999  1.1455
 1618TIP3    H226346   6.545   1.501  16.134  0.8043  0.1013 -2.3751
 1619TIP3   OH226347   5.413   6.750  12.372  0.0535  0.1455 -0.4199
 1619TIP3    H126348   5.502   6.749  12.336 -0.2894 -1.9517 -1.4186
 1619TIP3    H226349   5.398   6.659  12.400 -1.2064  0.8210  1.2377
 1620TIP3   OH226350   2.659   1.194   3.653 -0.1568 -0.4104 -0.4777
 1620TIP3    H126351   2.585   1.133   3.657  0.8590 -1.7543 -1.2723
 1620TIP3    H226352   2.724   1.156   3.713  0.3129  0.1525 -0.6250
 1621TIP3   OH226353   6.743   5.531   0.381 -0.6558  0.4026 -0.2733
 1621TIP3    H126354   6.747   5.548   0.287 -0.3877  3.2690  0.1873
 1621TIP3    H226355   6.667   5.473   0.392  0.5261 -1.7189 -2.4089
 1622TIP3   OH226356   0.973   6.652   5.501  0.3038 -0.3915 -0.1138
 1622TIP3    H126357   1.010   6.610   5.423  0.8827 -0.5841  0.2544
 1622TIP3    H226358   0.950   6.579   5.558  4.1302 -0.3062  1.8489
 1623TIP3   OH226359   5.700   0.268   1.348 -0.1564 -0.1958  0.5963
 1623TIP3    H126360   5.642   0.227   1.412  1.0716  1.6781  3.0751
 1623TIP3    H226361   5.653   0.346   1.318  0.5835  0.7465  1.8076
 1624TIP3   OH226362   3.728   5.340   2.278 -0.6840 -0.1757 -0.0308
 1624TIP3    H126363   3.696   5.300   2.197  0.0982  0.1103 -0.4901
 1624TIP3    H226364   3.805   5.390   2.251 -0.6981  0.3159  0.8120
 1625TIP3   OH226365   1.168   1.436   3.463  0.3675  0.2280  0.1691
 1625TIP3    H126366   1.110   1.455   3.388 -0.9290 -0.8400  0.8646
 1625TIP3    H226367   1.210   1.353   3.441  0.7607  0.4176  0.1909
 1626TIP3   OH226368   5.199   4.065   4.981  0.7727  0.5778 -0.2995
 1626TIP3    H126369   5.125   4.058   5.042  0.6418  0.8266 -0.4275
 1626TIP3    H226370   5.162   4.106   4.903  1.0258  0.6178 -0.4005
 1627TIP3   OH226371   4.915   5.247   5.659  0.3231 -0.1760  0.0173
 1627TIP3    H126372   4.858   5.323   5.646  0.3508 -0.2857 -0.7807
 1627TIP3    H226373   4.991   5.282   5.706 -0.5171 -0.0836  1.3684
 1628TIP3   OH226374   0.278   5.939  15.778  0.0047 -0.1676 -0.0800
 1628TIP3    H126375   0.196   5.910  15.739 -0.6847  1.0970  0.3893
 1628TIP3    H226376   0.339   5.944  15.704  0.2007 -2.7445 -0.1957
 1629TIP3   OH226377   3.004   1.823   4.930 -0.1178 -0.5529  0.0262
 1629TIP3    H126378   3.004   1.850   4.838  0.3651  1.5019  0.5812
 1629TIP3    H226379   3.001   1.905   4.979  1.1557 -1.5418  1.8695
 1630TIP3   OH226380   4.682   6.197   1.785  0.7359 -0.4720 -0.2362
 1630TIP3    H126381   4.734   6.268   1.821  0.0654 -0.3726  0.5988
 1630TIP3    H226382   4.592   6.217   1.814  0.3502 -0.9972 -1.0433
 1631TIP3   OH226383   4.659   6.838   5.689  0.2323  0.0642 -0.2826
 1631TIP3    H126384   4.585   6.893   5.663 -0.9737 -0.5934  1.5770
 1631TIP3    H226385   4.690   6.875   5.771 -0.2090 -1.6263  0.6944
 1632TIP3   OH226386   1.853   2.059   5.779 -1.0481  0.2135 -0.0258
 1632TIP3    H126387   1.932   2.070   5.832 -0.9617 -1.1916  0.1775
 1632TIP3    H226388   1.886   2.051   5.689 -0.6323 -3.1548  0.3121
 1633TIP3   OH226389   4.526   0.244  13.402 -0.6039 -0.2205 -0.3634
 1633TIP3    H126390   4.555   0.321  13.450  1.5239 -1.6526  0.7878
 1633TIP3    H226391   4.468   0.279  13.334  1.6274  2.6046 -1.0160
 1634TIP3   OH226392   6.296   5.834   5.379 -0.4279 -0.1676  0.1742
 1634TIP3    H126393   6.249   5.783   5.312 -1.3381  1.9340 -0.8863
 1634TIP3    H226394   6.378   5.787   5.392 -0.2002 -0.6572 -2.4844
 1635TIP3   OH226395   4.482   1.877   2.482 -0.3275  0.4424 -0.4555
 1635TIP3    H126396   4.565   1.833   2.465 -0.2376 -0.0183  1.0331
 1635TIP3    H226397   4.478   1.948   2.418  1.5268  0.8813 -0.1208
 1636TIP3   OH226398   2.587   4.235  11.703 -0.3712  0.0378 -0.0634
 1636TIP3    H126399   2.682   4.242  11.706 -0.4338  1.4891 -0.4163
 1636TIP3    H226400   2.562   4.274  11.620 -1.2389 -1.1280 -0.3777
 1637TIP3   OH226401   3.249   0.660  14.249  0.1411  0.2283  0.2559
 1637TIP3    H126402   3.319   0.688  14.190  0.8912 -1.5216  0.2577
 1637TIP3    H226403   3.169   0.693  14.208  0.6580 -0.8110 -1.7156
 1638TIP3   OH226404   6.238   4.806   1.891 -0.0331 -0.0873  0.4164
 1638TIP3    H126405   6.301   4.821   1.820 -1.3411 -0.8193 -0.9599
 1638TIP3    H226406   6.292   4.789   1.968  1.4424  0.6076 -0.4130
 1639TIP3   OH226407   6.015   6.176  15.782 -0.4006 -0.4752  0.1969
 1639TIP3    H126408   6.047   6.233  15.852 -2.4051 -0.7605  1.4369
 1639TIP3    H226409   6.042   6.088  15.809 -1.9226 -0.6968  1.1643
 1640TIP3   OH226410   0.645   5.217  10.826 -0.0094 -0.5344  0.2630
 1640TIP3    H126411   0.716   5.229  10.762 -0.3680 -0.4051 -0.1090
 1640TIP3    H226412   0.641   5.122  10.839 -0.8850 -0.6916 -0.9925
 1641TIP3   OH226413   0.086   5.096   1.619  0.0109  0.0763 -0.0838
 1641TIP3    H126414   0.080   5.175   1.565  3.0029  0.2159 -0.4020
 1641TIP3    H226415   0.104   5.026   1.557 -1.8125 -0.7614  0.2792
 1642TIP3   OH226416   1.744   3.393  15.516 -0.4309  0.0620 -0.0215
 1642TIP3    H126417   1.823   3.431  15.554  0.7475 -1.6885 -0.6498
 1642TIP3    H226418   1.725   3.317  15.570 -2.0156  0.7194  0.4234
 1643TIP3   OH226419   6.726   2.592  16.906 -0.2179 -0.1071 -0.0665
 1643TIP3    H126420   6.701   2.651  16.835 -0.1486  0.9832  0.7913
 1643TIP3    H226421   6.821   2.592  16.906 -0.1777 -1.7381 -1.2689
 1644TIP3   OH226422   3.547   3.691  14.870  0.5786  0.2191  0.0498
 1644TIP3    H126423   3.495   3.702  14.950 -0.6305  1.8100 -0.8784
 1644TIP3    H226424   3.592   3.775  14.859  2.3325 -0.6684  0.0975
 1645TIP3   OH226425   1.801   1.958   5.453 -0.0863 -0.1035 -0.2315
 1645TIP3    H126426   1.892   1.931   5.465 -0.0910 -0.3762 -0.7895
 1645TIP3    H226427   1.752   1.876   5.447 -0.6175  0.0184  1.7664
 1646TIP3   OH226428   4.649   0.137   0.970  0.7337  0.0183 -0.0342
 1646TIP3    H126429   4.596   0.204   0.928  0.6488 -0.4822 -0.7350
 1646TIP3    H226430   4.736   0.146   0.929  0.3806 -1.1570 -1.1175
 1647TIP3   OH226431   0.017   3.487   2.870  0.0524  0.7419  0.0963
 1647TIP3    H126432  -0.018   3.456   2.954  0.2553 -0.6370 -0.2992
 1647TIP3    H226433  -0.053   3.542   2.834 -1.9488 -2.1455 -0.8069
 1648TIP3   OH226434   6.361   3.424  15.731 -0.3439 -0.1784 -0.3860
 1648TIP3    H126435   6.307   3.500  15.754 -1.0822 -0.6141 -0.6488
 1648TIP3    H226436   6.439   3.433  15.785 -1.1319 -0.0929  0.7811
 1649TIP3   OH226437   3.768   5.059   6.295  0.1436 -0.1749  0.7874
 1649TIP3    H126438   3.743   4.968   6.276  0.5665 -0.0877 -0.2426
 1649TIP3    H226439   3.852   5.070   6.251 -1.0437  1.4431 -1.2119
 1650TIP3   OH226440   5.841   0.693  14.894 -0.2356  0.1875  0.3842
 1650TIP3    H126441   5.767   0.744  14.864 -0.2196  0.1699  0.3154
 1650TIP3    H226442   5.871   0.645  14.817  0.0899  0.4896  0.3175
 1651TIP3   OH226443   2.717   0.191  10.213  0.1212 -0.3676  0.3125
 1651TIP3    H126444   2.736   0.206  10.306 -2.0998 -1.0195  0.9189
 1651TIP3    H226445   2.791   0.139  10.182  0.9359 -0.0834  1.6942
 1652TIP3   OH226446   0.756   1.535   3.145  0.7218 -0.2718 -0.8049
 1652TIP3    H126447   0.775   1.613   3.197  1.7089 -1.4089  0.6374
 1652TIP3    H226448   0.664   1.543   3.122  0.0058 -0.0587  1.8235
 1653TIP3   OH226449   3.569   4.771  16.110 -0.2148  0.8791 -0.2199
 1653TIP3    H126450   3.589   4.832  16.181  0.3790 -1.7371  2.0473
 1653TIP3    H226451   3.649   4.768  16.058 -0.6325  2.7779 -1.0633
 1654TIP3   OH226452   0.854   1.479   6.252  0.5821  0.0564  0.2521
 1654TIP3    H126453   0.884   1.566   6.279  0.4106  0.2434 -0.1446
 1654TIP3    H226454   0.759   1.481   6.265  0.4507  0.2593 -0.6277
 1655TIP3   OH226455   1.713   6.169  15.969  1.1297  0.5899  0.0084
 1655TIP3    H126456   1.680   6.190  16.056 -2.3589  1.9784 -1.4589
 1655TIP3    H226457   1.662   6.091  15.943  3.2900 -0.8190 -0.2687
 1656TIP3   OH226458   5.878   6.121   2.475 -0.0713  0.3378  0.3718
 1656TIP3    H126459   5.838   6.166   2.550 -1.1829  0.4924 -0.2804
 1656TIP3    H226460   5.923   6.046   2.512 -0.6562  0.3857  1.1952
 1657TIP3   OH226461   1.722   3.460  16.282 -0.1872  0.7460  0.2307
 1657TIP3    H126462   1.702   3.489  16.193 -1.1301  1.4994  0.6731
 1657TIP3    H226463   1.715   3.540  16.335  2.3521  0.7353  0.6979
 1658TIP3   OH226464   2.235   4.350   1.449 -0.2430 -0.4485  0.3490
 1658TIP3    H126465   2.158   4.373   1.501 -1.2342 -1.3443 -0.6802
 1658TIP3    H226466   2.253   4.429   1.398 -1.6327 -0.7993 -0.7584
 1659TIP3   OH226467   6.049   1.325   0.201 -0.0550  0.3326  0.7377
 1659TIP3    H126468   6.082   1.386   0.267 -0.2877 -0.0278  1.1959
 1659TIP3    H226469   6.125   1.305   0.147  0.4746 -0.3881  1.7000
 1660TIP3   OH226470   2.095   2.703  13.602 -0.9272 -0.4770  0.4046
 1660TIP3    H126471   2.056   2.626  13.643 -0.0655 -0.6374  0.9302
 1660TIP3    H226472   2.120   2.673  13.514 -2.8983 -0.0938 -0.3396
 1661TIP3   OH226473   0.049   4.807   5.103  0.5640 -0.1876 -0.3305
 1661TIP3    H126474   0.002   4.887   5.079 -1.3440  0.7568  5.1576
 1661TIP3    H226475  -0.019   4.741   5.113  1.6400 -1.4479 -1.0808
 1662TIP3   OH226476   4.318   3.118  15.486 -0.5337  0.8340 -0.0306
 1662TIP3    H126477   4.370   3.197  15.499 -1.5145  2.0271 -2.5367
 1662TIP3    H226478   4.316   3.107  15.391 -3.1194 -0.3123  0.0635
 1663TIP3   OH226479   3.287   1.070  14.152  0.2054 -0.4708  0.2015
 1663TIP3    H126480   3.380   1.052  14.140 -0.0700 -1.9278 -0.0500
 1663TIP3    H226481   3.268   1.038  14.240 -0.3163 -1.4921 -0.2626
 1664TIP3   OH226482   1.904   0.112  15.895 -0.7162 -0.3165  0.8200
 1664TIP3    H126483   1.952   0.031  15.912 -0.0475  0.3779  2.4758
 1664TIP3    H226484   1.824   0.104  15.949 -0.5682  0.1757  1.1220
 1665TIP3   OH226485   0.919   5.897  12.945  0.0767  0.0186  0.5064
 1665TIP3    H126486   0.976   5.853  12.882 -0.9335 -0.5930 -0.0000
 1665TIP3    H226487   0.921   5.989  12.917 -0.4184 -0.2542 -0.4798
 1666TIP3   OH226488   1.038   3.914  14.602  0.2812  0.4043  0.0201
 1666TIP3    H126489   0.947   3.935  14.623  0.2600 -0.8667  1.4019
 1666TIP3    H226490   1.081   3.999  14.592 -0.8164  1.0325  0.4765
 1667TIP3   OH226491   4.281   2.703   0.114  0.0074  0.4428  0.4547
 1667TIP3    H126492   4.254   2.795   0.118 -1.1385  0.1975 -0.7357
 1667TIP3    H226493   4.230   2.661   0.183  0.5971  0.6931  1.0589
 1668TIP3   OH226494   0.052   6.761   1.002  0.5142 -0.3384  0.0029
 1668TIP3    H126495  -0.033   6.727   0.973 -0.9579  2.1954  1.0019
 1668TIP3    H226496   0.115   6.723   0.941 -1.9120  1.6262 -4.1756
 1669TIP3   OH226497   0.955   2.244  16.482  0.2179 -0.2266  0.2605
 1669TIP3    H126498   0.983   2.221  16.571 -1.2582  0.2101  0.8685
 1669TIP3    H226499   1.012   2.192  16.425  1.4531 -0.2332  1.4380
 1670TIP3   OH226500   1.754   3.751  11.603 -0.0380  0.4321  0.5154
 1670TIP3    H126501   1.819   3.719  11.665 -0.0931  0.3351  0.5229
 1670TIP3    H226502   1.708   3.820  11.650  1.7121  2.2912 -0.3095
 1671TIP3   OH226503   1.755   2.582  13.359 -0.2691 -0.7106 -0.4490
 1671TIP3    H126504   1.828   2.638  13.385  0.6011 -1.8783 -0.3401
 1671TIP3    H226505   1.684   2.606  13.420  0.2106 -0.0208 -0.1475
 1672TIP3   OH226506   0.915   6.034  16.273 -1.0646 -0.1425 -0.1076
 1672TIP3    H126507   0.831   5.988  16.276 -0.0253 -2.2595 -1.1657
 1672TIP3    H226508   0.899   6.109  16.216 -3.0406  1.4870  2.3638
 1673TIP3   OH226509   6.023   2.197   3.329  0.5044 -0.3367  0.0968
 1673TIP3    H126510   6.011   2.224   3.420 -0.2852 -1.0750  0.2251
 1673TIP3    H226511   6.102   2.243   3.300  0.6912 -0.0004  1.1131
 1674TIP3   OH226512   1.289   1.209   3.326  0.0143  0.5589 -0.5131
 1674TIP3    H126513   1.235   1.202   3.247  0.2097 -1.9122 -0.5316
 1674TIP3    H226514   1.365   1.260   3.299  0.3882 -0.7802 -2.1669
 1675TIP3   OH226515   3.990   3.291   1.969  0.2021  0.2797  0.4049
 1675TIP3    H126516   3.917   3.239   1.936  2.3364 -1.0316 -2.6934
 1675TIP3    H226517   4.020   3.244   2.047 -0.8294 -0.4542  0.3714
 1676TIP3   OH226518   3.645   1.214   5.674 -0.0190  0.3561 -0.1142
 1676TIP3    H126519   3.597   1.213   5.591  1.4645 -1.1858 -1.0151
 1676TIP3    H226520   3.655   1.122   5.697  0.0663  0.7426  1.5137
 1677TIP3   OH226521   2.445   5.862   5.519 -0.6655  0.7904 -0.0463
 1677TIP3    H126522   2.429   5.810   5.440 -0.1391 -1.1464  1.0521
 1677TIP3    H226523   2.378   5.833   5.581 -1.4733  2.7478  0.0510
 1678TIP3   OH226524   4.764   5.364  11.618  0.4035 -0.8253  0.2946
 1678TIP3    H126525   4.774   5.270  11.634  1.6760 -0.6410  0.6435
 1678TIP3    H226526   4.802   5.406  11.694  0.0730 -0.0135  0.0215
 1679TIP3   OH226527   2.196   1.591  16.136  0.1835  0.4519  0.3401
 1679TIP3    H126528   2.237   1.663  16.183  0.3927  0.5238  0.0470
 1679TIP3    H226529   2.244   1.585  16.053 -1.1989  1.3574 -0.5677
 1680TIP3   OH226530   4.015   4.928   5.451 -0.2784 -0.6132 -0.3820
 1680TIP3    H126531   4.095   4.966   5.487 -0.5507  0.0020 -0.4171
 1680TIP3    H226532   3.957   5.003   5.437  0.2910 -0.5904 -3.3877
 1681TIP3   OH226533   5.934   5.690  14.799 -0.1017 -0.1283 -0.2081
 1681TIP3    H126534   6.019   5.713  14.760  0.7527 -0.3624  1.3866
 1681TIP3    H226535   5.943   5.597  14.822 -0.3980  0.0964  0.8762
 1682TIP3   OH226536   3.908   6.656  14.056  0.5161 -0.1054  0.5904
 1682TIP3    H126537   3.993   6.695  14.037  0.3930  0.6100  1.4489
 1682TIP3    H226538   3.922   6.562  14.042  1.1182  0.1167 -0.4166
 1683TIP3   OH226539   2.105   2.276  13.347  0.7393  0.0020 -0.3988
 1683TIP3    H126540   2.125   2.333  13.273 -0.4816 -0.4716 -1.1165
 1683TIP3    H226541   2.016   2.299  13.373  0.8359 -0.4397  0.3649
 1684TIP3   OH226542   3.584   2.651  14.853 -0.6945 -0.1892 -0.2300
 1684TIP3    H126543   3.615   2.648  14.944 -0.9806  0.2180 -0.1156
 1684TIP3    H226544   3.580   2.744  14.832  0.2525 -0.2969 -0.9781
 1685TIP3   OH226545   6.258   2.105  16.414  0.5192  0.4528 -0.1570
 1685TIP3    H126546   6.217   2.018  16.420 -1.6150  1.4349  0.6322
 1685TIP3    H226547   6.326   2.104  16.481  0.0146 -0.3685  0.3609
 1686TIP3   OH226548   3.129   6.542   6.396 -0.3719 -0.1241 -0.3474
 1686TIP3    H126549   3.134   6.638   6.397  0.1928 -0.1454 -0.5799
 1686TIP3    H226550   3.178   6.515   6.473 -0.6143 -0.2241 -0.2285
 1687TIP3   OH226551   6.110   0.440   1.697 -0.1384  0.3582  0.3142
 1687TIP3    H126552   6.189   0.449   1.750  0.6561  1.1596 -0.9310
 1687TIP3    H226553   6.098   0.346   1.687  1.1723  0.2125 -0.1509
 1688TIP3   OH226554   6.266   0.523   3.559 -0.1807 -0.2786 -0.3940
 1688TIP3    H126555   6.182   0.505   3.517 -0.3081 -1.1846  0.2341
 1688TIP3    H226556   6.331   0.490   3.497 -0.3603 -1.3931 -0.0106
 1689TIP3   OH226557   2.380   0.834   5.264 -0.1034 -0.1921  0.6212
 1689TIP3    H126558   2.453   0.895   5.255  1.3331 -1.6649  1.7827
 1689TIP3    H226559   2.336   0.861   5.344 -1.8438  1.6299 -0.8399
 1690TIP3   OH226560   2.158   5.257   3.600 -0.2331 -0.3433  0.1081
 1690TIP3    H126561   2.213   5.271   3.522 -1.3512  0.8773 -0.5105
 1690TIP3    H226562   2.186   5.324   3.662 -0.0673 -0.6306  0.3461
 1691TIP3   OH226563   5.906   2.499  12.004 -0.3579 -0.6512 -0.2020
 1691TIP3    H126564   5.887   2.417  12.051 -0.2784  0.1236  1.2506
 1691TIP3    H226565   5.888   2.567  12.068  2.7857  0.3542 -0.2305
 1692TIP3   OH226566   6.709   2.854  11.552 -0.3021 -0.0761 -0.9709
 1692TIP3    H126567   6.668   2.852  11.638 -0.3275  0.8735 -0.9508
 1692TIP3    H226568   6.787   2.909  11.564 -0.1760 -0.1389 -1.4932
 1693TIP3   OH226569   2.075   1.112   0.021  0.1495  0.6048 -0.1738
 1693TIP3    H126570   2.083   1.088  -0.071  2.2810 -0.7380  0.2845
 1693TIP3    H226571   2.009   1.180   0.023  0.1224  0.7228 -2.7052
 1694TIP3   OH226572   0.756   0.858   5.898 -0.7164 -0.5344 -0.0700
 1694TIP3    H126573   0.785   0.775   5.861 -0.4572 -0.1662 -0.7305
 1694TIP3    H226574   0.830   0.918   5.884 -0.7195 -0.3064  0.8138
 1695TIP3   OH226575   3.529   3.048   5.253  0.1585  0.3263  0.1401
 1695TIP3    H126576   3.597   3.004   5.303  0.1857 -0.4961 -0.6111
 1695TIP3    H226577   3.495   2.982   5.193  2.6169  2.0517 -3.5949
 1696TIP3   OH226578   4.719   6.053  11.854 -0.1711 -0.3843 -0.0690
 1696TIP3    H126579   4.714   5.972  11.906  1.7530 -0.2345  0.4284
 1696TIP3    H226580   4.648   6.044  11.790 -0.9336 -1.7832  0.9024
 1697TIP3   OH226581   1.622   0.936   3.932 -0.3499  0.2120  0.3103
 1697TIP3    H126582   1.651   0.961   3.844 -2.7198 -1.2494 -0.9624
 1697TIP3    H226583   1.590   1.018   3.970 -1.2732  0.4973 -1.0174
 1698TIP3   OH226584   2.852   0.819   6.066  0.1376 -0.2905  0.1944
 1698TIP3    H126585   2.907   0.864   6.002 -1.7128  1.3476 -0.3753
 1698TIP3    H226586   2.813   0.747   6.017 -0.5081  0.3725 -0.3085
 1699TIP3   OH226587   6.103   1.815   0.284  0.0036  0.4143  0.3505
 1699TIP3    H126588   6.039   1.813   0.212 -0.8197  1.1454  1.0318
 1699TIP3    H226589   6.185   1.842   0.243 -0.2695  0.0765 -0.4374
 1700TIP3   OH226590   6.798   4.041   0.641  0.7911 -0.4572  0.0701
 1700TIP3    H126591   6.844   4.030   0.558 -0.2073  1.0765 -0.7272
 1700TIP3    H226592   6.707   4.016   0.622  0.2757  1.0937  0.3294
 1701TIP3   OH226593   3.747   3.459  12.348 -0.2277  0.0386  0.2159
 1701TIP3    H126594   3.720   3.518  12.278  0.0473 -1.0224 -0.7971
 1701TIP3    H226595   3.842   3.452  12.338 -0.4018 -1.6626 -0.5623
 1702TIP3   OH226596   6.509   1.402   6.154  0.0807 -0.1938  0.2123
 1702TIP3    H126597   6.445   1.356   6.208 -0.8889 -0.8631 -1.4320
 1702TIP3    H226598   6.591   1.355   6.170 -0.0816 -0.1054  1.4100
 1703TIP3   OH226599   4.864   0.445   1.717 -0.5743  0.1520 -0.1962
 1703TIP3    H126600   4.807   0.395   1.775 -0.4506  0.3671  0.1179
 1703TIP3    H226601   4.943   0.393   1.710 -0.0248  0.7805  0.9847
 1704TIP3   OH226602   4.561   4.642   1.123  0.0349  0.2270  0.3507
 1704TIP3    H126603   4.569   4.735   1.141 -0.4225  0.3221  0.0770
 1704TIP3    H226604   4.651   4.610   1.121  0.1262  0.1917  2.8377
 1705TIP3   OH226605   1.759   4.045   1.864 -0.1030 -0.1842 -0.2556
 1705TIP3    H126606   1.815   3.970   1.885  0.6452  0.4179 -0.0498
 1705TIP3    H226607   1.742   4.086   1.948 -0.5240 -0.1281 -0.3677
 1706TIP3   OH226608   5.024   2.961   2.586 -0.0122 -0.3383 -0.2456
 1706TIP3    H126609   5.098   3.006   2.546 -1.4373  0.8808 -1.6266
 1706TIP3    H226610   4.948   2.987   2.534 -1.6280 -0.5372  1.8563
 1707TIP3   OH226611   3.994   4.355   6.044 -0.1168 -0.0294  0.2109
 1707TIP3    H126612   3.978   4.427   5.983  1.7561  0.8551  0.7147
 1707TIP3    H226613   4.086   4.334   6.034 -0.1423 -0.9414  1.6011
 1708TIP3   OH226614   4.605   5.855   0.338 -0.0053  0.1944  0.2146
 1708TIP3    H126615   4.633   5.901   0.260  1.1169  1.5605  1.3766
 1708TIP3    H226616   4.530   5.803   0.309 -0.9830  2.2912 -1.3021
 1709TIP3   OH226617   2.045   4.084   1.730 -0.3625  0.3427  0.4565
 1709TIP3    H126618   2.035   4.080   1.635 -1.6681  1.0731  0.5388
 1709TIP3    H226619   1.988   4.156   1.757  0.7148  0.7747  1.7053
 1710TIP3   OH226620   2.860   0.578   0.380  0.0944  0.2696 -0.4165
 1710TIP3    H126621   2.930   0.598   0.318  1.0003  0.5454  0.6575
 1710TIP3    H226622   2.821   0.497   0.347  1.7518 -0.5910 -0.3694
 1711TIP3   OH226623   2.125   3.615  15.609  0.2012 -0.8650 -0.0697
 1711TIP3    H126624   2.081   3.538  15.643 -1.8361 -0.6508 -2.0307
 1711TIP3    H226625   2.061   3.686  15.618  2.0646  0.7599  1.8457
 1712TIP3   OH226626   3.087   1.019   5.204  0.0627  0.1511 -0.5666
 1712TIP3    H126627   3.013   1.040   5.261  1.8290  0.8166  1.6333
 1712TIP3    H226628   3.091   0.923   5.206 -0.9529  0.0843 -1.0386
 1713TIP3   OH226629   1.219   4.988   2.415  0.2850  0.4036 -1.1424
 1713TIP3    H126630   1.201   4.896   2.435  1.5464  0.3243 -0.2979
 1713TIP3    H226631   1.141   5.034   2.445  1.5940  0.1813  3.3259
 1714TIP3   OH226632   0.354   6.327  16.950  0.0004 -0.4986 -0.0165
 1714TIP3    H126633   0.265   6.328  16.985 -0.2778  1.3660 -0.6420
 1714TIP3    H226634   0.403   6.386  17.008  0.7329 -1.1765  0.0711
 1715TIP3   OH226635   4.454   5.927  16.649  0.2494  0.3170  0.4845
 1715TIP3    H126636   4.439   5.844  16.695  1.8165 -1.0078 -1.2459
 1715TIP3    H226637   4.393   5.925  16.575  2.3930 -0.8160 -1.3378
 1716TIP3   OH226638   3.906   2.470   0.744  0.0250  0.4525 -0.3352
 1716TIP3    H126639   3.827   2.417   0.728 -0.9239  0.8150  2.4846
 1716TIP3    H226640   3.882   2.558   0.717 -0.4408  0.4793  0.1318
 1717TIP3   OH226641   6.402   0.812   5.303 -0.0743 -0.6491  0.0398
 1717TIP3    H126642   6.459   0.736   5.311 -0.1057 -0.6948 -0.1517
 1717TIP3    H226643   6.454   0.876   5.255 -0.2956 -0.8108 -0.4253
 1718TIP3   OH226644   4.911   3.361   2.995 -0.6120 -0.2328 -0.2517
 1718TIP3    H126645   4.960   3.363   2.913 -2.4482  0.8201 -1.3940
 1718TIP3    H226646   4.886   3.452   3.010 -2.1707 -0.7155  0.2931
 1719TIP3   OH226647   2.122   0.237   5.757  0.2519  0.0854  0.2931
 1719TIP3    H126648   2.128   0.256   5.663 -1.2731 -3.2145 -0.5907
 1719TIP3    H226649   2.036   0.269   5.783  1.0907  1.9879  0.9217
 1720TIP3   OH226650   5.853   2.476   2.838 -0.3031 -0.8922 -0.0787
 1720TIP3    H126651   5.855   2.559   2.885 -1.3641 -0.4222 -0.8135
 1720TIP3    H226652   5.831   2.411   2.905 -2.6544 -0.1184  0.0089
 1721TIP3   OH226653   1.101   0.777  11.040  0.3336 -0.1935  0.2042
 1721TIP3    H126654   1.101   0.729  10.957  1.0245  1.2403 -0.6625
 1721TIP3    H226655   1.135   0.714  11.104  0.6971 -1.0388 -0.7901
 1722TIP3   OH226656   3.625   3.601  13.491 -0.4997 -0.0026  0.3467
 1722TIP3    H126657   3.694   3.644  13.541 -0.8501  0.6368  0.2961
 1722TIP3    H226658   3.655   3.511  13.480  0.5420  0.3843 -0.0779
 1723TIP3   OH226659   0.355   5.891  14.789  0.6040  0.3116 -0.5597
 1723TIP3    H126660   0.367   5.965  14.848 -5.0127 -0.2756  1.9811
 1723TIP3    H226661   0.334   5.931  14.705  0.4482  1.5066  0.0275
 1724TIP3   OH226662   1.008   1.232  11.727 -0.4902  0.2041  1.0825
 1724TIP3    H126663   1.022   1.181  11.807 -1.0679  0.1590  1.1585
 1724TIP3    H226664   1.023   1.169  11.656  1.8235  0.6746  1.0873
 1725TIP3   OH226665   3.133   0.573   3.559 -0.1619 -0.4361  0.9801
 1725TIP3    H126666   3.121   0.479   3.553 -1.1235 -0.2471 -1.0403
 1725TIP3    H226667   3.105   0.606   3.473 -1.4622  1.8319  2.1797
 1726TIP3   OH226668   5.991   5.145   0.949 -0.0484 -0.3018 -0.4209
 1726TIP3    H126669   6.026   5.178   1.031 -0.4958 -0.7538 -0.0437
 1726TIP3    H226670   6.066   5.143   0.890  0.4063 -0.5622  0.1560
 1727TIP3   OH226671   2.688   4.687   5.481 -0.0393 -0.2169 -0.0264
 1727TIP3    H126672   2.746   4.673   5.556  0.7861 -0.8814 -0.7749
 1727TIP3    H226673   2.600   4.694   5.519  0.4482  0.1611  1.0595
 1728TIP3   OH226674   0.990   2.336   1.775  0.0589 -0.2837  0.2609
 1728TIP3    H126675   1.064   2.394   1.791  1.7427 -1.6549 -2.0621
 1728TIP3    H226676   0.920   2.372   1.830  1.9427  1.9838  1.3644
 1729TIP3   OH226677   2.868   4.188   0.348  0.7875 -0.4061  0.1583
 1729TIP3    H126678   2.903   4.130   0.281  0.9939  1.7403 -1.7450
 1729TIP3    H226679   2.780   4.155   0.367  0.4671 -0.6865 -1.6973
 1730TIP3   OH226680   0.471   3.057  13.252 -0.3717 -0.4760  0.4421
 1730TIP3    H126681   0.436   3.056  13.163 -0.5754 -1.0003  0.5265
 1730TIP3    H226682   0.564   3.038  13.242 -0.2388  0.2293  0.2783
 1731TIP3   OH226683   4.858   0.345  11.224  0.2831  0.1167 -0.2296
 1731TIP3    H126684   4.928   0.374  11.166  0.5625  0.2565  0.1704
 1731TIP3    H226685   4.810   0.425  11.246  1.7376  0.5039  1.7803
 1732TIP3   OH226686   1.485   0.551  12.070 -0.1393 -0.0275  0.0527
 1732TIP3    H126687   1.406   0.536  12.122  0.6281 -0.7898  1.0521
 1732TIP3    H226688   1.482   0.643  12.046  0.4903  0.9750  3.2912
 1733TIP3   OH226689   6.231   2.040   5.223  0.0468  1.3076  0.1037
 1733TIP3    H126690   6.136   2.047   5.238 -0.3389 -0.4753 -1.2182
 1733TIP3    H226691   6.261   2.131   5.226 -2.0143  2.1238 -1.2342
 1734TIP3   OH226692   6.175   5.407   4.005  0.0836  0.1101  0.1346
 1734TIP3    H126693   6.230   5.419   4.083 -1.4633  3.4601  0.8956
 1734TIP3    H226694   6.089   5.385   4.041 -0.1792 -0.3165 -0.7516
 1735TIP3   OH226695   3.349   0.042   2.154 -0.3804 -0.4978 -0.1802
 1735TIP3    H126696   3.390   0.128   2.152 -0.9915 -0.1387  1.3063
 1735TIP3    H226697   3.407  -0.012   2.207 -1.0269 -0.3992  0.6602
 1736TIP3   OH226698   6.744   3.141  13.453 -0.0088  0.4406 -0.2452
 1736TIP3    H126699   6.832   3.179  13.453 -0.3560  1.2678  0.7903
 1736TIP3    H226700   6.698   3.186  13.523 -0.5940 -1.5257  0.7115
 1737TIP3   OH226701   3.332   6.120   0.261 -0.3578  0.1629  0.2999
 1737TIP3    H126702   3.269   6.138   0.191 -0.2360 -2.6882 -0.6550
 1737TIP3    H226703   3.278   6.111   0.340 -1.0009 -0.7526 -0.2284
 1738TIP3   OH226704   3.626   0.384  16.288 -0.0199 -0.1529 -0.0902
 1738TIP3    H126705   3.601   0.476  16.283  2.3040  0.5834  0.6247
 1738TIP3    H226706   3.548   0.336  16.260 -2.9213  1.7896  3.7684
 1739TIP3   OH226707   4.035   0.510  12.748 -0.0440  0.0179 -0.4001
 1739TIP3    H126708   4.095   0.571  12.791  0.3474 -1.1434  0.7635
 1739TIP3    H226709   4.062   0.511  12.656  0.1718  1.3143 -0.3476
 1740TIP3   OH226710   2.102   3.502  10.861  0.3522 -0.3664 -0.0422
 1740TIP3    H126711   2.106   3.409  10.883  0.4838 -0.7201 -1.4685
 1740TIP3    H226712   2.098   3.546  10.946  0.0437 -1.6745  0.6549
 1741TIP3   OH226713   2.105   2.067   3.801 -0.3374  0.0035  0.1395
 1741TIP3    H126714   2.100   1.971   3.796  0.0139  0.0227 -1.0033
 1741TIP3    H226715   2.194   2.088   3.771 -0.9468  0.7533 -1.2536
 1742TIP3   OH226716   0.749   0.204  10.525  0.1307  0.4115 -0.1718
 1742TIP3    H126717   0.669   0.238  10.485 -1.9963 -1.5574  2.0506
 1742TIP3    H226718   0.753   0.112  10.498  1.9298  0.5737 -0.5835
 1743TIP3   OH226719   5.996   6.495  14.485  0.3936  0.1764 -0.0089
 1743TIP3    H126720   6.070   6.513  14.428  0.9225  1.1843  0.9641
 1743TIP3    H226721   5.969   6.581  14.517 -2.2549  0.0570 -1.5824
 1744TIP3   OH226722   1.670   2.612   4.406  0.4026  0.1839 -0.0910
 1744TIP3    H126723   1.685   2.601   4.500  1.1531 -0.9659 -0.3297
 1744TIP3    H226724   1.629   2.530   4.378 -1.8006  1.3003 -0.4144
 1745TIP3   OH226725   5.146   3.429   0.760  0.1101 -0.2945 -0.5514
 1745TIP3    H126726   5.144   3.364   0.690  1.0269  0.1733 -1.0422
 1745TIP3    H226727   5.056   3.457   0.771 -0.3762 -1.9473 -0.0291
 1746TIP3   OH226728   6.268   4.930   1.410  0.3292 -0.0927 -0.0728
 1746TIP3    H126729   6.212   4.860   1.376 -0.5483  0.3876  0.3469
 1746TIP3    H226730   6.311   4.892   1.487 -0.2006 -0.1460  0.1969
 1747TIP3   OH226731   5.825   2.982  14.517  0.4484 -0.7067 -0.3485
 1747TIP3    H126732   5.761   2.911  14.521 -0.8823  0.2516 -2.4434
 1747TIP3    H226733   5.881   2.968  14.593 -1.9077 -1.9355  1.3130
 1748TIP3   OH226734   6.818   5.900  13.587 -0.4431  0.0536  0.4104
 1748TIP3    H126735   6.866   5.869  13.664 -1.1026 -0.3506  0.6739
 1748TIP3    H226736   6.754   5.962  13.622 -0.9961 -0.4130  0.2466
 1749TIP3   OH226737   3.975   4.167  14.662  0.3237 -0.1331  0.5658
 1749TIP3    H126738   3.965   4.261  14.648 -0.1918 -0.5560 -2.5853
 1749TIP3    H226739   4.032   4.160  14.738 -0.8515  2.6813  1.8507
 1750TIP3   OH226740   1.249   5.154  16.481  0.4026  0.1570  0.0183
 1750TIP3    H126741   1.190   5.082  16.503  0.0346  0.6318  0.6395
 1750TIP3    H226742   1.307   5.118  16.414  0.1820 -0.6929  0.2648
 1751TIP3   OH226743   4.845   1.411  15.804  0.3009  0.0454  0.6999
 1751TIP3    H126744   4.827   1.345  15.871 -1.8092  0.6010  0.7794
 1751TIP3    H226745   4.832   1.494  15.849  2.2314  0.5340  0.4195
 1752TIP3   OH226746   1.491   0.054  11.281 -0.3652 -0.1513 -0.2103
 1752TIP3    H126747   1.559   0.118  11.300 -0.8791  0.6657 -1.0437
 1752TIP3    H226748   1.522   0.008  11.203 -0.6406  0.0698 -0.4577
 1753TIP3   OH226749   4.570   0.458  16.950 -0.8944  0.2908 -0.0088
 1753TIP3    H126750   4.520   0.403  17.010 -0.7317  0.1657  0.0131
 1753TIP3    H226751   4.569   0.545  16.990 -1.7992  0.4817 -0.4275
 1754TIP3   OH226752   5.171   1.934  14.561 -0.6657 -1.0065 -0.0365
 1754TIP3    H126753   5.180   1.891  14.646 -0.7252 -0.4507  0.2581
 1754TIP3    H226754   5.250   1.989  14.553 -1.5520  0.3888  0.5148
 1755TIP3   OH226755   1.964   6.274   0.842  0.0674 -0.1117  0.0383
 1755TIP3    H126756   2.002   6.197   0.800  0.9665 -0.2857  1.1279
 1755TIP3    H226757   2.038   6.334   0.853 -0.6574  1.0153 -0.9857
 1756TIP3   OH226758   4.679   1.468  14.100 -0.0569 -0.6418  0.4182
 1756TIP3    H126759   4.736   1.421  14.040  0.4781 -0.9455  1.1485
 1756TIP3    H226760   4.737   1.497  14.171 -0.8845 -1.4020  1.4392
 1757TIP3   OH226761   0.618   3.717   6.032 -0.3896  0.0841  0.3745
 1757TIP3    H126762   0.571   3.634   6.036 -1.5405  0.5808 -1.5500
 1757TIP3    H226763   0.710   3.692   6.025 -0.6175 -0.9859  0.9998
 1758TIP3   OH226764   0.013   2.007  12.518 -0.1930 -0.2331  0.2157
 1758TIP3    H126765  -0.010   1.919  12.546 -1.7722 -0.1598 -0.7675
 1758TIP3    H226766   0.022   2.056  12.600 -0.3190 -1.0643  0.7371
 1759TIP3   OH226767   6.637   4.750  10.722  0.5468 -0.0400  0.0358
 1759TIP3    H126768   6.577   4.756  10.647  0.8038  0.6568 -0.1284
 1759TIP3    H226769   6.712   4.701  10.689  1.1321  1.1731 -0.5056
 1760TIP3   OH226770   4.888   0.813   0.381 -0.1317  0.6943 -0.0105
 1760TIP3    H126771   4.962   0.780   0.432 -0.4746 -0.2798 -0.1215
 1760TIP3    H226772   4.852   0.884   0.435 -0.6996 -0.5289  1.2961
 1761TIP3   OH226773   3.409   6.315  15.700 -0.1751 -0.0054  0.4984
 1761TIP3    H126774   3.473   6.363  15.753 -0.1458  0.1633  0.3107
 1761TIP3    H226775   3.457   6.240  15.666  0.6138  1.3232 -1.5500
 1762TIP3   OH226776   3.978   2.363   0.341 -0.0506  0.2974 -0.3333
 1762TIP3    H126777   4.005   2.434   0.282  2.2866  0.4931  0.8417
 1762TIP3    H226778   3.919   2.405   0.404 -0.8789  0.5507 -1.2621
 1763TIP3   OH226779   5.501   1.883   2.937  0.7821  0.7573  0.0221
 1763TIP3    H126780   5.522   1.804   2.986 -0.5254  0.8304  0.7393
 1763TIP3    H226781   5.575   1.894   2.877  0.2724 -1.9122 -1.2448
 1764TIP3   OH226782   3.645   3.045   4.410 -0.0072 -0.1181  0.6942
 1764TIP3    H126783   3.729   3.082   4.436 -0.1106  0.2907  0.4510
 1764TIP3    H226784   3.659   3.016   4.319 -0.2422  0.3069  0.5206
 1765TIP3   OH226785   3.553   5.406   1.999 -0.0055  0.0224 -0.4809
 1765TIP3    H126786   3.486   5.339   2.013  1.6564 -1.2964  1.8958
 1765TIP3    H226787   3.554   5.455   2.081  1.6051  0.2945 -0.6366
 1766TIP3   OH226788   3.755   5.940   6.181  0.1286 -0.5375 -0.6590
 1766TIP3    H126789   3.700   5.918   6.256 -0.0423 -2.9050 -1.3611
 1766TIP3    H226790   3.829   5.880   6.188  0.0191 -0.9317 -2.4169
 1767TIP3   OH226791   2.349   6.261   6.050  0.0071  0.2442  0.3530
 1767TIP3    H126792   2.432   6.309   6.048  0.6004 -0.7657 -0.0072
 1767TIP3    H226793   2.283   6.326   6.025  0.3461  1.6554  2.8140
 1768TIP3   OH226794   2.439   0.571   5.143  0.1743 -0.3678  0.3795
 1768TIP3    H126795   2.414   0.625   5.218 -0.2282 -1.0088  0.7216
 1768TIP3    H226796   2.468   0.634   5.077 -1.8608  0.4354  0.1473
 1769TIP3   OH226797   5.739   4.444  10.644  0.0743  0.2444  0.3264
 1769TIP3    H126798   5.701   4.362  10.614 -1.0380  0.5860  0.7804
 1769TIP3    H226799   5.828   4.444  10.607 -0.5586 -0.2795 -1.2436
 1770TIP3   OH226800   1.308   3.501   1.768 -0.0719  0.3971 -0.3325
 1770TIP3    H126801   1.301   3.592   1.798 -0.7332  0.3792 -0.4350
 1770TIP3    H226802   1.221   3.464   1.782  0.1590 -0.1857 -0.4154
 1771TIP3   OH226803   6.219   5.845  11.149  0.3846 -0.2559 -0.0561
 1771TIP3    H126804   6.176   5.763  11.175  0.1306 -0.4884 -1.1803
 1771TIP3    H226805   6.243   5.887  11.232  0.3829 -1.3955  0.5344
 1772TIP3   OH226806   3.784   6.747   1.739  0.1182 -0.0238  0.1765
 1772TIP3    H126807   3.782   6.779   1.649 -0.7135 -1.6611 -0.4078
 1772TIP3    H226808   3.693   6.748   1.768  0.2102 -0.8490  0.5142
 1773TIP3   OH226809   4.246   6.593   3.398  0.3561  0.1203  0.2609
 1773TIP3    H126810   4.324   6.542   3.376  1.1505  0.5108  1.9773
 1773TIP3    H226811   4.173   6.533   3.382  1.2104 -1.3316  1.5291
 1774TIP3   OH226812   2.940   0.052   0.106 -1.4513  0.2250 -0.2547
 1774TIP3    H126813   2.973   0.140   0.085 -0.0095  0.0533  1.1013
 1774TIP3    H226814   2.979   0.032   0.192 -1.5460 -1.8447 -0.6521
 1775TIP3   OH226815   6.095   1.063  13.512 -0.7223 -0.2583 -0.4116
 1775TIP3    H126816   6.166   0.999  13.502 -0.3711 -0.1023  0.8508
 1775TIP3    H226817   6.074   1.060  13.605 -0.8583  1.3000 -0.3801
 1776TIP3   OH226818   6.500   3.528  13.249  0.5943  0.3025  0.4865
 1776TIP3    H126819   6.570   3.586  13.219  0.3011 -0.5533 -2.1282
 1776TIP3    H226820   6.477   3.476  13.172 -2.7183  0.3134  1.2915
 1777TIP3   OH226821   3.258   2.856   5.427 -0.3505  0.0531  0.2380
 1777TIP3    H126822   3.345   2.893   5.440  0.2855 -1.0668 -0.6496
 1777TIP3    H226823   3.270   2.762   5.438 -1.1532 -0.2552 -1.2064
 1778TIP3   OH226824   6.078   5.919  13.700  0.0524  0.1968 -0.1876
 1778TIP3    H126825   6.001   5.868  13.725 -0.2326  0.8587  0.3216
 1778TIP3    H226826   6.059   6.008  13.731  0.6427  0.5621 -0.8370
 1779TIP3   OH226827   0.001   5.421  11.322  0.1194 -0.1037 -0.2132
 1779TIP3    H126828   0.084   5.374  11.328 -0.0065 -0.2988 -0.0134
 1779TIP3    H226829  -0.023   5.439  11.413  0.3061  0.5883 -0.2924
 1780TIP3   OH226830   5.912   3.097  13.738 -0.0926  0.0276 -0.0555
 1780TIP3    H126831   5.969   3.024  13.714 -1.2336 -0.7328 -0.5335
 1780TIP3    H226832   5.876   3.127  13.654  0.4349  1.2182  0.1227
 1781TIP3   OH226833   6.128   0.218   4.242  0.6267 -0.2497  0.0578
 1781TIP3    H126834   6.160   0.267   4.167  0.9895 -0.8734 -0.2007
 1781TIP3    H226835   6.195   0.230   4.310 -0.2547  1.2904  0.7147
 1782TIP3   OH226836   1.850   1.512   1.595  0.2119 -0.0144 -0.5622
 1782TIP3    H126837   1.924   1.466   1.636  1.0044  1.3544 -0.3640
 1782TIP3    H226838   1.856   1.601   1.630 -1.8355  0.0180 -0.1815
 1783TIP3   OH226839   3.565   2.291  15.504 -0.4369 -0.3856  0.4250
 1783TIP3    H126840   3.487   2.345  15.489 -0.6068 -0.6446  0.3836
 1783TIP3    H226841   3.579   2.296  15.598 -0.1971  0.0880  0.3659
 1784TIP3   OH226842   2.070   6.789   4.405  0.3372 -0.4952  0.4733
 1784TIP3    H126843   2.150   6.772   4.454  0.6823  1.8822  0.8560
 1784TIP3    H226844   1.999   6.764   4.465  0.7262 -2.7842  0.0611
 1785TIP3   OH226845   2.421   4.515   5.208  0.2854 -1.1879 -0.2298
 1785TIP3    H126846   2.354   4.449   5.224 -1.0535 -0.1410 -1.2797
 1785TIP3    H226847   2.467   4.524   5.291 -0.5531 -2.2617  0.3709
 1786TIP3   OH226848   1.199   6.353   6.046  0.2863 -0.5260  0.2251
 1786TIP3    H126849   1.118   6.337   6.096  1.3506  0.8104  2.5710
 1786TIP3    H226850   1.255   6.279   6.067  0.0861 -0.8864 -0.4947
 1787TIP3   OH226851   3.451   6.076   2.389 -0.7036 -0.0964 -0.3082
 1787TIP3    H126852   3.448   6.151   2.449  0.8663  1.5397 -2.1507
 1787TIP3    H226853   3.361   6.069   2.356 -1.7375 -1.3561  2.4840
 1788TIP3   OH226854   3.099   6.851  13.465  0.5651 -0.2306 -0.4023
 1788TIP3    H126855   3.186   6.885  13.446  0.7905 -1.3744 -1.5678
 1788TIP3    H226856   3.097   6.765  13.422 -1.3040 -0.0169 -0.8187
 1789TIP3   OH226857   4.058   0.861   1.603  0.2798 -0.0456  0.1579
 1789TIP3    H126858   4.104   0.853   1.687  0.6611 -0.2965 -0.0730
 1789TIP3    H226859   4.123   0.900   1.544 -0.0463  0.2994  0.0273
 1790TIP3   OH226860   2.802   1.140  12.029  0.1294  0.7455 -0.3289
 1790TIP3    H126861   2.841   1.064  11.985  0.1717  1.2197 -1.1207
 1790TIP3    H226862   2.715   1.149  11.990 -0.1441  0.6980  0.2525
 1791TIP3   OH226863   6.220   5.269  11.352 -0.5416  0.6393  0.0781
 1791TIP3    H126864   6.292   5.329  11.333 -0.2487  0.3659  0.3010
 1791TIP3    H226865   6.232   5.246  11.445  1.0607 -1.9531 -0.6703
 1792TIP3   OH226866   5.442   0.327   1.087  0.8618 -0.6368  0.5302
 1792TIP3    H126867   5.432   0.332   0.992 -0.9783 -1.0576  0.6756
 1792TIP3    H226868   5.426   0.235   1.108 -2.1656  0.0108  1.5422
 1793TIP3   OH226869   3.670   3.877   3.130 -0.7663  0.0209 -0.0558
 1793TIP3    H126870   3.759   3.842   3.139 -0.4684  0.4136 -1.2839
 1793TIP3    H226871   3.683   3.970   3.110 -1.4469  0.0634 -0.3262
 1794TIP3   OH226872   2.992   5.574   2.440 -0.5319 -0.3523  0.1456
 1794TIP3    H126873   2.957   5.627   2.369 -4.2724  0.1196  2.0729
 1794TIP3    H226874   2.988   5.632   2.517  0.1413 -1.8586  1.3615
 1795TIP3   OH226875   1.552   1.608  14.645 -0.7933  0.2408 -0.1254
 1795TIP3    H126876   1.595   1.573  14.723 -0.7624 -0.8100 -0.6094
 1795TIP3    H226877   1.605   1.684  14.621 -0.4360  0.1999  0.4991
 1796TIP3   OH226878   1.006   6.483   5.824  0.3142 -0.0942 -0.2149
 1796TIP3    H126879   1.055   6.401   5.834 -0.6570 -0.3568  3.9587
 1796TIP3    H226880   1.068   6.551   5.847  0.3028  0.1011 -0.7510
 1797TIP3   OH226881   1.007   2.903   2.271  0.2086  0.4285  0.8585
 1797TIP3    H126882   1.005   2.940   2.183 -1.2825  2.5270  1.6833
 1797TIP3    H226883   1.099   2.884   2.288  0.7335  1.5904 -0.5295
 1798TIP3   OH226884   1.998   3.153   2.967  0.0321 -0.1368  0.3069
 1798TIP3    H126885   2.016   3.228   3.024 -0.5900 -1.4363  2.3456
 1798TIP3    H226886   1.914   3.119   2.998  1.5608 -3.3420  1.4651
 1799TIP3   OH226887   0.325   4.612  16.279 -0.0929 -0.1929  0.2208
 1799TIP3    H126888   0.243   4.642  16.240 -0.0557  0.1158  0.3810
 1799TIP3    H226889   0.299   4.539  16.335 -0.0442 -1.2268 -1.0318
 1800TIP3   OH226890   3.257   6.278  14.489  0.3737 -0.1422  0.0672
 1800TIP3    H126891   3.307   6.221  14.547  0.7901 -0.8919 -0.9932
 1800TIP3    H226892   3.177   6.228  14.470  0.5050 -0.1622 -0.4515
 1801TIP3   OH226893   5.404   4.825  14.310 -0.2275  0.3342  0.4050
 1801TIP3    H126894   5.471   4.868  14.363  1.6394 -0.0337 -1.5075
 1801TIP3    H226895   5.389   4.741  14.353 -0.0691  0.7520  1.2914
 1802TIP3   OH226896   0.765   4.914   2.314 -0.5354  0.0970  0.5186
 1802TIP3    H126897   0.710   4.853   2.265 -0.9173  0.0534  1.0018
 1802TIP3    H226898   0.810   4.860   2.378 -0.3833  0.2268  0.5226
 1803TIP3   OH226899   5.799   1.428   4.137 -0.1825 -0.2591 -0.8971
 1803TIP3    H126900   5.813   1.410   4.230  1.1209 -1.4363 -1.2855
 1803TIP3    H226901   5.886   1.418   4.098 -0.8092 -0.2965 -2.3198
 1804TIP3   OH226902   6.722   4.191  16.866 -0.0940  0.2738  0.2095
 1804TIP3    H126903   6.641   4.205  16.915 -0.2104  0.0237  0.0959
 1804TIP3    H226904   6.791   4.189  16.932 -0.3575 -1.0172  0.4821
 1805TIP3   OH226905   1.356   6.451  13.554  0.1876 -0.6040 -0.5122
 1805TIP3    H126906   1.413   6.525  13.534  0.1506 -0.4944 -0.2145
 1805TIP3    H226907   1.303   6.480  13.629 -1.3402 -0.1155 -1.7227
 1806TIP3   OH226908   4.955   6.202   2.411  0.0343  0.5845  0.2210
 1806TIP3    H126909   5.047   6.216   2.436  0.6832  2.4044 -2.7613
 1806TIP3    H226910   4.924   6.289   2.384 -2.1371 -0.2812 -0.2548
 1807TIP3   OH226911   3.550   4.397   0.904  0.1328 -0.5408 -0.1283
 1807TIP3    H126912   3.538   4.491   0.902  0.3097 -0.5264 -1.6089
 1807TIP3    H226913   3.645   4.385   0.908  0.1098 -0.6608  0.0800
 1808TIP3   OH226914   2.065   5.819   4.031 -0.1941 -0.2938 -0.5253
 1808TIP3    H126915   2.081   5.898   4.082 -0.7465  0.0297 -0.8505
 1808TIP3    H226916   2.152   5.781   4.019  0.2130  0.8437 -1.3028
 1809TIP3   OH226917   2.084   1.945  11.950 -0.3714 -0.3787  0.3243
 1809TIP3    H126918   2.032   1.959  12.029  1.4316  1.3048  1.2879
 1809TIP3    H226919   2.052   2.011  11.888  1.8964  2.1126  1.6488
 1810TIP3   OH226920   0.393   6.351   5.129 -0.1909  0.3940  0.1984
 1810TIP3    H126921   0.469   6.396   5.093  0.0584 -0.4526 -0.3417
 1810TIP3    H226922   0.348   6.314   5.053 -1.4696  1.3560  0.4429
 1811TIP3   OH226923   6.699   4.283   0.785  0.1873  0.4872  0.1292
 1811TIP3    H126924   6.701   4.228   0.864  2.3420  1.3459  0.7554
 1811TIP3    H226925   6.651   4.232   0.721  0.9471 -1.5473  1.1000
 1812TIP3   OH226926   2.151   5.547  12.319  0.3222  0.2151 -0.2210
 1812TIP3    H126927   2.183   5.607  12.251  0.3650  0.0333 -0.3613
 1812TIP3    H226928   2.188   5.462  12.295 -0.9461 -0.1860 -0.8690
 1813TIP3   OH226929   5.843   3.245  15.741  0.0222  0.0879 -0.0786
 1813TIP3    H126930   5.903   3.291  15.683 -1.6220  0.8692 -1.2195
 1813TIP3    H226931   5.797   3.315  15.788 -2.0107 -0.3155 -1.3270
 1814TIP3   OH226932   1.775   4.946  11.296  0.7817 -0.0123 -0.6761
 1814TIP3    H126933   1.840   4.971  11.230  0.4569  0.3780 -0.8540
 1814TIP3    H226934   1.747   5.029  11.334  1.4893 -0.2721  0.4645
 1815TIP3   OH226935   0.339   3.901   2.105 -0.0592  0.0180  0.4070
 1815TIP3    H126936   0.256   3.865   2.075 -0.2336  0.4565  0.3671
 1815TIP3    H226937   0.316   3.978   2.156  0.0575 -1.8517  3.5634
 1816TIP3   OH226938   1.304   1.128  16.242  0.2944 -0.4082 -0.4765
 1816TIP3    H126939   1.368   1.135  16.313 -0.3572  2.9092 -0.0799
 1816TIP3    H226940   1.229   1.084  16.282 -0.4382  2.2278  1.2829
 1817TIP3   OH226941   6.311   4.506  16.095  0.2331  0.0042  0.0790
 1817TIP3    H126942   6.228   4.543  16.124 -0.2615  0.1652 -1.4299
 1817TIP3    H226943   6.360   4.582  16.062  0.3545 -0.2845 -0.4170
 1818TIP3   OH226944   0.161   2.008  14.831  0.5373  0.3067 -0.6537
 1818TIP3    H126945   0.238   1.952  14.834 -0.8202 -1.7141 -1.3063
 1818TIP3    H226946   0.119   1.998  14.916  0.6105  0.8505 -0.5460
 1819TIP3   OH226947   0.351   4.107  16.966 -0.0559  0.3047  0.0076
 1819TIP3    H126948   0.283   4.072  17.023 -0.1211  1.1751  0.4834
 1819TIP3    H226949   0.304   4.164  16.905  0.1270  0.1194 -0.3086
 1820TIP3   OH226950   3.860   3.284   0.764 -0.3329  0.4786 -0.2949
 1820TIP3    H126951   3.916   3.231   0.822 -0.2988  0.7660 -0.0611
 1820TIP3    H226952   3.815   3.344   0.824  1.1831  2.1495 -0.7273
 1821TIP3   OH226953   4.119   2.311  16.241  0.3380  0.3808  0.4914
 1821TIP3    H126954   4.167   2.392  16.224  0.1772  0.1346 -1.2669
 1821TIP3    H226955   4.186   2.243  16.243  0.4372  0.4883  1.6629
 1822TIP3   OH226956   4.142   1.841  14.471  0.2117 -0.6468  0.0157
 1822TIP3    H126957   4.204   1.866  14.540 -0.0869 -1.6019  0.6515
 1822TIP3    H226958   4.070   1.799  14.518 -0.9075  0.3731 -0.7167
 1823TIP3   OH226959   0.424   1.562   5.679 -0.4703 -0.1104 -0.0565
 1823TIP3    H126960   0.338   1.528   5.653 -0.5172  0.5535 -0.8161
 1823TIP3    H226961   0.482   1.486   5.673 -1.1113 -0.7054  1.0633
 1824TIP3   OH226962   5.075   6.806  14.447  0.3099  0.3366 -0.6716
 1824TIP3    H126963   5.156   6.767  14.478 -0.3985  0.7354  1.9019
 1824TIP3    H226964   5.088   6.816  14.352  4.1365  2.4406 -0.1397
 1825TIP3   OH226965   4.328   0.045  14.681  0.2060 -0.2375 -0.3403
 1825TIP3    H126966   4.242   0.004  14.680  0.5580 -1.0146  0.2193
 1825TIP3    H226967   4.320   0.120  14.622 -0.7284 -0.5420 -0.6103
 1826TIP3   OH226968   3.221   3.039  16.699  0.6837 -0.4211  0.1349
 1826TIP3    H126969   3.272   2.967  16.664 -0.1794 -0.6719 -0.6363
 1826TIP3    H226970   3.251   3.116  16.650  0.0213 -0.6416 -0.6230
 1827TIP3   OH226971   1.409   6.287   5.226 -0.2454  0.1451 -0.4052
 1827TIP3    H126972   1.455   6.223   5.172 -0.5136 -2.1538  1.8799
 1827TIP3    H226973   1.341   6.323   5.169  0.3692 -1.0933 -1.9711
 1828TIP3   OH226974   1.370   2.371   1.535 -0.8430  0.1748  0.2251
 1828TIP3    H126975   1.422   2.302   1.494 -1.2706 -0.3307  0.5103
 1828TIP3    H226976   1.305   2.394   1.469 -0.9113  0.0650  0.2542
 1829TIP3   OH226977   6.588   4.679   1.635 -0.4048 -0.0587  0.2434
 1829TIP3    H126978   6.562   4.601   1.585  1.1650 -1.1491  1.0217
 1829TIP3    H226979   6.627   4.737   1.570 -0.6354 -0.3820 -0.1893
 1830TIP3   OH226980   1.997   0.611  15.376  0.1151  0.3671 -0.3685
 1830TIP3    H126981   2.020   0.544  15.311 -1.5999  0.5871 -1.2777
 1830TIP3    H226982   2.078   0.657  15.393  1.3249 -1.8247  0.1643
 1831TIP3   OH226983   1.419   6.854   2.898  0.0737  0.0200  0.7344
 1831TIP3    H126984   1.350   6.799   2.935 -0.9951  1.4553  0.9826
 1831TIP3    H226985   1.389   6.872   2.809  0.2017  0.5199  0.7918
 1832TIP3   OH226986   3.867   5.445   4.343 -0.4340  0.6408  0.1840
 1832TIP3    H126987   3.909   5.437   4.258 -1.8624  0.9264 -0.5871
 1832TIP3    H226988   3.870   5.356   4.380 -0.3816  0.3770 -0.4474
 1833TIP3   OH226989   6.685   2.913   5.386 -0.2136 -0.0932  0.2336
 1833TIP3    H126990   6.666   3.002   5.357  1.5064 -0.3757 -2.0657
 1833TIP3    H226991   6.755   2.923   5.451 -0.4004  0.2443  0.3859
 1834TIP3   OH226992   1.717   2.900   2.551  0.1186 -0.2423 -0.2361
 1834TIP3    H126993   1.736   2.988   2.584  0.1983 -0.3622  0.0423
 1834TIP3    H226994   1.695   2.849   2.629 -1.7220 -0.0229 -0.5602
 1835TIP3   OH226995   1.496   1.505   3.577  0.3386 -0.6881 -0.9042
 1835TIP3    H126996   1.573   1.516   3.521 -0.0716 -1.7509 -1.7121
 1835TIP3    H226997   1.472   1.413   3.568 -1.0997 -0.3596 -0.7677
 1836TIP3   OH226998   4.243   4.755   2.380 -0.3508  0.0188  0.2162
 1836TIP3    H126999   4.263   4.664   2.358 -1.0132  0.1312 -0.9401
 1836TIP3    H227000   4.199   4.750   2.465  1.7223 -0.4983  1.3161
 1837TIP3   OH227001   6.476   3.600   5.571  0.0665  0.6699 -0.5668
 1837TIP3    H127002   6.541   3.669   5.586 -0.2934  1.2957 -1.7722
 1837TIP3    H227003   6.520   3.519   5.599  0.6356  1.3257  0.4973
 1838TIP3   OH227004   3.592   1.372   5.220  0.3109  0.1531  0.1839
 1838TIP3    H127005   3.630   1.337   5.300 -0.4701  0.6500  0.7924
 1838TIP3    H227006   3.585   1.297   5.161  2.1636  0.0325  0.0499
 1839TIP3   OH227007   6.484   6.117  12.760 -0.3414 -0.1693  0.0672
 1839TIP3    H127008   6.441   6.182  12.704  1.1381  0.7708 -0.0282
 1839TIP3    H227009   6.412   6.068  12.799 -1.4545  0.1719 -1.4495
 1840TIP3   OH227010   3.565   4.544  16.845 -0.2251  0.3020 -0.0716
 1840TIP3    H127011   3.587   4.458  16.808 -0.7313 -0.1255  0.5811
 1840TIP3    H227012   3.469   4.547  16.843 -0.1911  1.2027 -0.8425
 1841TIP3   OH227013   2.141   2.323   2.868  0.3139 -0.2777  0.0303
 1841TIP3    H127014   2.120   2.268   2.793  0.1767  0.0627 -0.1864
 1841TIP3    H227015   2.183   2.401   2.829 -0.2839  0.1644  0.2581
 1842TIP3   OH227016   1.522   2.132   3.705 -0.2509  1.1944 -0.1536
 1842TIP3    H127017   1.613   2.148   3.729  0.1456  0.0294 -0.7604
 1842TIP3    H227018   1.520   2.038   3.685 -1.7929  1.0143  0.7255
 1843TIP3   OH227019   2.110   3.879  10.306 -0.4419 -0.3071  0.3671
 1843TIP3    H127020   2.096   3.894  10.400 -1.1723 -0.0636  0.2235
 1843TIP3    H227021   2.201   3.902  10.292 -0.9347  1.9778  0.5655
 1844TIP3   OH227022   3.934   3.988   6.561 -0.9521 -0.6227  0.8000
 1844TIP3    H127023   3.963   3.919   6.622 -2.3033 -0.9241  1.1444
 1844TIP3    H227024   3.995   4.061   6.577  0.5700 -1.7367  0.3583
 1845TIP3   OH227025   1.169   2.461   0.168  0.0045  0.1538  0.2040
 1845TIP3    H127026   1.213   2.546   0.169 -0.8956  0.6385  1.6735
 1845TIP3    H227027   1.081   2.479   0.200 -0.4520 -1.2106 -0.2325
 1846TIP3   OH227028   4.037   5.784  14.187 -0.0426 -0.5986  0.0123
 1846TIP3    H127029   4.091   5.863  14.195 -0.0234 -0.6522  0.4577
 1846TIP3    H227030   4.061   5.731  14.263 -2.1578  0.2570  1.3558
 1847TIP3   OH227031   0.098   4.923  13.217 -0.6042  0.3263 -0.0229
 1847TIP3    H127032   0.038   4.881  13.279 -0.5936  0.7110  0.2469
 1847TIP3    H227033   0.099   5.015  13.242 -0.1203  0.3742 -0.2061
 1848TIP3   OH227034   3.790   5.910   3.449 -0.3967  0.1656  0.2159
 1848TIP3    H127035   3.804   5.865   3.366 -0.6648  1.0171 -0.2983
 1848TIP3    H227036   3.721   5.973   3.432 -0.5881  0.2273  1.1389
 1849TIP3   OH227037   3.966   1.500  12.038  0.2306 -0.2912  0.2355
 1849TIP3    H127038   4.030   1.504  11.968 -0.4116 -0.9933 -0.4095
 1849TIP3    H227039   3.891   1.550  12.005 -0.5329 -1.6144 -0.0968
 1850TIP3   OH227040   1.943   4.407   5.475 -0.1749 -0.3824  0.4687
 1850TIP3    H127041   1.945   4.475   5.407 -3.5743 -0.5497  0.0235
 1850TIP3    H227042   1.921   4.455   5.555 -2.9625 -0.8215  0.0870
 1851TIP3   OH227043   2.855   2.778  14.416 -0.4959  0.5528  0.6232
 1851TIP3    H127044   2.920   2.826  14.364 -1.1806  1.3066  0.4315
 1851TIP3    H227045   2.825   2.707  14.359 -0.8626  1.0608  0.1673
 1852TIP3   OH227046   6.245   1.182   3.631 -1.0297  0.9748  0.9186
 1852TIP3    H127047   6.316   1.142   3.582 -2.6732  0.7859 -1.5066
 1852TIP3    H227048   6.280   1.195   3.719  2.1366  1.3771 -0.2708
 1853TIP3   OH227049   6.750   1.589   6.446 -0.0486 -0.1806 -0.3174
 1853TIP3    H127050   6.721   1.573   6.356 -0.7187 -1.4176  0.0974
 1853TIP3    H227051   6.826   1.533   6.458 -0.3037 -0.4534  0.0602
 1854TIP3   OH227052   6.323   6.635  11.180  0.1356 -0.1143 -0.5003
 1854TIP3    H127053   6.338   6.685  11.099  1.2550 -0.4699 -0.5288
 1854TIP3    H227054   6.392   6.568  11.179 -0.2969 -0.5766  0.3909
 1855TIP3   OH227055   3.430   6.538  11.362  0.3458  0.2806 -0.1862
 1855TIP3    H127056   3.423   6.481  11.286  0.7249  0.7448 -0.5816
 1855TIP3    H227057   3.488   6.492  11.422  1.1458  0.5143 -0.7630
 1856TIP3   OH227058   2.860   3.700  15.503  0.6066  0.6919  0.3968
 1856TIP3    H127059   2.863   3.738  15.592 -0.8785 -1.9841  1.6940
 1856TIP3    H227060   2.858   3.606  15.517  0.0566  0.1852 -2.5296
 1857TIP3   OH227061   2.639   5.344   1.953  0.0148  0.0497 -0.5417
 1857TIP3    H127062   2.617   5.413   2.016 -0.8424 -0.5116 -0.2059
 1857TIP3    H227063   2.556   5.322   1.911  0.3707 -0.4088 -1.0141
 1858TIP3   OH227064   0.127   1.327  13.506  0.1473 -0.0881  0.1490
 1858TIP3    H127065   0.155   1.249  13.458  0.9235  0.3733 -0.1523
 1858TIP3    H227066   0.196   1.391  13.491  0.2718  0.1660  1.6461
 1859TIP3   OH227067   6.826   0.991   0.973  0.2826 -0.0131  0.4453
 1859TIP3    H127068   6.765   0.926   0.936 -0.5917  0.5428  0.8836
 1859TIP3    H227069   6.904   0.940   0.996  0.2772 -0.6134 -0.7991
 1860TIP3   OH227070   4.575   0.700  11.099 -0.2922  0.3663 -0.0983
 1860TIP3    H127071   4.488   0.681  11.133 -0.9103  0.9567 -1.3002
 1860TIP3    H227072   4.568   0.787  11.059  0.9861  0.6536  0.2342
 1861TIP3   OH227073   2.385   5.732   5.279  0.2847 -0.2794  0.0164
 1861TIP3    H127074   2.410   5.737   5.186  1.2556 -0.0970  0.2795
 1861TIP3    H227075   2.383   5.639   5.298 -2.5182 -0.4748 -0.8506
 1862TIP3   OH227076   2.800   5.241   4.786 -0.3670  0.1279 -0.1917
 1862TIP3    H127077   2.822   5.334   4.779 -3.2337  0.9504  0.1022
 1862TIP3    H227078   2.722   5.232   4.731  0.6995 -2.4804 -1.4154
 1863TIP3   OH227079   3.040   2.166  16.721  0.0144 -0.1075 -0.0834
 1863TIP3    H127080   2.967   2.227  16.733 -1.0917 -1.7282  1.9743
 1863TIP3    H227081   3.114   2.209  16.765 -0.3246  0.4657 -0.0667
 1864TIP3   OH227082   1.685   6.222   0.367  0.4471  0.4836 -0.3686
 1864TIP3    H127083   1.667   6.252   0.456 -2.3003  0.7552 -0.8967
 1864TIP3    H227084   1.663   6.129   0.368  1.1980  0.2985 -0.5880
 1865TIP3   OH227085   2.608   0.802  11.216  0.0760  0.5707  0.5586
 1865TIP3    H127086   2.560   0.738  11.164  1.1255  2.0576 -2.4915
 1865TIP3    H227087   2.697   0.766  11.223  0.2327  0.8957  0.2872
 1866TIP3   OH227088   2.520   5.456   1.566  0.3032  0.1579  0.1605
 1866TIP3    H127089   2.452   5.441   1.501  0.1214  1.1961  0.0899
 1866TIP3    H227090   2.598   5.414   1.530  0.1688  0.5945 -0.6611
 1867TIP3   OH227091   4.660   5.682   6.006 -0.2026 -0.2298 -0.3850
 1867TIP3    H127092   4.565   5.673   6.008 -0.2714 -0.0070 -1.5197
 1867TIP3    H227093   4.674   5.773   5.978  0.3667  0.1893  1.1801
 1868TIP3   OH227094   5.316   4.600  11.812  0.1305  0.3152  0.4389
 1868TIP3    H127095   5.306   4.544  11.888 -1.7657  0.5061  0.3769
 1868TIP3    H227096   5.395   4.568  11.769 -0.3153 -1.6405  0.9602
 1869TIP3   OH227097   2.850   0.229   5.758  0.1820 -0.1296  0.7065
 1869TIP3    H127098   2.931   0.198   5.718 -2.0671 -2.2236 -2.7724
 1869TIP3    H227099   2.836   0.316   5.719  0.7704  0.3238  1.4667
 1870TIP3   OH227100   3.039   5.622   0.114 -0.0625 -0.4943  0.7566
 1870TIP3    H127101   3.125   5.584   0.133  0.0472 -0.1209  1.0259
 1870TIP3    H227102   3.019   5.674   0.192  0.1759  0.6930  0.0390
 1871TIP3   OH227103   2.380   2.048   0.410  0.0316  0.0863 -0.6310
 1871TIP3    H127104   2.380   2.073   0.318 -0.1821 -2.2175 -1.3298
 1871TIP3    H227105   2.397   2.130   0.458  1.9646  1.0569 -2.7786
 1872TIP3   OH227106   2.705   5.122   0.683 -0.4115 -0.5340  0.0924
 1872TIP3    H127107   2.708   5.060   0.610  0.8407 -0.7787  0.3389
 1872TIP3    H227108   2.777   5.096   0.740 -0.6744  0.3564  0.8535
 1873TIP3   OH227109   6.281   0.426   4.957  0.6609  0.1929 -0.2881
 1873TIP3    H127110   6.324   0.357   5.008 -0.7189  0.9666  2.0818
 1873TIP3    H227111   6.273   0.500   5.018  1.9769  2.4897 -2.6871
 1874TIP3   OH227112   1.177   3.369  16.201 -0.1034 -0.8129  0.7926
 1874TIP3    H127113   1.247   3.367  16.266 -0.7773  0.0637  1.5709
 1874TIP3    H227114   1.158   3.277  16.183  0.0853 -1.0683  1.8533
 1875TIP3   OH227115   4.361   0.118  16.069  1.0384  0.2604 -0.3242
 1875TIP3    H127116   4.412   0.156  15.997 -1.5529 -1.6389 -3.4648
 1875TIP3    H227117   4.309   0.191  16.103  1.3982  0.9878 -1.2864
 1876TIP3   OH227118   4.571   1.943  11.130  0.1025  0.5051  0.7759
 1876TIP3    H127119   4.519   1.973  11.204  2.6544  1.3674  2.3235
 1876TIP3    H227120   4.607   2.023  11.093  1.3894 -0.1511  0.5769
 1877TIP3   OH227121   2.144   6.713   1.815 -0.5791 -0.5277  0.2989
 1877TIP3    H127122   2.088   6.777   1.859  0.4431  1.2197 -0.7861
 1877TIP3    H227123   2.231   6.727   1.852  0.1969  0.6184 -1.7368
 1878TIP3   OH227124   3.244   2.686  13.168  0.5739 -0.1280 -0.1713
 1878TIP3    H127125   3.312   2.635  13.124  1.1216  0.7345 -0.3440
 1878TIP3    H227126   3.287   2.768  13.193 -0.3657  0.3806 -0.1712
 1879TIP3   OH227127   6.476   4.630  12.187 -0.1170 -0.3162 -0.4732
 1879TIP3    H127128   6.409   4.688  12.221 -0.3396  0.1815 -1.7153
 1879TIP3    H227129   6.466   4.634  12.092  1.5422 -0.3750 -0.6867
 1880TIP3   OH227130   6.827   5.298  16.885  0.1163  0.0824 -0.0330
 1880TIP3    H127131   6.767   5.229  16.857 -0.1791  0.3410 -0.0460
 1880TIP3    H227132   6.789   5.378  16.849 -1.0956  0.6509  2.3382
 1881TIP3   OH227133   5.691   6.381   1.664  0.8809  0.8923  0.2467
 1881TIP3    H127134   5.640   6.358   1.742  0.1667 -1.5297 -0.8258
 1881TIP3    H227135   5.775   6.412   1.698  0.0500  1.3402  1.9904
 1882TIP3   OH227136   4.756   6.206   5.662  0.0911  0.1942  0.3516
 1882TIP3    H127137   4.712   6.272   5.716 -1.7016 -1.3675  0.9219
 1882TIP3    H227138   4.706   6.205   5.580  0.4308 -0.0908  0.1448
 1883TIP3   OH227139   3.488   3.484  16.895  0.0790 -0.0098 -1.0399
 1883TIP3    H127140   3.545   3.497  16.972 -0.6298 -1.0453 -0.3169
 1883TIP3    H227141   3.494   3.567  16.847 -0.2612  1.0664  0.6736
 1884TIP3   OH227142   6.533   6.456  11.574 -0.0237 -0.2249  0.4174
 1884TIP3    H127143   6.461   6.509  11.539 -1.8270 -1.7462  1.5997
 1884TIP3    H227144   6.559   6.501  11.655  1.4399  1.1198 -0.7255
 1885TIP3   OH227145   4.800   0.265   0.773 -0.2124  0.7617  0.0054
 1885TIP3    H127146   4.867   0.231   0.714 -0.8366  2.4170 -1.7740
 1885TIP3    H227147   4.844   0.336   0.820  0.1838 -0.3267  1.3347
 1886TIP3   OH227148   2.175   3.299  13.640  0.0299 -0.2227  0.0283
 1886TIP3    H127149   2.191   3.333  13.552  0.5896  1.9275  0.9169
 1886TIP3    H227150   2.098   3.345  13.670  0.1921 -0.5112  0.9043
 1887TIP3   OH227151   5.182   1.960  13.582  0.1700  0.5155 -0.8363
 1887TIP3    H127152   5.254   1.927  13.634 -0.0156  0.8600 -0.3523
 1887TIP3    H227153   5.146   2.032  13.634 -0.2783  0.5942 -1.2485
 1888TIP3   OH227154   4.846   6.494  13.631 -0.4457  0.3765 -0.2702
 1888TIP3    H127155   4.925   6.494  13.686 -1.3561  1.9185  1.1233
 1888TIP3    H227156   4.788   6.558  13.672 -2.2771 -0.4100 -1.4984
 1889TIP3   OH227157   5.195   4.115   2.262  0.1621  0.3587  0.3041
 1889TIP3    H127158   5.134   4.127   2.189  0.3972 -0.7098 -0.0811
 1889TIP3    H227159   5.139   4.084   2.334  0.0870  0.4337  0.2785
 1890TIP3   OH227160   4.237   3.381   4.321 -0.3158  0.0893  0.4441
 1890TIP3    H127161   4.230   3.293   4.359  2.1828 -0.0120  0.8287
 1890TIP3    H227162   4.322   3.381   4.276  0.0711  2.5090  1.0344
 1891TIP3   OH227163   1.874   3.955  15.435 -0.2901 -0.4044  0.1914
 1891TIP3    H127164   1.933   3.911  15.497  0.4991 -0.7625 -0.7934
 1891TIP3    H227165   1.886   4.048  15.452  1.0043 -0.4519 -0.3875
 1892TIP3   OH227166   2.920   6.233   1.065 -0.1599 -0.0540  0.4943
 1892TIP3    H127167   2.983   6.236   0.993  1.3278  0.6476  1.7736
 1892TIP3    H227168   2.951   6.162   1.121  1.8206  2.6189  3.0822
 1893TIP3   OH227169   1.640   3.701   5.187  0.1886  0.0836  0.3808
 1893TIP3    H127170   1.709   3.646   5.150  0.3096 -0.0759  0.8348
 1893TIP3    H227171   1.582   3.720   5.113 -0.7417 -1.9802  0.5175
 1894TIP3   OH227172   0.860   2.283   4.483 -0.0246  0.2602 -0.1371
 1894TIP3    H127173   0.784   2.279   4.425  0.5552 -1.3244 -0.8368
 1894TIP3    H227174   0.935   2.264   4.427  0.5834 -1.0688  1.0571
 1895TIP3   OH227175   2.850   1.999  13.022  0.5772  0.1672  0.3604
 1895TIP3    H127176   2.933   1.989  12.975  0.9415 -1.7258  1.3226
 1895TIP3    H227177   2.844   1.921  13.077 -1.7054  0.4176  0.5548
 1896TIP3   OH227178   5.348   0.098  12.000 -0.3704 -0.0844 -0.1109
 1896TIP3    H127179   5.301   0.076  11.920 -0.7655 -0.6568  0.2711
 1896TIP3    H227180   5.299   0.054  12.070 -1.4705  2.3498  0.7561
 1897TIP3   OH227181   1.840   6.512   3.857 -0.7623  0.1612  0.1164
 1897TIP3    H127182   1.842   6.484   3.948  2.1547 -2.0837 -0.4877
 1897TIP3    H227183   1.932   6.516   3.831 -1.0603  5.9130 -1.4062
 1898TIP3   OH227184   1.899   4.517  10.194  0.0539 -0.0134 -0.1457
 1898TIP3    H127185   1.983   4.561  10.198 -0.2945  0.6371  0.1198
 1898TIP3    H227186   1.887   4.480  10.281  0.1468 -0.2781 -0.2416
 1899TIP3   OH227187   0.768   0.784   3.444  0.7778 -0.5681  0.0669
 1899TIP3    H127188   0.748   0.797   3.351  1.3919 -0.2312 -0.0266
 1899TIP3    H227189   0.847   0.837   3.459  2.3559 -2.8136  0.1024
 1900TIP3   OH227190   1.288   0.348   0.527  0.1484  0.2157 -0.5659
 1900TIP3    H127191   1.274   0.300   0.609  0.8613  0.8838 -0.0379
 1900TIP3    H227192   1.202   0.384   0.505 -0.1942 -0.5415 -0.4843
 1901TIP3   OH227193   1.954   5.976  14.756 -0.0414  0.4176  0.4973
 1901TIP3    H127194   2.029   6.016  14.712  1.0295 -0.0630  1.8000
 1901TIP3    H227195   1.966   5.882  14.742  0.3205  0.2606  1.7853
 1902TIP3   OH227196   1.062   5.841  15.723 -0.5295 -0.1004  0.3617
 1902TIP3    H127197   1.063   5.756  15.766 -0.6115 -1.3971 -2.0325
 1902TIP3    H227198   0.972   5.872  15.732 -0.4680 -0.1819  1.3620
 1903TIP3   OH227199   2.470   0.870   6.765  0.7409 -0.1854  0.1737
 1903TIP3    H127200   2.452   0.778   6.788  0.1449 -0.0149  0.4080
 1903TIP3    H227201   2.384   0.907   6.747  1.1304 -0.0999 -1.6240
 1904TIP3   OH227202   4.101   1.433  15.733 -0.5999  0.3730 -0.1432
 1904TIP3    H127203   4.153   1.476  15.665 -0.7532  0.7205 -0.0477
 1904TIP3    H227204   4.020   1.408  15.689 -0.1541 -0.6156 -0.4114
 1905TIP3   OH227205   0.931   5.780  11.560  0.4289  0.0050  0.0275
 1905TIP3    H127206   1.020   5.757  11.534  1.3188  1.5520  1.4976
 1905TIP3    H227207   0.915   5.729  11.639  0.1905  0.1055  0.0466
 1906TIP3   OH227208   0.189   4.667  11.031  0.2083 -0.3107 -0.3329
 1906TIP3    H127209   0.207   4.731  10.962 -2.0654 -1.2725 -1.9164
 1906TIP3    H227210   0.163   4.720  11.107 -2.1790  0.7478 -1.7703
 1907TIP3   OH227211   1.525   2.642  13.481  0.4091  0.2394 -0.1060
 1907TIP3    H127212   1.480   2.673  13.560  0.1676  1.3771 -0.6703
 1907TIP3    H227213   1.496   2.702  13.412  3.3536  1.5378 -0.3512
 1908TIP3   OH227214   4.393   0.887  13.037  0.1354 -0.0713 -0.3851
 1908TIP3    H127215   4.437   0.869  13.120  0.6200 -1.0531 -0.8454
 1908TIP3    H227216   4.328   0.817  13.029  1.0460 -0.8340 -1.4930
 1909TIP3   OH227217   6.843   6.022  16.517  0.3338  0.1807  0.0303
 1909TIP3    H127218   6.928   6.039  16.556 -0.8087  2.4887  1.8278
 1909TIP3    H227219   6.792   5.982  16.587 -0.9266  1.7198  0.0528
 1910TIP3   OH227220   2.081   2.806   6.080 -0.1992  0.0537  0.3091
 1910TIP3    H127221   2.003   2.750   6.084 -0.7574  0.8651  1.0079
 1910TIP3    H227222   2.073   2.852   5.996 -0.1928 -0.2559  0.1368
 1911TIP3   OH227223   5.623   1.367   3.523 -0.5063  0.7179 -0.3577
 1911TIP3    H127224   5.666   1.292   3.562 -2.2261 -0.7241 -1.0825
 1911TIP3    H227225   5.690   1.410   3.470  1.0349  0.9291  1.6790
 1912TIP3   OH227226   0.938   3.946   5.255 -0.7049  0.4983  0.1054
 1912TIP3    H127227   0.871   3.888   5.220  1.6551 -0.7663 -2.7295
 1912TIP3    H227228   0.980   3.895   5.324  0.3549 -0.6894 -1.3485
 1913TIP3   OH227229   4.442   1.218   0.620 -0.6545 -0.2902  0.6320
 1913TIP3    H127230   4.352   1.191   0.637 -0.3856 -1.2264  0.6657
 1913TIP3    H227231   4.477   1.147   0.566 -0.2953  0.6578 -0.3905
 1914TIP3   OH227232   3.404   4.794   0.588 -0.2107  0.1958  0.3219
 1914TIP3    H127233   3.339   4.737   0.548 -1.1577  2.1734 -1.1436
 1914TIP3    H227234   3.483   4.741   0.592 -1.0748 -1.2567 -0.8256
 1915TIP3   OH227235   1.255   5.457  14.932  0.7573 -0.0195 -0.2494
 1915TIP3    H127236   1.250   5.543  14.889 -0.9916 -0.5709 -1.2781
 1915TIP3    H227237   1.247   5.476  15.025 -0.4409  0.9084 -0.5114
 1916TIP3   OH227238   4.979   2.966   6.361  0.2047 -0.4453  0.1269
 1916TIP3    H127239   4.938   2.880   6.372  0.7604 -0.7373 -0.0706
 1916TIP3    H227240   4.917   3.026   6.402 -1.3601 -0.6461 -1.7427
 1917TIP3   OH227241   4.218   3.944  10.959 -0.5309  0.1001 -0.0150
 1917TIP3    H127242   4.174   3.920  10.877 -0.7468 -1.0972  0.4253
 1917TIP3    H227243   4.251   4.032  10.943 -0.2979 -0.2201 -1.5073
 1918TIP3   OH227244   0.246   1.307  17.068  0.0891  0.5915  0.0772
 1918TIP3    H127245   0.190   1.267  17.134 -0.3768  0.0515 -0.6201
 1918TIP3    H227246   0.335   1.300  17.104 -0.3391  2.0721  1.4850
 1919TIP3   OH227247   6.726   4.857  13.806 -0.4957 -0.2306  0.3520
 1919TIP3    H127248   6.787   4.786  13.783  1.3442  0.7212  2.0247
 1919TIP3    H227249   6.771   4.937  13.779  0.2587  0.6832  3.7435
 1920TIP3   OH227250   3.240   4.006  12.899  0.1693 -0.3082 -0.3880
 1920TIP3    H127251   3.176   4.076  12.888 -1.3540 -1.4479  0.6444
 1920TIP3    H227252   3.243   3.991  12.993  1.3759 -0.8369 -0.4916
 1921TIP3   OH227253   6.235   1.586  13.508  0.2225 -0.2897  0.5818
 1921TIP3    H127254   6.246   1.512  13.568 -1.8710  1.0104  2.7573
 1921TIP3    H227255   6.186   1.550  13.434  0.9477 -1.4483  0.6305
 1922TIP3   OH227256   4.668   1.181   2.922  0.0372 -0.1669 -0.1282
 1922TIP3    H127257   4.732   1.192   2.992  1.3911 -0.8707 -1.2080
 1922TIP3    H227258   4.715   1.205   2.843 -0.7577 -1.5244 -1.0567
 1923TIP3   OH227259   5.408   0.624   0.038  0.3716  0.2210 -0.3571
 1923TIP3    H127260   5.441   0.713   0.051 -0.0193  0.1392  1.4293
 1923TIP3    H227261   5.351   0.630  -0.038 -2.0173  2.1879  1.4543
 1924TIP3   OH227262   4.045   4.091  13.779  0.2042  0.4530 -0.1967
 1924TIP3    H127263   3.981   4.126  13.841  0.0291 -0.1386 -0.0317
 1924TIP3    H227264   3.991   4.046  13.713  0.4719 -1.1484  0.6259
 1925TIP3   OH227265   6.560   3.936  11.583 -0.3961  0.2654  0.8339
 1925TIP3    H127266   6.614   3.864  11.552 -0.3368  0.1441  1.2113
 1925TIP3    H227267   6.490   3.894  11.633 -2.1477  0.2516 -1.4598
 1926TIP3   OH227268   1.845   4.128  11.465  0.1396  0.0770  0.4563
 1926TIP3    H127269   1.885   4.077  11.395  1.9858 -0.6489  1.9587
 1926TIP3    H227270   1.895   4.209  11.467 -0.7116  0.6271  0.1773
 1927TIP3   OH227271   4.486   3.605  16.266  0.3198 -0.1182  0.4040
 1927TIP3    H127272   4.420   3.602  16.197  0.5465 -0.4524  0.1970
 1927TIP3    H227273   4.529   3.520  16.261  2.0108  0.7443 -0.7042
 1928TIP3   OH227274   3.630   0.554  16.695  0.2834  0.0166 -0.0828
 1928TIP3    H127275   3.691   0.598  16.755 -1.4874  1.0655  1.0418
 1928TIP3    H227276   3.544   0.565  16.736 -0.7118 -1.2280 -1.7124
 1929TIP3   OH227277   2.823   3.127   0.351  0.2424  0.2562 -0.3188
 1929TIP3    H127278   2.906   3.125   0.304  0.2343  1.3340 -0.4029
 1929TIP3    H227279   2.804   3.220   0.363 -0.3410  0.0186  0.7825
 1930TIP3   OH227280   6.237   2.324   2.787  0.1265  0.1716 -0.3711
 1930TIP3    H127281   6.267   2.403   2.831  1.1349  0.5777 -1.7275
 1930TIP3    H227282   6.311   2.264   2.790 -1.0938 -1.3948  1.9875
 1931TIP3   OH227283   2.951   1.249  14.786  0.1940 -0.4204 -0.2180
 1931TIP3    H127284   2.884   1.246  14.718  0.6035 -0.3150 -0.6365
 1931TIP3    H227285   2.958   1.342  14.809 -1.7933 -0.7190  1.8701
 1932TIP3   OH227286   3.823   4.669  12.460  0.1313  0.4339  0.3686
 1932TIP3    H127287   3.741   4.620  12.472 -0.5258  1.2375 -0.7130
 1932TIP3    H227288   3.868   4.624  12.388  0.4551  0.2517  0.6781
 1933TIP3   OH227289   4.155   1.904   6.422 -0.6402  0.9923 -0.2002
 1933TIP3    H127290   4.179   1.811   6.427 -2.1921  0.4863 -1.1894
 1933TIP3    H227291   4.164   1.926   6.329  0.1922  1.9801  0.1050
 1934TIP3   OH227292   1.701   6.848   1.285  0.3545 -0.4642  0.1557
 1934TIP3    H127293   1.716   6.942   1.290 -0.3902 -0.3125 -0.3246
 1934TIP3    H227294   1.701   6.819   1.376 -1.5036  0.3553  0.4647
 1935TIP3   OH227295   3.531   5.143  13.789 -0.0751 -0.1569  0.6720
 1935TIP3    H127296   3.477   5.207  13.837 -4.0118 -1.3388 -1.6988
 1935TIP3    H227297   3.479   5.063  13.790  2.9205 -2.2489  0.2813
 1936TIP3   OH227298   6.697   0.142   4.241 -0.1038  0.1240 -0.3707
 1936TIP3    H127299   6.648   0.214   4.203 -0.5739 -0.0444 -0.0963
 1936TIP3    H227300   6.789   0.162   4.222  0.0798  2.3898  2.2859
 1937TIP3   OH227301   2.061   0.086  12.531  0.0828 -0.0375  0.3268
 1937TIP3    H127302   2.029   0.127  12.451 -4.6301 -0.7758  1.5117
 1937TIP3    H227303   2.071  -0.006  12.509  0.8505  0.0767  0.1489
 1938TIP3   OH227304   3.422   1.016   0.376 -0.4266 -0.5609  0.2279
 1938TIP3    H127305   3.507   0.985   0.408 -0.0750  1.3323  1.2271
 1938TIP3    H227306   3.444   1.088   0.317 -1.3361 -0.1042  0.4385
 1939TIP3   OH227307   3.981   2.649   5.806 -0.8789  0.2034  0.3719
 1939TIP3    H127308   3.891   2.663   5.837 -0.6074  2.5114  0.2908
 1939TIP3    H227309   4.027   2.730   5.829  0.4711  0.2010 -2.0426
 1940TIP3   OH227310   2.713   1.991  11.999 -0.1745 -0.4042  0.6306
 1940TIP3    H127311   2.658   2.049  12.050 -0.0991  1.0095 -0.8344
 1940TIP3    H227312   2.663   1.909  11.993 -1.5740  0.4511  0.3177
 1941TIP3   OH227313   1.547   1.166  13.585  0.3221  0.0141  0.3160
 1941TIP3    H127314   1.456   1.141  13.602 -0.4774  0.9614 -2.1317
 1941TIP3    H227315   1.543   1.220  13.506  3.0736 -0.1557 -0.0461
 1942TIP3   OH227316   0.235   2.129   5.561 -0.3803  0.1107  0.0758
 1942TIP3    H127317   0.288   2.177   5.624 -0.6991  0.1033  0.3544
 1942TIP3    H227318   0.184   2.067   5.614  1.0206 -1.5185 -0.3958
 1943TIP3   OH227319   3.725   0.565  13.785 -0.1531 -0.3529 -0.4657
 1943TIP3    H127320   3.755   0.495  13.726 -1.4124 -1.4174  0.1142
 1943TIP3    H227321   3.630   0.556  13.786 -0.3491  1.4733 -0.4616
 1944TIP3   OH227322   5.803   6.481   4.251 -0.3041  0.3115 -0.2059
 1944TIP3    H127323   5.829   6.564   4.292 -2.3501  0.9977 -0.1778
 1944TIP3    H227324   5.885   6.445   4.216  1.2520  0.5011  2.9227
 1945TIP3   OH227325   0.906   0.636  13.457 -0.6278 -0.5449 -0.5003
 1945TIP3    H127326   0.912   0.725  13.492  0.2445 -1.4105  1.7284
 1945TIP3    H227327   0.968   0.635  13.384 -0.1180  0.4833 -0.1011
 1946TIP3   OH227328   2.237   2.688   2.977  0.3128  0.2377 -0.2732
 1946TIP3    H127329   2.236   2.783   2.992 -2.0317  0.2183  0.0632
 1946TIP3    H227330   2.184   2.652   3.049  0.2641 -1.2246 -1.0104
 1947TIP3   OH227331   3.757   6.634  11.277  0.6169  0.4317  0.0317
 1947TIP3    H127332   3.754   6.543  11.305 -1.5153  0.5363  0.3110
 1947TIP3    H227333   3.702   6.680  11.340  0.8261  1.7447 -0.7131
 1948TIP3   OH227334   6.003   0.590   3.384  0.6509 -0.3555  0.3435
 1948TIP3    H127335   5.978   0.498   3.383 -1.1710  0.1010  1.2333
 1948TIP3    H227336   5.926   0.636   3.416  1.2814  1.5717 -0.7710
 1949TIP3   OH227337   6.166   1.936   2.287  0.2894  0.8655  0.2980
 1949TIP3    H127338   6.147   1.848   2.318  0.5389  0.6657 -0.0971
 1949TIP3    H227339   6.081   1.981   2.289  0.3500  0.9532  1.5165
 1950TIP3   OH227340   5.760   2.336  14.505  0.4333 -0.4116  0.3169
 1950TIP3    H127341   5.850   2.315  14.480  0.6122 -0.5418  1.0288
 1950TIP3    H227342   5.716   2.355  14.423  1.0527 -0.5804 -0.0647
 1951TIP3   OH227343   6.561   0.511  16.185  0.1317 -0.6755  0.4471
 1951TIP3    H127344   6.571   0.521  16.090 -4.4131 -1.3150 -0.3246
 1951TIP3    H227345   6.583   0.419  16.201 -0.2555 -0.8922 -0.2187
 1952TIP3   OH227346   6.106   0.548   3.887  0.1461 -0.1565  0.1083
 1952TIP3    H127347   6.183   0.598   3.914  0.8095 -0.7886 -0.5661
 1952TIP3    H227348   6.114   0.465   3.935 -2.0699  1.0891  2.9097
 1953TIP3   OH227349   4.680   1.799  12.130 -0.2059  0.1370  0.2199
 1953TIP3    H127350   4.743   1.774  12.062 -0.8060 -0.5519 -0.1003
 1953TIP3    H227351   4.729   1.859  12.186  1.0234 -1.0547  0.4889
 1954TIP3   OH227352   1.786   0.571  16.096  0.2562  0.2684 -0.0471
 1954TIP3    H127353   1.753   0.482  16.104  2.1255 -0.3553  1.3419
 1954TIP3    H227354   1.752   0.617  16.173 -1.1557  0.9692 -1.0354
 1955TIP3   OH227355   0.485   4.894   0.197 -0.2461 -0.1494  0.0997
 1955TIP3    H127356   0.474   4.986   0.220  0.6116  0.3123 -1.1999
 1955TIP3    H227357   0.416   4.849   0.245 -0.1727  1.0512  1.4087
 1956TIP3   OH227358   2.327   4.989  16.297  0.0770  0.3264  0.5997
 1956TIP3    H127359   2.313   5.080  16.326  0.8477  0.5971  0.1379
 1956TIP3    H227360   2.410   4.991  16.250 -0.4350 -0.4042 -0.3667
 1957TIP3   OH227361   1.833   2.146   2.646  0.1146  0.1761  0.3124
 1957TIP3    H127362   1.789   2.153   2.730 -3.1649  0.6612 -1.2833
 1957TIP3    H227363   1.807   2.225   2.598  2.3529  0.2124 -1.0033
 1958TIP3   OH227364   5.492   3.105  12.656  0.4061  0.0989 -0.2658
 1958TIP3    H127365   5.542   3.173  12.701 -0.0139 -0.2675  0.7730
 1958TIP3    H227366   5.538   3.024  12.678 -1.6060 -0.4894  2.2383
 1959TIP3   OH227367   1.632   2.495  11.845 -0.0562  0.1878  0.4504
 1959TIP3    H127368   1.577   2.439  11.899 -0.0574  0.2024  0.4644
 1959TIP3    H227369   1.584   2.577  11.839  0.7666  0.8168  1.9205
 1960TIP3   OH227370   6.801   1.969   2.804  0.0036  0.1786 -0.0399
 1960TIP3    H127371   6.891   2.001   2.804 -0.1084  0.5046  0.3869
 1960TIP3    H227372   6.775   1.972   2.712  0.7566 -0.8849 -0.3133
 1961TIP3   OH227373   2.044   0.498   5.584 -0.4053 -0.0977  0.2116
 1961TIP3    H127374   2.062   0.409   5.552  2.4907  0.4278  0.1177
 1961TIP3    H227375   2.012   0.545   5.507  1.4586 -0.1905 -0.6491
 1962TIP3   OH227376   6.079   6.807  12.932  0.1559 -0.1247  0.1795
 1962TIP3    H127377   6.062   6.731  12.876  0.3398  0.0120 -0.0644
 1962TIP3    H227378   6.152   6.851  12.890  1.6866 -1.1438  1.6210
 1963TIP3   OH227379   1.725   2.642  14.448  0.2964  0.2458 -0.1238
 1963TIP3    H127380   1.819   2.626  14.454  0.0768 -1.0349  0.1376
 1963TIP3    H227381   1.718   2.725  14.402  1.5309 -0.7568 -2.2887
 1964TIP3   OH227382   2.011   4.726   6.066  0.2068  0.5823 -0.8776
 1964TIP3    H127383   2.043   4.803   6.113  1.1813 -0.7175  0.6650
 1964TIP3    H227384   1.922   4.751   6.038  0.1339  1.9148  0.4201
 1965TIP3   OH227385   5.284   1.498  11.883 -0.3697 -0.4547 -0.0374
 1965TIP3    H127386   5.369   1.531  11.854 -0.6228  0.9047  0.6675
 1965TIP3    H227387   5.243   1.464  11.803  0.6832 -0.8240 -0.4418
 1966TIP3   OH227388   1.468   0.697  11.410 -0.2012  0.6626 -0.6126
 1966TIP3    H127389   1.500   0.771  11.461 -0.6626  1.4388 -1.4429
 1966TIP3    H227390   1.520   0.622  11.442 -0.3112  1.1689  0.8099
 1967TIP3   OH227391   3.505   6.442   3.110  0.8043  0.0899  0.2666
 1967TIP3    H127392   3.413   6.436   3.136  1.2318 -1.9968  1.5139
 1967TIP3    H227393   3.501   6.459   3.016 -0.8532  0.4245  0.3554
 1968TIP3   OH227394   0.319   0.978  14.421  0.2258 -0.0554  0.0964
 1968TIP3    H127395   0.398   1.033  14.418  0.0750  0.2325  1.0158
 1968TIP3    H227396   0.248   1.038  14.398  0.4781 -0.8465 -3.1922
 1969TIP3   OH227397   2.138   2.479   0.956 -0.3297  0.1199  0.0754
 1969TIP3    H127398   2.094   2.534   1.022 -0.0520  0.7236 -0.2301
 1969TIP3    H227399   2.183   2.542   0.900  1.6913 -0.5107  0.8941
 1970TIP3   OH227400   1.944   2.897   1.635 -0.2813 -0.0760  0.4617
 1970TIP3    H127401   1.955   2.887   1.729  0.4585  2.3521  0.7143
 1970TIP3    H227402   1.879   2.831   1.611 -0.8008 -0.4730  2.7398
 1971TIP3   OH227403   3.067   1.382   1.028  0.2787 -0.2209 -0.0622
 1971TIP3    H127404   3.070   1.290   1.001  0.4660 -0.1440 -0.3130
 1971TIP3    H227405   3.082   1.379   1.123 -0.1518 -0.4773 -0.0012
 1972TIP3   OH227406   1.997   1.803   2.852  0.3357  0.5751 -0.1547
 1972TIP3    H127407   1.939   1.847   2.789 -0.4844  0.2864  0.3794
 1972TIP3    H227408   1.937   1.762   2.915  1.0944 -0.7757 -0.2791
 1973TIP3   OH227409   5.593   0.700  12.004 -0.0998 -0.1821  0.6003
 1973TIP3    H127410   5.623   0.619  12.046 -2.0378 -1.0783  0.3785
 1973TIP3    H227411   5.656   0.715  11.933  1.4632 -0.3328  1.9100
 1974TIP3   OH227412   1.593   2.454  14.598  0.3800  0.0258 -0.6725
 1974TIP3    H127413   1.659   2.501  14.546 -0.5774  1.3376 -0.7337
 1974TIP3    H227414   1.515   2.455  14.543 -0.0878 -0.3189 -0.0174
 1975TIP3   OH227415   3.972   5.463   2.236 -0.0256 -0.4539  0.4158
 1975TIP3    H127416   3.997   5.554   2.250 -1.1641 -0.0572 -0.0339
 1975TIP3    H227417   4.046   5.412   2.269  0.0569  0.5904  1.8981
 1976TIP3   OH227418   6.824   3.250  11.416 -0.5715  0.0658  0.0136
 1976TIP3    H127419   6.790   3.338  11.431  0.3056  0.1362  1.7775
 1976TIP3    H227420   6.903   3.263  11.364  0.6125  0.5524  1.8203
 1977TIP3   OH227421   1.413   2.135  12.038  0.0668  0.1457 -0.4883
 1977TIP3    H127422   1.440   2.187  11.963  1.1751  0.2217 -0.0481
 1977TIP3    H227423   1.403   2.046  12.004  0.7538  0.1429 -0.6945
 1978TIP3   OH227424   2.847   5.522  17.090  1.0910 -0.0563 -0.6037
 1978TIP3    H127425   2.779   5.576  17.131 -0.4663 -2.4157  0.1659
 1978TIP3    H227426   2.922   5.528  17.149  0.0895 -0.5929  0.7923
 1979TIP3   OH227427   6.142   3.578  13.045 -0.2333  0.4435  0.0770
 1979TIP3    H127428   6.213   3.638  13.024  1.0077 -1.6811 -2.3369
 1979TIP3    H227429   6.063   3.623  13.015  0.6205  1.0418 -1.3579
 1980TIP3   OH227430   1.479   4.479   4.087  0.3200  0.3635 -0.0071
 1980TIP3    H127431   1.517   4.560   4.051  0.9434  0.5924  1.1195
 1980TIP3    H227432   1.393   4.505   4.119 -0.5248  0.0127 -1.8767
 1981TIP3   OH227433   3.819   2.259  13.492 -0.2869  0.2492  0.0186
 1981TIP3    H127434   3.832   2.222  13.579  1.2408 -1.8094 -1.0068
 1981TIP3    H227435   3.804   2.183  13.435  0.0948  1.4310 -1.7411
 1982TIP3   OH227436   1.632   4.764  11.797  0.5072  0.4026  0.0956
 1982TIP3    H127437   1.559   4.754  11.736 -0.2561 -1.6175  1.2161
 1982TIP3    H227438   1.708   4.779  11.741 -0.5962  1.6489 -1.1518
 1983TIP3   OH227439   3.206   3.030  16.131 -0.2664 -0.1459  0.3274
 1983TIP3    H127440   3.293   2.990  16.140 -0.4686 -0.4134  1.1354
 1983TIP3    H227441   3.145   2.956  16.140 -0.5787 -0.0180 -0.6013
 1984TIP3   OH227442   4.242   4.087  15.792  0.4468 -0.2258 -0.1186
 1984TIP3    H127443   4.244   4.170  15.744 -0.4465 -1.7531 -3.0833
 1984TIP3    H227444   4.315   4.037  15.756 -0.1620 -1.3901  0.1970
 1985TIP3   OH227445   3.137   3.387  14.036 -0.0633 -0.0109 -0.6940
 1985TIP3    H127446   3.079   3.373  13.961 -1.2838 -1.6589  0.4742
 1985TIP3    H227447   3.086   3.357  14.111  2.5267 -2.2028  0.3426
 1986TIP3   OH227448   0.875   2.524  13.266  0.2318  0.4546 -0.0208
 1986TIP3    H127449   0.923   2.444  13.284  1.2286  0.7389 -1.2628
 1986TIP3    H227450   0.929   2.571  13.202 -0.2570  2.1834  0.7651
 1987TIP3   OH227451   2.242   6.046  11.726  0.2433  0.4302 -0.1819
 1987TIP3    H127452   2.218   6.139  11.731  0.9308  0.5764  0.6594
 1987TIP3    H227453   2.175   6.007  11.671 -0.6677  1.2309  0.3310
 1988TIP3   OH227454   6.070   0.010   1.766  0.0736 -0.6539 -0.2094
 1988TIP3    H127455   6.107  -0.073   1.735  0.5244 -0.3701 -0.4453
 1988TIP3    H227456   5.979  -0.012   1.790  1.0515 -1.9491  2.8181
 1989TIP3   OH227457   2.940   3.303  13.861  0.0641  0.0919  0.0877
 1989TIP3    H127458   2.874   3.354  13.907 -0.3384  0.4969 -0.9227
 1989TIP3    H227459   2.895   3.223  13.834  0.9322 -1.3495  2.5183
 1990TIP3   OH227460   0.750   4.635  14.107 -0.0647  1.0527  0.4874
 1990TIP3    H127461   0.656   4.622  14.091  0.2906 -0.5893 -0.4886
 1990TIP3    H227462   0.764   4.603  14.196 -0.2025 -0.0597  0.1236
 1991TIP3   OH227463   3.816   5.132   2.717  0.1197  0.3284  0.2135
 1991TIP3    H127464   3.846   5.193   2.650  0.0913 -1.2002 -1.2719
 1991TIP3    H227465   3.720   5.130   2.707  0.0364  0.7385  0.8938
 1992TIP3   OH227466   2.746   2.179  12.584 -0.3645 -0.4154 -0.4968
 1992TIP3    H127467   2.789   2.094  12.578  0.3290 -0.2154  1.1474
 1992TIP3    H227468   2.683   2.179  12.512  1.8784 -1.0029 -2.6116
 1993TIP3   OH227469   2.459   3.710  13.738 -0.2574  0.1901  0.6118
 1993TIP3    H127470   2.541   3.759  13.745 -0.1697  0.4717 -1.6104
 1993TIP3    H227471   2.404   3.743  13.809  1.3685  0.3117  1.8631
 1994TIP3   OH227472   0.062   1.951  10.304 -0.1877  0.2647  0.3447
 1994TIP3    H127473   0.021   2.037  10.313  0.5928  1.0605 -2.6486
 1994TIP3    H227474  -0.009   1.892  10.281 -0.2249  0.9544 -1.4515
 1995TIP3   OH227475   0.795   5.403   5.985 -0.0883 -0.9522 -0.2416
 1995TIP3    H127476   0.720   5.428   6.039 -2.1992  0.6212 -3.6140
 1995TIP3    H227477   0.849   5.482   5.979 -0.1026 -0.9773 -0.7556
 1996TIP3   OH227478   1.232   6.732  15.736  0.3085  0.0773 -0.5169
 1996TIP3    H127479   1.208   6.646  15.700 -0.7344  0.4397 -0.7203
 1996TIP3    H227480   1.194   6.795  15.674  1.0516  0.6884 -0.3608
 1997TIP3   OH227481   3.697   1.017  11.792  0.5039 -0.2478 -0.8232
 1997TIP3    H127482   3.742   0.934  11.781  0.1861 -0.5295 -0.0984
 1997TIP3    H227483   3.731   1.073  11.723  2.6665 -0.1463  0.2589
 1998TIP3   OH227484   0.295   1.087  11.844  0.3848  0.3183 -0.5473
 1998TIP3    H127485   0.360   1.022  11.817 -0.2365 -0.0090 -1.3063
 1998TIP3    H227486   0.316   1.165  11.792  0.9505  0.6357  0.1488
 1999TIP3   OH227487   4.976   2.914   2.851  0.8388  0.3511  0.1694
 1999TIP3    H127488   4.951   2.906   2.759 -1.2461 -1.1139  0.7796
 1999TIP3    H227489   5.021   2.832   2.870 -0.3908 -0.1872  0.8748
 2000TIP3   OH227490   4.588   0.642   0.464 -0.4519  0.6103 -0.1288
 2000TIP3    H127491   4.517   0.594   0.424 -1.0965  1.7300 -0.3832
 2000TIP3    H227492   4.565   0.734   0.452  0.3091  0.9947  1.0698
 2001TIP3   OH227493   2.804   6.158  13.254  0.9985 -0.0999  0.1850
 2001TIP3    H127494   2.770   6.233  13.206  0.9832 -0.8153 -0.9364
 2001TIP3    H227495   2.741   6.145  13.325 -0.4695 -0.6682 -1.1586
 2002TIP3   OH227496   1.583   4.089  11.481 -0.0550  0.1274  0.6703
 2002TIP3    H127497   1.678   4.080  11.483  0.2191  1.6084 -1.5929
 2002TIP3    H227498   1.550   4.006  11.516  2.1109 -1.8598 -1.6250
 2003TIP3   OH227499   2.230   1.308   5.952 -0.1911  0.3649  0.1362
 2003TIP3    H127500   2.246   1.259   6.033  1.4720 -0.5684 -0.7016
 2003TIP3    H227501   2.172   1.379   5.978 -0.9092 -0.7778  1.8428
 2004TIP3   OH227502   1.597   3.342  10.254 -0.8102 -0.0882  0.6362
 2004TIP3    H127503   1.560   3.257  10.231 -0.8664 -0.0506  0.5872
 2004TIP3    H227504   1.625   3.332  10.345 -0.7605 -0.1779  0.6109
 2005TIP3   OH227505   3.330   5.255  13.006 -0.4493 -0.6460 -0.6785
 2005TIP3    H127506   3.350   5.204  12.928  1.7586  1.4686 -1.6445
 2005TIP3    H227507   3.383   5.214  13.075  1.2285  0.1547 -1.4209
 2006TIP3   OH227508   1.777   5.997   1.870 -0.1706 -0.0500  0.3381
 2006TIP3    H127509   1.838   6.002   1.943  0.3192 -0.1632 -0.0553
 2006TIP3    H227510   1.715   5.929   1.895  0.9901 -1.3181 -0.0609
 2007TIP3   OH227511   4.893   3.576   4.278 -0.1561  0.3479 -0.1600
 2007TIP3    H127512   4.944   3.640   4.228  2.4675 -1.9137 -0.6274
 2007TIP3    H227513   4.836   3.535   4.213  1.2163 -0.6339 -0.7982
 2008TIP3   OH227514   6.532   6.243   1.730  0.1187  0.1977 -0.1323
 2008TIP3    H127515   6.592   6.188   1.679 -0.5773  0.2869 -1.0597
 2008TIP3    H227516   6.535   6.328   1.687 -1.1278  0.0369 -0.5635
 2009TIP3   OH227517   6.019   0.224   5.122 -0.4869  0.1855  0.0265
 2009TIP3    H127518   6.088   0.273   5.166 -1.2654  2.0925 -0.7602
 2009TIP3    H227519   5.986   0.284   5.055 -2.6288 -0.8031  0.1103
 2010TIP3   OH227520   1.471   2.581  12.302  0.4610 -0.0486 -0.6653
 2010TIP3    H127521   1.518   2.499  12.318  0.1415  0.0226  0.8103
 2010TIP3    H227522   1.512   2.644  12.360  1.5887  1.2500 -2.7361
 2011TIP3   OH227523   5.342   3.283   1.854  0.1293 -0.1863  0.3528
 2011TIP3    H127524   5.303   3.344   1.792  0.0618 -1.5077 -0.9928
 2011TIP3    H227525   5.416   3.245   1.805  0.9178 -0.2931  1.5842
 2012TIP3   OH227526   2.340   3.640   3.257 -0.1415 -0.1953  0.6081
 2012TIP3    H127527   2.317   3.698   3.329  1.3094  0.5917  0.4678
 2012TIP3    H227528   2.410   3.585   3.291  0.0655 -0.2979  0.0360
 2013TIP3   OH227529   3.399   3.744  15.100  0.4527 -0.2056 -0.0162
 2013TIP3    H127530   3.424   3.836  15.097  0.3578 -0.1547  0.6302
 2013TIP3    H227531   3.413   3.718  15.191 -1.4299 -0.2898  0.2953
 2014TIP3   OH227532   1.320   0.640  14.646 -0.0977  0.1518  0.7195
 2014TIP3    H127533   1.319   0.635  14.742 -1.2257 -0.3273  0.6971
 2014TIP3    H227534   1.350   0.729  14.627  3.5372 -0.7249  1.4304
 2015TIP3   OH227535   6.308   4.285  12.968 -0.3052 -0.1284  0.2658
 2015TIP3    H127536   6.228   4.232  12.962 -0.6198  0.3816 -0.0921
 2015TIP3    H227537   6.379   4.221  12.962 -0.6462 -0.3982 -2.1224
 2016TIP3   OH227538   3.053   3.345   1.155 -0.0405  0.6139  0.1906
 2016TIP3    H127539   3.070   3.362   1.248 -0.7566  1.0145  0.2570
 2016TIP3    H227540   3.076   3.427   1.111  1.3836  0.0676 -0.1445
 2017TIP3   OH227541   5.813   1.562   4.455 -1.0851 -0.0258  0.0527
 2017TIP3    H127542   5.780   1.651   4.444 -2.0118 -0.0957  1.8278
 2017TIP3    H227543   5.742   1.516   4.500  0.2491 -1.0275  1.2297
 2018TIP3   OH227544   4.561   1.602  16.990  0.0765  0.7687 -0.2683
 2018TIP3    H127545   4.622   1.602  16.916  0.2036 -1.4320 -0.2297
 2018TIP3    H227546   4.607   1.648  17.060  0.9183  0.8021 -0.8288
 2019TIP3   OH227547   3.310   1.077   3.025  0.1486 -0.3091 -0.0775
 2019TIP3    H127548   3.339   1.156   3.069  1.9697 -1.5184  1.0230
 2019TIP3    H227549   3.249   1.036   3.086 -1.3491  0.5319 -0.9440
 2020TIP3   OH227550   2.431   6.701  10.761  0.0403 -0.1564  0.5196
 2020TIP3    H127551   2.525   6.710  10.745  0.0814  0.2922  0.9998
 2020TIP3    H227552   2.416   6.607  10.755  0.5204 -0.2354  0.4481
 2021TIP3   OH227553   2.003   0.542  15.848 -0.0780  0.2333 -0.2996
 2021TIP3    H127554   2.076   0.482  15.865  1.9310  2.5373 -0.2787
 2021TIP3    H227555   1.945   0.532  15.924  0.8627 -0.7405  0.3112
 2022TIP3   OH227556   6.743   1.370   3.274  0.0122 -1.0428 -0.8927
 2022TIP3    H127557   6.695   1.338   3.197 -1.2257 -1.9631  0.2258
 2022TIP3    H227558   6.761   1.462   3.254 -2.0937 -0.6967 -1.4436
 2023TIP3   OH227559   0.294   3.308  12.406  0.2694 -0.5847  0.3233
 2023TIP3    H127560   0.233   3.368  12.365  0.5889 -0.5172 -0.0621
 2023TIP3    H227561   0.364   3.365  12.440  1.6445 -0.8586 -1.8714
 2024TIP3   OH227562   6.003   5.012   5.473 -0.0198 -0.8563  0.2296
 2024TIP3    H127563   5.994   4.974   5.561 -1.8171  0.7256  0.7912
 2024TIP3    H227564   6.073   4.961   5.433 -0.2955 -2.7612  1.9687
 2025TIP3   OH227565   5.010   6.505  15.529 -0.5255  0.0801 -0.5586
 2025TIP3    H127566   5.086   6.455  15.558 -0.0040  0.0846 -1.8594
 2025TIP3    H227567   4.958   6.518  15.609  0.4702 -0.5391  0.2146
 2026TIP3   OH227568   4.403   3.354  11.823 -0.2976  0.3765 -0.2972
 2026TIP3    H127569   4.498   3.363  11.825 -0.3464  1.1571 -1.0253
 2026TIP3    H227570   4.388   3.264  11.794  0.2331  0.6754 -1.5688
 2027TIP3   OH227571   2.550   1.945  13.079  0.0206 -0.6006 -0.2933
 2027TIP3    H127572   2.519   1.854  13.073  1.9580 -1.4087  0.8062
 2027TIP3    H227573   2.619   1.951  13.012  0.5195 -0.2276  0.2461
 2028TIP3   OH227574   5.160   4.835   5.523  0.1945 -0.0325  0.0794
 2028TIP3    H127575   5.236   4.870   5.477 -0.8347  0.2617 -1.4672
 2028TIP3    H227576   5.094   4.904   5.518 -0.0709 -0.1021  1.7840
 2029TIP3   OH227577   4.919   4.315  12.656 -0.1737 -0.1641  0.1993
 2029TIP3    H127578   5.008   4.281  12.666  0.0021  0.4246  0.7266
 2029TIP3    H227579   4.875   4.291  12.738  0.2534  1.7173  1.0350
 2030TIP3   OH227580   5.978   1.965  14.435 -0.0796  0.1284 -0.7927
 2030TIP3    H127581   6.004   2.055  14.415 -2.0607  0.5995 -1.5021
 2030TIP3    H227582   5.977   1.921  14.350 -0.4341 -0.1760 -0.6344
 2031TIP3   OH227583   1.200   2.462   1.325 -0.2011 -0.1405 -0.9165
 2031TIP3    H127584   1.249   2.529   1.278  0.5227 -2.3740 -3.6173
 2031TIP3    H227585   1.112   2.465   1.287 -0.7763  0.5835  0.4151
 2032TIP3   OH227586   0.786   3.253   2.544  0.0695  0.2144 -0.3493
 2032TIP3    H127587   0.764   3.238   2.452 -0.0793  0.4514 -0.3514
 2032TIP3    H227588   0.881   3.243   2.548  0.1393  0.7558 -0.6338
 2033TIP3   OH227589   4.781   6.695   1.507 -0.0093 -0.0404  0.3145
 2033TIP3    H127590   4.773   6.763   1.440  0.3071  0.9066  1.2102
 2033TIP3    H227591   4.704   6.706   1.562 -1.2118 -1.9879 -0.8977
 2034TIP3   OH227592   1.128   5.834   1.709  0.6430  0.5363 -0.4399
 2034TIP3    H127593   1.078   5.754   1.724  1.5637  0.1631  0.8563
 2034TIP3    H227594   1.167   5.854   1.795 -0.2776  2.8740 -0.5179
 2035TIP3   OH227595   3.223   0.876  15.942  0.0755 -0.1315 -0.2980
 2035TIP3    H127596   3.222   0.916  15.855 -0.2406 -0.5446 -0.4869
 2035TIP3    H227597   3.238   0.949  16.002 -0.1578  0.2184 -0.6612
 2036TIP3   OH227598   2.107   1.973   0.921 -0.1399  0.0635  0.2408
 2036TIP3    H127599   2.157   2.039   0.874  0.6150  1.6363  3.0234
 2036TIP3    H227600   2.173   1.909   0.949 -0.3273 -0.0160  0.4991
 2037TIP3   OH227601   4.341   1.102  14.402  0.2000  0.3234  0.0621
 2037TIP3    H127602   4.275   1.034  14.408  1.1688 -0.6141  0.3567
 2037TIP3    H227603   4.374   1.112  14.492  0.6780  0.5524 -0.1301
 2038TIP3   OH227604   0.751   0.306  16.293  0.5210 -1.0520  0.0087
 2038TIP3    H127605   0.680   0.268  16.241 -1.5371  0.4949  1.5346
 2038TIP3    H227606   0.730   0.283  16.383  2.4716 -1.2599  0.4675
 2039TIP3   OH227607   1.733   0.490  13.315  0.2012  0.3985  0.5473
 2039TIP3    H127608   1.735   0.575  13.360  1.3557 -0.8273  2.9753
 2039TIP3    H227609   1.825   0.466  13.304 -0.0849 -1.3685  1.6181
 2040TIP3   OH227610   3.158   0.646  16.249 -0.1671 -0.0028  0.2640
 2040TIP3    H127611   3.074   0.671  16.288 -1.4357 -1.8431 -1.0479
 2040TIP3    H227612   3.171   0.555  16.277  0.8681 -0.0803 -0.4090
 2041TIP3   OH227613   5.382   1.402  17.061 -0.3983  0.6130  0.3131
 2041TIP3    H127614   5.331   1.447  16.994 -1.9299 -0.0943  0.9314
 2041TIP3    H227615   5.447   1.351  17.012 -1.6529 -0.1010 -0.6816
 2042TIP3   OH227616   5.951   1.632   3.801 -0.4924  0.3049  0.3179
 2042TIP3    H127617   5.865   1.638   3.759 -0.4714 -1.5997 -0.1064
 2042TIP3    H227618   6.013   1.651   3.731 -0.5346 -0.2925  0.1082
 2043TIP3   OH227619   2.422   0.265   0.129 -0.5566 -0.1641  0.1515
 2043TIP3    H127620   2.383   0.246   0.215 -1.8355 -0.7942 -0.5438
 2043TIP3    H227621   2.409   0.184   0.079 -1.9300  0.9409 -1.3822
 2044TIP3   OH227622   2.882   0.031  13.057 -0.1702  0.4377  0.5401
 2044TIP3    H127623   2.907   0.063  13.144  0.6405  1.7512 -0.1467
 2044TIP3    H227624   2.787   0.026  13.060 -0.2747  2.0951  0.9960
 2045TIP3   OH227625   4.606   4.928   1.864  0.2744 -0.2290 -0.0265
 2045TIP3    H127626   4.532   4.881   1.902  1.3859 -2.0582 -0.0159
 2045TIP3    H227627   4.572   5.015   1.844 -0.6155  0.6403  4.3555
 2046TIP3   OH227628   0.742   4.014  15.810 -0.3179 -0.3755  0.4379
 2046TIP3    H127629   0.663   3.973  15.846 -1.3313  0.8876 -0.2336
 2046TIP3    H227630   0.722   4.027  15.717  0.3942  0.6057  0.4029
 2047TIP3   OH227631   4.810   0.874   6.559 -0.3082 -0.2569 -0.5068
 2047TIP3    H127632   4.787   0.903   6.471 -0.0914  0.8585 -0.2098
 2047TIP3    H227633   4.869   0.942   6.592  0.3301 -1.1198  0.1714
 2048TIP3   OH227634   5.484   5.509  16.799 -0.2492  0.1254 -0.0798
 2048TIP3    H127635   5.461   5.574  16.865  1.3375  0.3675  0.2738
 2048TIP3    H227636   5.401   5.471  16.772 -1.2934  2.6344 -0.6564
 2049TIP3   OH227637   5.761   3.138  14.112  0.4089  0.1046 -0.0471
 2049TIP3    H127638   5.703   3.146  14.188  0.3401 -0.5089 -0.0361
 2049TIP3    H227639   5.837   3.192  14.134  2.1609 -2.9555  2.1081
 2050TIP3   OH227640   4.467   3.419   2.125  0.2551 -0.0448 -0.2231
 2050TIP3    H127641   4.380   3.380   2.120  0.7382 -1.2492  0.3427
 2050TIP3    H227642   4.477   3.465   2.041 -1.3433  1.0715  0.1584
 2051TIP3   OH227643   3.469   3.960  12.765  0.0756  0.5604  0.1706
 2051TIP3    H127644   3.447   3.992  12.678 -1.7694 -0.4988  0.2026
 2051TIP3    H227645   3.394   3.986  12.819  0.3859 -0.3305  1.0503
 2052TIP3   OH227646   5.544   5.391   0.433  0.2352 -0.0661 -0.3567
 2052TIP3    H127647   5.534   5.485   0.448 -0.4990 -0.0768 -0.7342
 2052TIP3    H227648   5.476   5.351   0.488  0.0738 -0.3288 -0.7426
 2053TIP3   OH227649   0.000   6.689  14.268 -0.1169 -0.0355  0.2114
 2053TIP3    H127650  -0.090   6.658  14.269  0.2811 -1.2477 -0.1201
 2053TIP3    H227651   0.051   6.614  14.237  1.1380  0.2440  1.5005
 2054TIP3   OH227652   4.140   1.083  15.759  0.2888 -0.3350 -0.4732
 2054TIP3    H127653   4.203   1.150  15.732  0.8572 -0.5846  0.2272
 2054TIP3    H227654   4.181   1.000  15.734  0.6865 -0.5552  0.8785
 2055TIP3   OH227655   3.752   1.333   2.086 -0.2320  0.1802 -0.7286
 2055TIP3    H127656   3.710   1.294   2.163 -1.6944  1.4875 -0.8135
 2055TIP3    H227657   3.716   1.285   2.012  1.3999 -1.2784 -0.6323
 2056TIP3   OH227658   0.658   0.603   0.644  0.0690 -0.0783 -0.3690
 2056TIP3    H127659   0.569   0.588   0.611 -0.0784  0.2614 -0.1417
 2056TIP3    H227660   0.649   0.596   0.739  0.2197  0.2794 -0.3257
 2057TIP3   OH227661   0.031   5.372   5.299  0.4571  0.2747 -0.1996
 2057TIP3    H127662   0.058   5.334   5.383  0.6178  0.4127 -0.1899
 2057TIP3    H227663  -0.061   5.396   5.313 -0.1742 -1.6278 -0.7205
 2058TIP3   OH227664   2.595   0.521  15.623  0.0689  0.0325 -0.3897
 2058TIP3    H127665   2.661   0.540  15.556 -0.4848  2.5017 -0.3186
 2058TIP3    H227666   2.624   0.569  15.700 -1.3277  0.4153 -0.0703
 2059TIP3   OH227667   2.942   6.366   4.733  0.3570 -0.2650 -0.2861
 2059TIP3    H127668   2.916   6.367   4.641  0.2521  0.1112 -0.2560
 2059TIP3    H227669   2.900   6.444   4.771 -0.0588 -0.7278  0.2121
 2060TIP3   OH227670   3.603   0.805  12.183 -0.3343  0.3956  0.4032
 2060TIP3    H127671   3.673   0.871  12.181  2.2375 -2.0628  1.6433
 2060TIP3    H227672   3.523   0.855  12.197  1.2496  3.3395 -0.2683
 2061TIP3   OH227673   5.622   5.847  15.132 -0.5001 -0.2051 -0.6004
 2061TIP3    H127674   5.630   5.939  15.108 -1.3220 -0.5306 -2.2705
 2061TIP3    H227675   5.700   5.828  15.184 -0.8116  1.6640  0.6459
 2062TIP3   OH227676   0.806   0.969   4.122  0.1444 -0.4224  0.2945
 2062TIP3    H127677   0.889   1.000   4.085  1.7480 -0.3956  3.5381
 2062TIP3    H227678   0.759   1.049   4.146  1.2106 -0.3562  2.3924
 2063TIP3   OH227679   1.629   1.726  13.981  0.4514 -0.3570 -0.3594
 2063TIP3    H127680   1.554   1.689  14.027 -0.3510  1.0626 -0.4620
 2063TIP3    H227681   1.655   1.659  13.919 -1.6797 -0.3426 -1.3330
 2064TIP3   OH227682   2.635   0.531  10.972  0.1598 -0.2198 -0.0087
 2064TIP3    H127683   2.660   0.486  10.892 -0.8213  0.4075 -0.6904
 2064TIP3    H227684   2.566   0.476  11.009 -0.0636 -0.0052 -0.1058
 2065TIP3   OH227685   4.250   5.061   0.319  0.3064  0.5214 -0.3675
 2065TIP3    H127686   4.341   5.088   0.328  0.0772  0.8274  1.2808
 2065TIP3    H227687   4.249   5.008   0.239  1.5395  2.0607 -1.4647
 2066TIP3   OH227688   0.755   1.609   0.106 -0.4715  0.4524 -0.2119
 2066TIP3    H127689   0.824   1.552   0.072 -0.2101  1.2722 -1.0905
 2066TIP3    H227690   0.681   1.595   0.045 -0.0593  1.7999 -1.0502
 2067TIP3   OH227691   4.998   1.846  14.179  0.0544  0.6995 -0.4918
 2067TIP3    H127692   4.993   1.807  14.266 -0.0526  0.1533 -0.7387
 2067TIP3    H227693   4.955   1.931  14.188 -0.8960  0.2082 -0.2499
 2068TIP3   OH227694   4.274   5.945   3.451 -0.4631 -0.5397  0.1213
 2068TIP3    H127695   4.185   5.945   3.417 -0.2500 -0.2024 -0.4375
 2068TIP3    H227696   4.323   5.888   3.392 -0.5632 -1.7043  1.1244
 2069TIP3   OH227697   2.380   5.530  11.778 -0.0831 -0.3918 -0.4357
 2069TIP3    H127698   2.371   5.611  11.728 -0.8799  0.1731  0.6043
 2069TIP3    H227699   2.475   5.519  11.787  0.0443  0.1912 -0.9457
 2070TIP3   OH227700   0.604   4.413   1.547 -0.5173 -0.2436 -0.9510
 2070TIP3    H127701   0.540   4.462   1.495 -1.5257  0.5426  0.9368
 2070TIP3    H227702   0.616   4.465   1.627  1.4496 -1.0775 -0.6335
 2071TIP3   OH227703   5.742   4.034   3.945  0.2592 -0.1432  0.2196
 2071TIP3    H127704   5.695   3.963   3.989  1.5421 -1.4571 -0.4094
 2071TIP3    H227705   5.830   3.998   3.930  0.4547  0.9598 -1.6491
 2072TIP3   OH227706   2.712   5.955  14.807 -0.2633 -0.0657 -0.1719
 2072TIP3    H127707   2.758   5.983  14.727 -0.8679 -1.1883 -0.9452
 2072TIP3    H227708   2.633   6.009  14.808 -1.9307 -2.2441 -2.2074
 2073TIP3   OH227709   2.225   1.314  11.606  0.3833 -0.1232  0.6601
 2073TIP3    H127710   2.271   1.380  11.657  2.1467 -2.4560  2.2859
 2073TIP3    H227711   2.293   1.275  11.550 -0.2044 -1.6990  0.9997
 2074TIP3   OH227712   6.782   1.911   4.951 -0.1946  0.0274  0.7292
 2074TIP3    H127713   6.871   1.881   4.937 -0.2645  0.3644 -0.6050
 2074TIP3    H227714   6.753   1.867   5.031  0.6134 -1.3304  0.2962
 2075TIP3   OH227715   6.510   6.007  15.576 -0.4956  0.0918  0.1936
 2075TIP3    H127716   6.534   6.069  15.508 -1.3346  0.7478  0.4771
 2075TIP3    H227717   6.512   6.058  15.657  1.0272 -0.7978  0.7756
 2076TIP3   OH227718   6.171   6.689   5.347  0.1157 -0.1730  0.2181
 2076TIP3    H127719   6.215   6.759   5.395 -1.0308  0.1428  0.8802
 2076TIP3    H227720   6.241   6.635   5.311  1.0175  0.5476  0.8577
 2077TIP3   OH227721   1.101   2.498  11.132 -0.8910  0.0090 -0.1440
 2077TIP3    H127722   1.151   2.568  11.174 -2.2249  0.6943  0.3321
 2077TIP3    H227723   1.165   2.427  11.122  0.5865  1.3854 -0.9638
 2078TIP3   OH227724   2.299   5.532   2.338 -0.5084  0.3802  0.0272
 2078TIP3    H127725   2.326   5.518   2.248  0.5150  0.7986  0.2553
 2078TIP3    H227726   2.210   5.567   2.332 -0.9229 -0.7652 -0.7536
 2079TIP3   OH227727   0.237   5.608   0.881 -0.3084  0.2199  0.2820
 2079TIP3    H127728   0.228   5.565   0.796  0.0397 -0.7173  0.7086
 2079TIP3    H227729   0.200   5.547   0.944  0.5614  0.3486  0.9478
 2080TIP3   OH227730   1.107   3.369  12.729  0.2808  0.5825  0.0711
 2080TIP3    H127731   1.085   3.407  12.644  0.8150  2.2024  0.6121
 2080TIP3    H227732   1.023   3.342  12.766 -0.0044  0.2999 -0.7629
 2081TIP3   OH227733   6.047   3.412  13.708  0.0464 -0.4170 -0.0319
 2081TIP3    H127734   6.121   3.369  13.665 -0.2331 -0.6588 -0.2683
 2081TIP3    H227735   5.986   3.433  13.638 -0.7089 -1.4021  0.3055
 2082TIP3   OH227736   3.875   2.853  13.437 -0.0135 -0.0948 -0.2546
 2082TIP3    H127737   3.873   2.790  13.508 -0.7944 -0.3595 -0.5035
 2082TIP3    H227738   3.845   2.935  13.476  0.7237  0.0582 -0.0002
 2083TIP3   OH227739   4.677   0.209  12.379 -0.6902 -0.2770  0.1218
 2083TIP3    H127740   4.667   0.303  12.365  1.5367  0.3971  2.2855
 2083TIP3    H227741   4.699   0.201  12.472 -1.0760 -2.9795  0.0485
 2084TIP3   OH227742   2.415   5.564   2.008 -0.5563  0.1525 -0.0244
 2084TIP3    H127743   2.326   5.533   1.990 -0.4443 -0.5066  0.4956
 2084TIP3    H227744   2.407   5.659   2.014 -1.3794  0.0443  0.8068
 2085TIP3   OH227745   6.204   0.036  10.632 -0.2934 -0.7815 -0.4393
 2085TIP3    H127746   6.254   0.114  10.607  0.5095 -0.9843  0.4599
 2085TIP3    H227747   6.212  -0.022  10.557 -2.5028  0.7041 -1.9279
 2086TIP3   OH227748   5.561   5.926  16.384 -0.2812 -0.5645  0.2565
 2086TIP3    H127749   5.588   5.868  16.455  1.8333 -1.3931 -1.1221
 2086TIP3    H227750   5.569   5.873  16.305 -0.6095  0.9271 -0.8284
 2087TIP3   OH227751   2.276   6.040   2.493 -0.3120  0.0103 -0.0825
 2087TIP3    H127752   2.287   5.945   2.505 -3.7279 -0.7893 -2.0522
 2087TIP3    H227753   2.362   6.070   2.465  1.1485 -2.2700  1.5589
 2088TIP3   OH227754   5.062   6.459   0.753  0.1373  0.1685  0.7544
 2088TIP3    H127755   5.091   6.421   0.669 -0.0372  2.4424 -0.4020
 2088TIP3    H227756   5.140   6.501   0.789  0.0718 -0.3068  1.4715
 2089TIP3   OH227757   0.248   2.991  11.765 -0.4632  0.1924  0.1284
 2089TIP3    H127758   0.237   2.896  11.765 -2.0778  0.3103 -2.0685
 2089TIP3    H227759   0.341   3.004  11.783  0.4611 -1.9682 -2.3989
 2090TIP3   OH227760   0.796   6.468  15.969  0.6968  0.5365 -0.2957
 2090TIP3    H127761   0.882   6.510  15.966  1.1346 -0.3594 -0.6400
 2090TIP3    H227762   0.741   6.531  16.015  1.5153  1.1549 -0.1237
 2091TIP3   OH227763   4.285   1.859  16.369 -0.2737  0.0587  0.0845
 2091TIP3    H127764   4.298   1.867  16.275  1.3125  1.7931  0.3995
 2091TIP3    H227765   4.194   1.831  16.378 -1.4720  2.8185 -1.9271
 2092TIP3   OH227766   1.211   0.558  13.918 -0.3546  0.3738  0.5536
 2092TIP3    H127767   1.263   0.498  13.972 -1.5540  0.5933  1.9898
 2092TIP3    H227768   1.233   0.645  13.950  0.9791  0.7245 -1.1772
 2093TIP3   OH227769   4.208   5.002   1.986  0.4599 -0.1235  0.2102
 2093TIP3    H127770   4.262   5.070   2.027 -0.1814  0.7526 -0.3556
 2093TIP3    H227771   4.150   4.972   2.056  0.1587  0.5297  0.2399
 2094TIP3   OH227772   2.328   3.462  16.498 -0.7536 -0.3133 -0.1674
 2094TIP3    H127773   2.237   3.438  16.483 -0.4759 -2.6579  1.2812
 2094TIP3    H227774   2.324   3.528  16.568 -1.3685  0.5019 -0.9575
 2095TIP3   OH227775   1.587   0.748  13.145 -0.2100  0.4940  0.2090
 2095TIP3    H127776   1.588   0.742  13.240 -0.6819  0.1790  0.1960
 2095TIP3    H227777   1.670   0.709  13.117 -1.2135 -1.9070  0.3644
 2096TIP3   OH227778   4.874   4.181   5.405 -0.1527 -0.2721 -0.2958
 2096TIP3    H127779   4.778   4.176   5.400 -0.0786 -0.6267 -2.6299
 2096TIP3    H227780   4.902   4.092   5.423 -0.2570 -0.0183  1.2388
 2097TIP3   OH227781   3.183   5.105   1.571 -0.1671 -0.6348 -0.2420
 2097TIP3    H127782   3.242   5.041   1.530  0.1616 -0.5707  0.1182
 2097TIP3    H227783   3.117   5.123   1.505  0.7232 -0.0308 -1.0033
 2098TIP3   OH227784   2.290   4.716   0.040  0.2677  0.3642 -0.2412
 2098TIP3    H127785   2.294   4.790   0.101  0.1505  0.0931  0.1009
 2098TIP3    H227786   2.197   4.697   0.031  0.3431 -0.5047  0.6196
 2099TIP3   OH227787   2.285   4.889  14.166  0.3037  0.0160  0.1053
 2099TIP3    H127788   2.209   4.851  14.122  1.7037 -2.1395 -0.6300
 2099TIP3    H227789   2.294   4.975  14.126 -0.5521 -0.5034 -1.3174
 2100TIP3   OH227790   0.865   4.442   5.990 -0.0044  0.0657  0.5596
 2100TIP3    H127791   0.898   4.515   5.937  0.6909 -0.3972  0.3411
 2100TIP3    H227792   0.773   4.464   6.006 -0.2279  0.2394 -0.8126
 2101TIP3   OH227793   4.858   3.893  14.619 -0.4117 -0.0353  0.2342
 2101TIP3    H127794   4.834   3.887  14.712  0.0481 -0.9548  0.3043
 2101TIP3    H227795   4.779   3.867  14.572 -0.1598 -1.2146  0.4213
 2102TIP3   OH227796   5.036   1.014   1.748 -0.2843 -0.7623  0.5494
 2102TIP3    H127797   5.114   1.053   1.786  0.4325 -2.9898  1.5693
 2102TIP3    H227798   5.025   0.931   1.795 -2.6790 -1.0120 -0.2790
 2103TIP3   OH227799   5.866   2.720   0.601  0.4183 -0.0083  0.8447
 2103TIP3    H127800   5.853   2.809   0.633  0.1332  0.1604  0.2708
 2103TIP3    H227801   5.953   2.720   0.562  0.3845  0.0403  0.7702
 2104TIP3   OH227802   5.669   5.388  15.250  0.4606 -0.2948  0.5370
 2104TIP3    H127803   5.612   5.312  15.258  0.7901 -0.3837  2.5842
 2104TIP3    H227804   5.653   5.421  15.161 -1.1568 -1.5588  0.3148
 2105TIP3   OH227805   1.085   4.916  10.821  0.0803  0.3159  0.1869
 2105TIP3    H127806   1.024   4.958  10.760 -0.5163  0.3553  0.7887
 2105TIP3    H227807   1.136   4.856  10.767 -0.9872 -0.2505 -0.2277
 2106TIP3   OH227808   5.969   4.391  10.461  0.4025  0.5919 -0.1115
 2106TIP3    H127809   5.950   4.358  10.373 -0.2327  2.4437 -0.7273
 2106TIP3    H227810   5.998   4.314  10.510  0.2779 -0.5852 -1.7897
 2107TIP3   OH227811   4.530   3.783   3.904  0.2348  0.0537  0.4405
 2107TIP3    H127812   4.533   3.805   3.997  0.6136  0.0512  0.4307
 2107TIP3    H227813   4.617   3.806   3.871  0.7893 -1.7651  0.5019
 2108TIP3   OH227814   5.983   6.723  16.823 -0.3774 -0.0501  0.0254
 2108TIP3    H127815   5.980   6.661  16.750 -2.6479 -0.8945  0.7418
 2108TIP3    H227816   5.929   6.797  16.794  2.5976  1.9529 -0.9773
 2109TIP3   OH227817   6.150   0.217   6.025 -0.1942  0.0249 -0.6818
 2109TIP3    H127818   6.080   0.166   6.067  0.5618 -0.9406 -0.5523
 2109TIP3    H227819   6.230   0.170   6.048  0.4303  0.6907 -1.4570
 2110TIP3   OH227820   5.604   3.071  16.138 -0.0156 -0.4485  0.6255
 2110TIP3    H127821   5.551   3.058  16.059 -0.9880 -0.7646  1.3026
 2110TIP3    H227822   5.668   3.000  16.136 -0.4337 -0.8252  0.4331
 2111TIP3   OH227823   0.311   1.394   4.721 -0.1048  0.7111 -0.4681
 2111TIP3    H127824   0.293   1.453   4.648 -0.7872  0.2422 -0.6813
 2111TIP3    H227825   0.373   1.443   4.776 -0.0795  1.3208 -1.0290
 2112TIP3   OH227826   3.715   6.589  14.256 -0.5128 -0.2135 -0.3224
 2112TIP3    H127827   3.742   6.574  14.166  0.1647  0.2176 -0.1943
 2112TIP3    H227828   3.761   6.521  14.306  2.2914  1.9228  0.2151
 2113TIP3   OH227829   0.316   6.134  11.724 -0.1476  0.4134  0.4470
 2113TIP3    H127830   0.383   6.198  11.700  0.6540 -0.3408  0.6395
 2113TIP3    H227831   0.263   6.123  11.645  1.2728 -0.5884 -0.4104
 2114TIP3   OH227832   6.293   6.106   1.524 -0.2089  0.1187 -0.1261
 2114TIP3    H127833   6.367   6.058   1.486 -1.2039 -0.0913 -1.8880
 2114TIP3    H227834   6.233   6.120   1.451 -1.2082  1.6709  0.9241
 2115TIP3   OH227835   5.805   0.012  14.187 -0.1962 -0.1441  0.0798
 2115TIP3    H127836   5.862  -0.047  14.237  1.7035  1.3400 -0.2302
 2115TIP3    H227837   5.716  -0.010  14.217  0.6738 -0.9583  2.2962
 2116TIP3   OH227838   5.007   6.582   5.751 -0.6956  0.1204  0.1144
 2116TIP3    H127839   5.027   6.674   5.737 -1.2485  0.0469 -1.3709
 2116TIP3    H227840   5.068   6.535   5.693 -0.1098 -0.4813  1.1899
 2117TIP3   OH227841   6.397   5.456   2.692 -0.0391  0.6396 -0.0114
 2117TIP3    H127842   6.333   5.386   2.705 -1.0639  1.3799 -0.9100
 2117TIP3    H227843   6.466   5.437   2.755 -0.4070 -1.0409 -0.0729
 2118TIP3   OH227844   1.565   4.220   2.414 -0.6160 -0.1225 -0.2126
 2118TIP3    H127845   1.627   4.179   2.354 -0.9198 -0.1026 -0.5477
 2118TIP3    H227846   1.611   4.296   2.449 -0.0229 -0.7785  0.4613
 2119TIP3   OH227847   1.238   0.366   5.187 -0.0751  0.4851  0.6690
 2119TIP3    H127848   1.304   0.414   5.236  0.3235 -1.5409  2.2216
 2119TIP3    H227849   1.178   0.434   5.155  1.9187  2.2382  0.4175
 2120TIP3   OH227850   1.756   3.052  16.538 -0.5588 -0.2337  0.1041
 2120TIP3    H127851   1.773   3.021  16.448  1.1935  2.4891 -0.6069
 2120TIP3    H227852   1.710   3.134  16.527  2.4097  1.7920  1.4569
 2121TIP3   OH227853   6.032   2.143   0.062 -0.5330 -0.5170 -0.0917
 2121TIP3    H127854   6.047   2.094   0.143 -0.4544  2.7117  1.9983
 2121TIP3    H227855   6.118   2.180   0.040 -0.7770 -0.5104 -1.1074
 2122TIP3   OH227856   1.695   2.126  14.754  0.4777  0.1602 -0.0486
 2122TIP3    H127857   1.699   2.221  14.745 -1.1104  0.5736  2.5277
 2122TIP3    H227858   1.687   2.093  14.665  2.2996  2.3123 -1.1033
 2123TIP3   OH227859   3.985   0.544  10.936  0.3861  0.8905  0.2188
 2123TIP3    H127860   3.953   0.560  10.848 -0.1464  1.3261  0.4848
 2123TIP3    H227861   4.073   0.507  10.924 -0.3025 -0.5956 -0.5426
 2124TIP3   OH227862   2.507   5.560   3.951  0.0238 -0.0772 -0.0945
 2124TIP3    H127863   2.556   5.610   3.886 -0.6138 -0.6013 -0.9975
 2124TIP3    H227864   2.574   5.531   4.014  0.8669 -0.6552 -1.2212
 2125TIP3   OH227865   3.255   3.738  12.898  0.2803 -0.7065  0.3311
 2125TIP3    H127866   3.253   3.831  12.875 -2.3164 -1.0474 -1.0927
 2125TIP3    H227867   3.344   3.710  12.875  1.9244  1.7985  2.8525
 2126TIP3   OH227868   1.628   5.392  15.078  0.1680  0.5401  0.2998
 2126TIP3    H127869   1.640   5.298  15.095 -0.7126  0.2367 -0.6338
 2126TIP3    H227870   1.580   5.395  14.995 -0.9820  1.7791  0.9631
 2127TIP3   OH227871   3.855   3.951  14.764 -0.0070 -0.2110  0.3721
 2127TIP3    H127872   3.767   3.938  14.730 -0.9350  0.1854  2.4663
 2127TIP3    H227873   3.896   4.012  14.702 -1.5945  0.4521 -0.0723
 2128TIP3   OH227874   1.465   0.651   0.328  0.3519 -0.1017  0.5616
 2128TIP3    H127875   1.477   0.746   0.334  0.1177  0.0202 -0.6476
 2128TIP3    H227876   1.535   0.614   0.383  1.8082  0.7312 -0.6633
 2129TIP3   OH227877   2.577   2.752  12.571 -0.3134  0.2429 -0.4106
 2129TIP3    H127878   2.535   2.768  12.656 -1.6214 -1.3212 -0.7030
 2129TIP3    H227879   2.606   2.838  12.542  1.1246  0.6970  2.0697
 2130TIP3   OH227880   4.078   0.688   4.381 -0.1670 -0.1988 -0.2329
 2130TIP3    H127881   4.127   0.763   4.347  0.8837  0.0788  1.7215
 2130TIP3    H227882   4.113   0.613   4.334 -1.3186  0.4998 -2.3154
 2131TIP3   OH227883   4.522   4.976  15.141  0.0521 -0.2788 -0.2632
 2131TIP3    H127884   4.543   4.985  15.234  0.5239  2.5477 -0.5744
 2131TIP3    H227885   4.505   4.882  15.130  1.5575 -0.9534  2.3097
 2132TIP3   OH227886   4.750   1.310   2.297  0.3451 -0.0824 -0.4605
 2132TIP3    H127887   4.702   1.387   2.326 -0.8113 -0.4014 -1.4448
 2132TIP3    H227888   4.711   1.238   2.347  0.7885 -0.1630 -0.2229
 2133TIP3   OH227889   5.531   4.752  16.477  0.1090 -0.2714 -0.4913
 2133TIP3    H127890   5.497   4.676  16.431 -0.0821  1.0108 -2.5965
 2133TIP3    H227891   5.543   4.722  16.567 -1.1689 -2.3887 -0.9560
 2134TIP3   OH227892   0.481   2.835  15.577  0.8109 -0.0047  0.0169
 2134TIP3    H127893   0.501   2.833  15.483 -0.3294  0.8684 -0.2683
 2134TIP3    H227894   0.558   2.875  15.617  0.6415  1.1501 -0.7655
 2135TIP3   OH227895   6.777   1.762   1.856 -0.1975  0.6398 -0.5500
 2135TIP3    H127896   6.709   1.830   1.846  0.4199  1.5031  0.8294
 2135TIP3    H227897   6.859   1.808   1.841  0.2517  0.2791  0.7346
 2136TIP3   OH227898   1.559   5.141  13.732 -0.2219  0.3965  0.4929
 2136TIP3    H127899   1.649   5.113  13.750  0.4054  1.6117 -0.5781
 2136TIP3    H227900   1.522   5.160  13.818  0.0066 -1.5969  1.0824
 2137TIP3   OH227901   0.124   1.489   1.967 -0.1481  0.0654  0.3450
 2137TIP3    H127902   0.071   1.442   2.032  3.5613  0.6652  4.2649
 2137TIP3    H227903   0.103   1.582   1.982  0.1901  0.1746  0.1459
 2138TIP3   OH227904   3.356   5.945   0.860  0.1244 -0.3055  0.3913
 2138TIP3    H127905   3.380   5.952   0.952 -1.4694 -0.2969  0.8387
 2138TIP3    H227906   3.331   5.854   0.848  1.4726 -0.6068 -0.3626
 2139TIP3   OH227907   1.892   2.981   5.361 -0.3379 -0.2510  0.1337
 2139TIP3    H127908   1.821   3.037   5.328  0.1850  0.2325 -0.1928
 2139TIP3    H227909   1.861   2.953   5.447 -0.2788  1.2069  0.6662
 2140TIP3   OH227910   2.182   0.737  13.530 -0.0697 -0.1450  0.3302
 2140TIP3    H127911   2.185   0.670  13.599 -1.2460 -0.1378  0.4086
 2140TIP3    H227912   2.156   0.817  13.576 -0.2289  0.0074 -0.0255
 2141TIP3   OH227913   5.519   3.005   3.392 -0.3923  0.3849  0.5595
 2141TIP3    H127914   5.599   2.957   3.415  0.1858 -0.4397 -2.6474
 2141TIP3    H227915   5.545   3.097   3.392  1.2458  0.0447 -2.2283
 2142TIP3   OH227916   2.943   1.347  15.408 -0.0664  0.2453  0.0324
 2142TIP3    H127917   2.965   1.436  15.382 -0.2574  0.2869  0.0098
 2142TIP3    H227918   2.849   1.351  15.429 -0.5279 -0.3617 -1.7617
 2143TIP3   OH227919   2.681   0.959   5.843 -0.0699  0.0820  0.0414
 2143TIP3    H127920   2.649   0.896   5.779  0.3045 -0.2777  0.2117
 2143TIP3    H227921   2.766   0.987   5.810 -0.2276  0.4964 -0.0295
 2144TIP3   OH227922   1.893   0.266   0.040  0.4238 -0.3856  0.0334
 2144TIP3    H127923   1.825   0.276   0.107 -1.8137 -0.5392 -2.0734
 2144TIP3    H227924   1.909   0.356   0.010  0.1700 -0.4672 -0.3584
 2145TIP3   OH227925   4.279   0.502  10.901  0.0015 -0.0139  0.2266
 2145TIP3    H127926   4.370   0.530  10.902  0.7867 -2.3062 -0.6384
 2145TIP3    H227927   4.280   0.417  10.946 -2.0277  0.7116  1.7792
 2146TIP3   OH227928   0.286   5.586  14.280  0.0566 -0.3093  0.1107
 2146TIP3    H127929   0.346   5.622  14.215 -0.6307  0.1451 -0.2888
 2146TIP3    H227930   0.253   5.505  14.240 -1.2174  0.5338 -0.6288
 2147TIP3   OH227931   2.690   2.305   5.581 -0.2683 -0.1367  0.2190
 2147TIP3    H127932   2.728   2.243   5.643 -1.7046 -1.0960  0.1964
 2147TIP3    H227933   2.742   2.384   5.591  3.1745 -1.9801 -1.4384
 2148TIP3   OH227934   6.709   2.627   4.280 -0.1509  0.2383  0.7854
 2148TIP3    H127935   6.638   2.611   4.219  1.0101 -1.6485 -0.1621
 2148TIP3    H227936   6.668   2.625   4.367 -1.7392  2.4904  0.1641
 2149TIP3   OH227937   1.408   3.487  14.086  0.2980  0.2083  0.0096
 2149TIP3    H127938   1.325   3.490  14.133 -0.5031  0.3303 -1.3551
 2149TIP3    H227939   1.403   3.408  14.033  1.6782 -0.5605  0.9608
 2150TIP3   OH227940   1.969   3.773   4.674 -0.0751  0.1017  0.0761
 2150TIP3    H127941   1.912   3.707   4.713  0.4881 -0.9687 -0.8445
 2150TIP3    H227942   2.038   3.787   4.739 -0.5651  0.2824  0.5591
 2151TIP3   OH227943   5.154   5.849   3.248 -0.3655  0.4585  0.2631
 2151TIP3    H127944   5.110   5.802   3.319 -0.0286  1.8602  1.4553
 2151TIP3    H227945   5.136   5.941   3.266  1.9394  1.0044  0.0492
 2152TIP3   OH227946   1.500   2.419   4.892 -0.3194  0.1706 -0.3538
 2152TIP3    H127947   1.493   2.388   4.802  1.9813 -0.8221 -0.2658
 2152TIP3    H227948   1.534   2.343   4.941  0.2690  1.2464  0.9661
 2153TIP3   OH227949   6.273   0.634   4.142  0.0601 -0.1344 -0.1070
 2153TIP3    H127950   6.255   0.711   4.087 -2.0179 -0.4214  0.0844
 2153TIP3    H227951   6.340   0.664   4.203 -1.0594  1.7390  0.2910
 2154TIP3   OH227952   4.195   2.255   4.176 -0.0688  0.2373 -0.4664
 2154TIP3    H127953   4.239   2.200   4.111  0.7761  1.2463 -0.7746
 2154TIP3    H227954   4.179   2.337   4.130  1.5213  1.3644  0.9059
 2155TIP3   OH227955   0.268   1.011  15.352 -0.7332 -0.1514  0.5392
 2155TIP3    H127956   0.329   0.939  15.370 -1.3149 -0.6904  0.4056
 2155TIP3    H227957   0.290   1.039  15.264  1.1789  1.5488  1.4712
 2156TIP3   OH227958   5.077   0.621   0.116  0.2963  0.1421  0.5236
 2156TIP3    H127959   5.080   0.567   0.195 -0.2653 -1.0111 -0.2228
 2156TIP3    H227960   5.124   0.701   0.140  0.2721 -0.2485  1.9715
 2157TIP3   OH227961   4.989   2.945   3.132 -0.2286  0.3251  0.0812
 2157TIP3    H127962   4.923   2.999   3.089 -0.5770  0.3517  0.6323
 2157TIP3    H227963   4.940   2.871   3.168 -0.3869  1.5308  2.5453
 2158TIP3   OH227964   1.403   1.543  16.129 -0.3136  0.3092 -0.1346
 2158TIP3    H127965   1.352   1.498  16.062  0.1513  0.5222 -0.6334
 2158TIP3    H227966   1.395   1.486  16.207 -3.6268  1.7023  0.7038
 2159TIP3   OH227967   6.403   4.222  14.592  0.1530  0.4068  0.2637
 2159TIP3    H127968   6.473   4.161  14.618 -0.0261 -1.1779 -2.5724
 2159TIP3    H227969   6.446   4.308  14.591  1.2122 -0.0627  1.4452
 2160TIP3   OH227970   6.273   5.745  13.230  0.3281  0.3652 -0.0325
 2160TIP3    H127971   6.330   5.714  13.301  1.3890 -1.8905 -1.7435
 2160TIP3    H227972   6.329   5.803  13.179 -0.0576  1.0048  0.2573
 2161TIP3   OH227973   2.232   5.038  13.393 -0.3107 -0.2033 -0.4448
 2161TIP3    H127974   2.298   5.055  13.460 -0.7186  0.6148 -0.2379
 2161TIP3    H227975   2.244   5.108  13.329 -0.7101 -0.2809 -0.6081
 2162TIP3   OH227976   5.505   2.021   2.609  0.4552 -0.5980 -0.9095
 2162TIP3    H127977   5.561   1.944   2.616 -0.0499 -0.9322 -0.4500
 2162TIP3    H227978   5.420   1.992   2.642  0.6670  0.5725  0.8379
 2163TIP3   OH227979   2.081   2.707  12.519  0.6125 -0.1040  0.3882
 2163TIP3    H127980   2.101   2.615  12.504 -1.7624 -0.4172 -1.4739
 2163TIP3    H227981   1.989   2.716  12.495  0.3937  2.5048  1.7976
 2164TIP3   OH227982   4.174   3.717   2.980 -0.0171  0.3500 -0.5800
 2164TIP3    H127983   4.218   3.652   2.925  1.5376  2.7492 -2.4037
 2164TIP3    H227984   4.118   3.766   2.919 -0.5188  1.2386  0.5522
 2165TIP3   OH227985   5.182   3.991  13.990 -0.6273  0.3186  0.0986
 2165TIP3    H127986   5.121   4.048  13.944 -0.5511 -0.4473 -0.9890
 2165TIP3    H227987   5.252   3.974  13.926  0.1945  0.3322  0.9602
 2166TIP3   OH227988   1.425   2.145   3.385  1.0414  0.3221 -0.1918
 2166TIP3    H127989   1.389   2.058   3.399 -0.1154  0.8549  0.2439
 2166TIP3    H227990   1.349   2.200   3.365  1.6333  1.4278  0.5074
 2167TIP3   OH227991   6.310   3.071  12.415 -0.2182  0.2013  0.4193
 2167TIP3    H127992   6.387   3.124  12.434 -0.2651  0.7059 -0.6996
 2167TIP3    H227993   6.241   3.106  12.471  0.2147  0.1247  1.0013
 2168TIP3   OH227994   2.855   0.286   6.678  0.5128  0.8135  0.3563
 2168TIP3    H127995   2.895   0.208   6.716  0.0043  0.0924 -0.5361
 2168TIP3    H227996   2.774   0.254   6.638 -0.0654  1.9288  0.5871
 2169TIP3   OH227997   4.616   4.216  13.672 -0.2695  0.0924  0.1560
 2169TIP3    H127998   4.564   4.172  13.739  0.0218 -0.9665 -0.2837
 2169TIP3    H227999   4.691   4.158  13.658  0.1374  0.7412 -0.4454
 2170TIP3   OH228000   1.200   6.692   2.938  0.2931  0.2647  0.4074
 2170TIP3    H128001   1.131   6.752   2.910  1.0272  0.5754 -0.8327
 2170TIP3    H228002   1.180   6.673   3.029 -0.5306  1.6139  0.5354
 2171TIP3   OH228003   4.362   5.020  12.463 -0.0863  0.1466 -0.2495
 2171TIP3    H128004   4.367   5.052  12.373  1.5036  0.1766 -0.1732
 2171TIP3    H228005   4.339   4.928  12.454  2.6133 -0.5466 -0.8702
 2172TIP3   OH228006   3.500   5.911  14.150 -0.4338  0.1981 -0.3504
 2172TIP3    H128007   3.452   5.829  14.135 -1.0789  0.5756 -0.3680
 2172TIP3    H228008   3.590   5.883  14.166 -0.2789 -0.4142 -2.0896
 2173TIP3   OH228009   6.085   2.502   5.522  0.4826 -0.3423 -0.0445
 2173TIP3    H128010   6.055   2.509   5.431  1.7057 -0.5386 -0.4871
 2173TIP3    H228011   6.023   2.556   5.572  0.5474  0.8534 -1.1869
 2174TIP3   OH228012   1.074   4.431  13.818 -0.4432 -0.5103  0.1569
 2174TIP3    H128013   1.039   4.501  13.874  0.0993 -1.1321  1.3204
 2174TIP3    H228014   0.998   4.396  13.773 -0.6696  1.1080 -0.7857
 2175TIP3   OH228015   5.325   2.790  16.234  0.2247 -0.0546 -0.0518
 2175TIP3    H128016   5.372   2.780  16.151 -0.0081  0.3481 -0.2374
 2175TIP3    H228017   5.377   2.742  16.297  0.8015  0.2511 -0.2886
 2176TIP3   OH228018   2.532   4.854   2.883 -0.3854  0.2702  0.0921
 2176TIP3    H128019   2.571   4.904   2.954  0.5986  1.1786 -1.0410
 2176TIP3    H228020   2.517   4.767   2.920  1.0505  0.4149  1.1126
 2177TIP3   OH228021   0.593   5.348  16.430  0.0375 -0.3423  0.3922
 2177TIP3    H128022   0.657   5.400  16.380  0.9949 -1.4961  0.3764
 2177TIP3    H228023   0.620   5.258  16.416 -1.4485 -0.8420  0.6337
 2178TIP3   OH228024   1.206   2.715  16.785 -0.7360 -0.3629  0.0296
 2178TIP3    H128025   1.167   2.675  16.708 -1.4004  0.4250 -0.0583
 2178TIP3    H228026   1.300   2.721  16.765 -0.8953 -0.2168 -0.6897
 2179TIP3   OH228027   4.154   6.437   3.052  0.3181 -0.7098 -0.3878
 2179TIP3    H128028   4.106   6.517   3.029 -1.3107 -0.8741  2.0592
 2179TIP3    H228029   4.236   6.444   3.003 -0.1951  1.9632 -1.0478
 2180TIP3   OH228030   4.872   4.401   0.248  0.1037 -0.1433 -0.2179
 2180TIP3    H128031   4.934   4.412   0.176  0.3357 -0.9485 -0.1432
 2180TIP3    H228032   4.918   4.347   0.312 -0.2366  0.2542  0.3763
 2181TIP3   OH228033   2.311   5.770   3.981  0.9815 -0.0643 -0.9088
 2181TIP3    H128034   2.326   5.678   3.963  0.5175  0.1400 -2.4041
 2181TIP3    H228035   2.356   5.817   3.911 -0.8351  0.7626 -1.5734
 2182TIP3   OH228036   0.972   1.106  11.184  0.8199 -0.2222  0.3389
 2182TIP3    H128037   0.995   1.090  11.092 -1.0419  0.2024 -0.2559
 2182TIP3    H228038   0.876   1.110  11.184  0.8391  2.9544  1.7698
 2183TIP3   OH228039   2.251   4.213  11.216 -0.2553  0.1664  0.1506
 2183TIP3    H128040   2.313   4.286  11.208  0.4447 -0.3702  0.5207
 2183TIP3    H228041   2.225   4.193  11.127  0.9432 -0.2963 -0.1108
 2184TIP3   OH228042   6.627   3.111  16.180  0.2569 -0.5815 -0.5628
 2184TIP3    H128043   6.631   3.174  16.252  0.1166 -1.9686  0.7090
 2184TIP3    H228044   6.550   3.137  16.129 -0.0256  0.0528  0.1723
 2185TIP3   OH228045   2.399   2.108  11.139  0.2044 -0.3209  0.1480
 2185TIP3    H128046   2.438   2.026  11.108  2.2211 -0.1175  1.9500
 2185TIP3    H228047   2.433   2.174  11.079 -1.3017 -0.7198 -1.2141
 2186TIP3   OH228048   1.586   2.600  13.152 -0.3356 -0.3865  0.4512
 2186TIP3    H128049   1.556   2.691  13.156  0.3768 -0.0872 -0.6054
 2186TIP3    H228050   1.648   2.592  13.224 -1.9611 -0.6664  1.8873
 2187TIP3   OH228051   4.946   6.503   2.790 -0.0844  0.1049 -0.3840
 2187TIP3    H128052   4.870   6.561   2.778  0.5150  1.1126  0.4733
 2187TIP3    H228053   4.975   6.521   2.880  1.4393  0.0895 -0.8562
 2188TIP3   OH228054   1.630   6.277   4.113 -0.3468  0.2624  0.8482
 2188TIP3    H128055   1.583   6.234   4.042 -0.0236  1.8019 -0.3463
 2188TIP3    H228056   1.588   6.246   4.193 -1.1461 -0.9980 -0.0380
 2189TIP3   OH228057   4.857   4.619  16.559  0.1105 -0.2458  0.7097
 2189TIP3    H128058   4.767   4.604  16.530  0.4453 -1.7573  0.3616
 2189TIP3    H228059   4.862   4.713  16.574 -0.8439  0.2424 -1.6249
 2190TIP3   OH228060   2.236   2.718  11.595 -0.1287 -0.4961 -0.4408
 2190TIP3    H128061   2.268   2.808  11.604  0.8893 -0.6494 -2.0640
 2190TIP3    H228062   2.307   2.672  11.548 -0.6366 -2.1396  0.3274
 2191TIP3   OH228063   2.141   4.026   5.423 -0.1089 -0.3701 -0.8495
 2191TIP3    H128064   2.196   3.955   5.390  0.4706  0.1569 -1.0292
 2191TIP3    H228065   2.051   3.995   5.411  0.1347 -1.9084  0.8645
 2192TIP3   OH228066   5.681   5.573  14.738 -0.0802  0.2091  0.0558
 2192TIP3    H128067   5.738   5.647  14.761  0.7988 -0.8641  1.4206
 2192TIP3    H228068   5.596   5.614  14.718  0.8258  1.7320 -0.8917
 2193TIP3   OH228069   1.472   4.657  12.474  0.1160 -0.0664 -0.3733
 2193TIP3    H128070   1.481   4.574  12.522  0.6082  0.8535  1.1869
 2193TIP3    H228071   1.396   4.643  12.417  0.2662 -1.6233 -0.2549
 2194TIP3   OH228072   0.327   6.346  11.310 -0.2255  0.3963  0.1521
 2194TIP3    H128073   0.370   6.408  11.369  5.5741 -2.1470 -0.6769
 2194TIP3    H228074   0.297   6.275  11.368 -0.6166  0.8565  0.5220
 2195TIP3   OH228075   3.490   2.348   1.863  0.2527  0.0799 -0.1693
 2195TIP3    H128076   3.453   2.407   1.798 -2.4691 -1.3129 -0.0066
 2195TIP3    H228077   3.442   2.368   1.944 -0.1052 -1.7129  0.1036
 2196TIP3   OH228078   4.328   2.154   5.570  0.1151 -0.7696  0.4808
 2196TIP3    H128079   4.383   2.183   5.642  0.2279  2.5444 -0.7760
 2196TIP3    H228080   4.388   2.106   5.512  0.5286 -1.4141  1.4099
 2197TIP3   OH228081   3.468   4.757   0.076 -0.6392 -0.3930 -0.3293
 2197TIP3    H128082   3.478   4.829   0.138  0.9247  0.3569 -1.3842
 2197TIP3    H228083   3.373   4.746   0.066 -0.9064  1.2247  0.1763
 2198TIP3   OH228084   1.809   4.299   0.925  0.4074 -0.4109 -0.4399
 2198TIP3    H128085   1.898   4.332   0.918  0.8158 -1.3388  0.1461
 2198TIP3    H228086   1.819   4.207   0.951 -0.7064 -0.6683 -0.8524
 2199TIP3   OH228087   2.601   6.582   2.003  0.6916  0.5262 -0.2342
 2199TIP3    H128088   2.654   6.661   1.998  0.8850  0.3006 -2.2285
 2199TIP3    H228089   2.664   6.510   2.010  0.5828  0.4164 -0.3585
 2200TIP3   OH228090   3.301   4.273   2.166  0.3079 -0.5668  0.1794
 2200TIP3    H128091   3.289   4.314   2.252 -0.0609 -2.5972  1.1444
 2200TIP3    H228092   3.302   4.347   2.105 -1.1303  0.8264  1.7268
 2201TIP3   OH228093   3.575   3.137  11.434 -0.3085 -0.7934  0.1444
 2201TIP3    H128094   3.549   3.096  11.352  0.1721 -1.5781  0.3737
 2201TIP3    H228095   3.611   3.222  11.408  1.9175 -1.9195 -0.7119
 2202TIP3   OH228096   2.657   5.591  11.827  0.4967  0.1443 -0.2044
 2202TIP3    H128097   2.716   5.645  11.775 -0.7282  0.7989 -0.9521
 2202TIP3    H228098   2.647   5.640  11.909  1.5770 -0.3576  0.2529
 2203TIP3   OH228099   1.808   1.261   5.730 -0.5794 -0.0154 -0.2266
 2203TIP3    H128100   1.825   1.207   5.652  1.3738  0.4128 -0.1405
 2203TIP3    H228101   1.842   1.209   5.803 -3.5799 -1.0211  0.6278
 2204TIP3   OH228102   2.636   5.099   6.129 -0.1799  0.2821 -0.3197
 2204TIP3    H128103   2.635   5.005   6.109 -2.3641 -0.0964  1.1551
 2204TIP3    H228104   2.582   5.139   6.061 -1.5834  0.0151  0.5844
 2205TIP3   OH228105   1.343   4.190  10.556 -0.4054  0.0507  0.5416
 2205TIP3    H128106   1.273   4.125  10.564 -1.3945  0.9657 -0.2938
 2205TIP3    H228107   1.419   4.148  10.596 -1.3912 -1.0228  1.3691
 2206TIP3   OH228108   0.086   3.217  10.980  0.4917  0.1930  0.2685
 2206TIP3    H128109   0.004   3.173  10.959 -0.0854  1.3848 -0.0387
 2206TIP3    H228110   0.129   3.231  10.896 -0.0894  1.6451  0.1919
 2207TIP3   OH228111   4.644   0.143   2.567 -0.7443 -0.6601  0.2768
 2207TIP3    H128112   4.662   0.209   2.500 -0.5426 -1.8402 -0.8661
 2207TIP3    H228113   4.729   0.126   2.608 -0.8847  0.1315  0.9271
 2208TIP3   OH228114   0.738   1.647  11.004 -0.6009 -0.4237 -0.3235
 2208TIP3    H128115   0.823   1.653  10.961 -0.2661 -1.9794  0.0612
 2208TIP3    H228116   0.694   1.730  10.982  1.0444  0.4674 -0.4140
 2209TIP3   OH228117   0.546   3.279   2.267  0.0384  0.1627 -0.3714
 2209TIP3    H128118   0.538   3.370   2.295 -0.4460 -0.3887  1.4761
 2209TIP3    H228119   0.498   3.274   2.185 -2.4359  1.0020  0.9179
 2210TIP3   OH228120   2.564   3.591   5.003  0.6182  0.3889 -0.2625
 2210TIP3    H128121   2.509   3.616   4.929 -1.8200  0.5098  1.4812
 2210TIP3    H228122   2.604   3.673   5.033  1.4369  0.3707 -1.2558
 2211TIP3   OH228123   1.628   0.781  15.015  0.6181  0.4586  0.2670
 2211TIP3    H128124   1.655   0.849  15.077 -2.5355  1.4428  0.7272
 2211TIP3    H228125   1.596   0.710  15.070 -0.4652  0.5659 -0.2086
 2212TIP3   OH228126   1.929   5.970  13.387 -0.1105 -0.4669 -0.1062
 2212TIP3    H128127   1.971   5.919  13.456 -0.8463 -2.9945 -1.3958
 2212TIP3    H228128   1.835   5.959  13.402 -0.4118 -3.5101 -2.9138
 2213TIP3   OH228129   2.952   3.585  11.333 -0.1415 -0.8390  0.7455
 2213TIP3    H128130   2.978   3.496  11.307 -0.0791 -1.0640  1.5560
 2213TIP3    H228131   2.996   3.599  11.417 -0.7927 -0.3421  1.0070
 2214TIP3   OH228132   1.514   1.359   3.230 -0.2856 -0.1486  0.1069
 2214TIP3    H128133   1.516   1.454   3.219 -1.3119 -0.0271  0.7404
 2214TIP3    H228134   1.595   1.338   3.275 -0.3990  0.5433  0.6546
 2215TIP3   OH228135   3.787   4.121   3.170 -0.0654 -0.0453 -0.4293
 2215TIP3    H128136   3.849   4.145   3.100  2.3268 -1.2067  1.1443
 2215TIP3    H228137   3.791   4.194   3.232 -1.8315  0.7700 -1.2092
 2216TIP3   OH228138   2.545   2.241  14.561  0.2175 -0.2102  0.4948
 2216TIP3    H128139   2.539   2.165  14.504  0.5836 -0.3254  0.6064
 2216TIP3    H228140   2.625   2.286  14.533 -0.0884  0.2260  0.3167
 2217TIP3   OH228141   2.970   0.454  16.466  0.2771 -0.1715 -0.4397
 2217TIP3    H128142   2.989   0.379  16.409  1.4296 -0.5593  0.4017
 2217TIP3    H228143   2.895   0.497  16.426  1.9090  0.4268 -3.0815
 2218TIP3   OH228144   6.316   5.799   3.465  0.3892  0.7466  0.2705
 2218TIP3    H128145   6.275   5.720   3.428  0.8004  1.4086 -1.7316
 2218TIP3    H228146   6.244   5.849   3.501 -0.1999  0.5312 -0.5750
 2219TIP3   OH228147   1.692   3.716  16.376 -0.0818  0.3252  0.1781
 2219TIP3    H128148   1.754   3.772  16.423 -0.5352  0.3774  0.7291
 2219TIP3    H228149   1.663   3.769  16.302 -1.7512  1.4944  1.5898
 2220TIP3   OH228150   0.444   6.502  16.435  0.0659 -0.2025 -0.3951
 2220TIP3    H128151   0.433   6.461  16.521 -1.3487 -1.7877 -1.2767
 2220TIP3    H228152   0.526   6.466  16.402 -0.9080 -2.0716 -0.9466
 2221TIP3   OH228153   5.846   3.462   5.051 -0.0062 -0.4996  0.4235
 2221TIP3    H128154   5.855   3.393   4.986 -0.8273  0.2589 -0.5207
 2221TIP3    H228155   5.762   3.444   5.094 -0.5668  0.2910 -0.3112
 2222TIP3   OH228156   3.912   4.852  16.413 -0.2809  0.1232 -0.0313
 2222TIP3    H128157   3.970   4.784  16.447  0.0347  1.6769  2.8748
 2222TIP3    H228158   3.825   4.829  16.445 -0.3498  0.5263  0.0829
 2223TIP3   OH228159   5.132   1.748  12.014 -0.4209  0.1599 -0.8029
 2223TIP3    H128160   5.156   1.656  12.005  2.2961  0.7454 -0.3637
 2223TIP3    H228161   5.214   1.795  12.003 -1.5163  2.4641  0.2442
 2224TIP3   OH228162   5.725   3.579  11.639 -0.4966  0.5526 -0.4142
 2224TIP3    H128163   5.667   3.505  11.623  0.3119 -0.3744  0.7484
 2224TIP3    H228164   5.681   3.630  11.707  0.3681 -0.5910  1.0609
 2225TIP3   OH228165   0.684   0.787   3.180  0.7182  0.4950 -0.4204
 2225TIP3    H128166   0.612   0.725   3.169  3.3214 -2.5905 -1.7226
 2225TIP3    H228167   0.715   0.805   3.091  3.4381 -0.8459  0.1357
 2226TIP3   OH228168   1.603   1.960   5.819  0.5880 -0.0597  0.1176
 2226TIP3    H128169   1.693   1.978   5.791  0.9453 -0.7751  0.7842
 2226TIP3    H228170   1.572   1.893   5.759  1.2651 -1.4053  1.2287
 2227TIP3   OH228171   0.698   0.462   2.938  0.1236 -0.2931  0.1051
 2227TIP3    H128172   0.674   0.443   2.847  0.7642  0.1938 -0.1744
 2227TIP3    H228173   0.770   0.525   2.931 -0.0481  0.0108  0.9592
 2228TIP3   OH228174   5.625   2.937   2.452  0.5945  0.7255  0.1079
 2228TIP3    H128175   5.596   2.851   2.485 -0.5179  0.9480 -0.2561
 2228TIP3    H228176   5.627   2.926   2.357 -0.1436  1.2741  0.0236
 2229TIP3   OH228177   1.522   5.734  11.328 -0.1666  0.3063  0.1284
 2229TIP3    H128178   1.601   5.787  11.327  0.2169 -0.2576  0.3352
 2229TIP3    H228179   1.477   5.757  11.246  0.1596  0.6922  0.0534
 2230TIP3   OH228180   2.537   3.005  11.980 -0.5132  0.4790 -0.4345
 2230TIP3    H128181   2.479   2.946  11.931 -1.4147  2.1698 -1.4996
 2230TIP3    H228182   2.549   3.080  11.922 -0.5429  1.9737  1.4001
 2231TIP3   OH228183   1.217   1.454  16.935 -0.0111 -0.1016 -0.0422
 2231TIP3    H128184   1.310   1.436  16.948 -0.2507 -2.4946 -1.2105
 2231TIP3    H228185   1.176   1.368  16.929 -1.9280  0.8460 -2.0306
 2232TIP3   OH228186   2.277   0.976   0.952 -0.1447  0.0415  0.4534
 2232TIP3    H128187   2.312   1.016   0.872  0.3262  1.0383  1.1300
 2232TIP3    H228188   2.194   1.021   0.967  0.5031  0.9774  1.3537
 2233TIP3   OH228189   5.399   4.701  12.964  0.3181 -0.7017  0.2112
 2233TIP3    H128190   5.443   4.786  12.964 -0.1568 -0.4467  0.5248
 2233TIP3    H228191   5.444   4.650  12.898 -0.9987  0.6342 -1.8258
 2234TIP3   OH228192   6.024   2.857   5.398  0.3003  0.8456 -0.3126
 2234TIP3    H128193   5.943   2.897   5.365 -0.1779 -0.4492 -0.7644
 2234TIP3    H228194   6.078   2.932   5.425 -0.7520  1.7671 -0.6689
 2235TIP3   OH228195   1.677   4.440  11.582  0.3347 -0.2527  0.0483
 2235TIP3    H128196   1.666   4.362  11.528  0.4417 -0.2165 -0.0238
 2235TIP3    H228197   1.588   4.475  11.590  0.4135  0.1311 -0.6796
 2236TIP3   OH228198   6.814   0.760  10.427 -0.3331 -0.5755  0.4660
 2236TIP3    H128199   6.850   0.828  10.484 -2.5076 -0.0705  1.3348
 2236TIP3    H228200   6.891   0.716  10.390  1.1861  2.7450 -0.6722
 2237TIP3   OH228201   4.959   5.681  14.398  0.3707  0.0295  0.3641
 2237TIP3    H128202   4.962   5.621  14.324  0.0289 -0.6041  0.8545
 2237TIP3    H228203   4.911   5.633  14.466 -4.1392  2.4878 -0.7041
 2238TIP3   OH228204   1.330   1.672   5.487  0.2665  0.6868 -0.2670
 2238TIP3    H128205   1.412   1.703   5.450  0.4066  0.4681 -0.1406
 2238TIP3    H228206   1.265   1.689   5.419  0.5525  0.1212 -0.6868
 2239TIP3   OH228207   1.811   4.664  11.605 -0.2303 -0.2925  0.0073
 2239TIP3    H128208   1.772   4.577  11.605  0.3144 -0.5480 -0.8819
 2239TIP3    H228209   1.839   4.678  11.515  0.3445  0.5075  0.2965
 2240TIP3   OH228210   0.647   4.451   0.236  0.1236 -0.0029  0.6555
 2240TIP3    H128211   0.666   4.543   0.216  1.3436 -0.5781 -1.0923
 2240TIP3    H228212   0.553   4.449   0.254 -0.1438  1.4212 -0.4163
 2241TIP3   OH228213   6.530   4.606  14.379 -0.2606  0.0709  0.5860
 2241TIP3    H128214   6.476   4.622  14.301  3.2313  2.7054 -1.5860
 2241TIP3    H228215   6.556   4.693  14.408  1.3588 -0.9955  2.5733
 2242TIP3   OH228216   4.483   3.976  14.237 -0.0460 -0.3729 -0.2048
 2242TIP3    H128217   4.480   4.021  14.152 -1.3853 -0.4733 -0.2357
 2242TIP3    H228218   4.531   4.035  14.294 -0.6878  0.5369 -0.5787
 2243TIP3   OH228219   3.927   4.367   6.308  0.1384  0.2872 -0.3147
 2243TIP3    H128220   3.910   4.462   6.303  0.9042  0.3635 -2.7793
 2243TIP3    H228221   3.944   4.341   6.217 -1.3074 -2.4750  0.0960
 2244TIP3   OH228222   1.068   6.614  15.138  0.2993  0.1859 -0.7062
 2244TIP3    H128223   0.984   6.586  15.103 -0.6041  0.9089  0.7970
 2244TIP3    H228224   1.051   6.700  15.176  1.7198  0.3449 -0.3644
 2245TIP3   OH228225   0.284   0.482  11.163 -0.2063  0.3939 -0.4267
 2245TIP3    H128226   0.212   0.532  11.200 -1.0439 -0.9932 -0.1251
 2245TIP3    H228227   0.276   0.395  11.202  0.4016 -0.3811 -1.9323
 2246TIP3   OH228228   3.575   1.656   4.599  0.0141  0.0708 -0.4002
 2246TIP3    H128229   3.643   1.676   4.534 -1.6187 -0.4366 -2.3888
 2246TIP3    H228230   3.617   1.596   4.660  1.5671  0.3804 -1.1044
 2247TIP3   OH228231   0.206   0.066   1.609 -0.4660  0.1048  0.3544
 2247TIP3    H128232   0.171  -0.007   1.660  0.1221  1.2057  2.4646
 2247TIP3    H228233   0.295   0.038   1.586 -1.2983 -1.0881 -1.6200
 2248TIP3   OH228234   4.370   3.047  15.208 -0.0527  0.0672  0.1579
 2248TIP3    H128235   4.432   2.976  15.187  1.0583  1.1580 -0.3635
 2248TIP3    H228236   4.426   3.123  15.224 -1.1645  0.5990  1.7865
 2249TIP3   OH228237   6.678   6.163   6.412 -0.2088  0.5495  0.2376
 2249TIP3    H128238   6.615   6.108   6.460 -0.1579  1.1649  1.0406
 2249TIP3    H228239   6.762   6.143   6.453 -0.2557  1.5540  0.8766
 2250TIP3   OH228240   1.813   1.406   6.032 -0.1540  0.2586 -0.1588
 2250TIP3    H128241   1.897   1.437   6.066 -0.2659  0.8507 -0.3922
 2250TIP3    H228242   1.808   1.314   6.057 -0.4521  0.7685  1.8395
 2251TIP3   OH228243   3.556   3.139  10.652 -0.5960  0.6382  0.3288
 2251TIP3    H128244   3.480   3.087  10.628 -1.0851  0.6767  1.6960
 2251TIP3    H228245   3.620   3.074  10.683 -0.3267  0.6617 -0.1745
 2252TIP3   OH228246   5.452   0.754  16.711  0.2153 -0.7018 -0.1694
 2252TIP3    H128247   5.426   0.833  16.758  1.6385 -0.0154 -0.4970
 2252TIP3    H228248   5.526   0.781  16.656  0.6171 -2.2138 -0.4293
 2253TIP3   OH228249   5.792   2.909  12.438 -0.1470 -0.2771 -0.0811
 2253TIP3    H128250   5.834   2.973  12.495 -1.1925  0.0916  0.2970
 2253TIP3    H228251   5.861   2.845  12.419  0.8843  0.8925 -0.3762
 2254TIP3   OH228252   5.791   0.518   4.702 -0.2109 -0.5577  0.1895
 2254TIP3    H128253   5.863   0.496   4.643  1.3248  2.5514  0.6931
 2254TIP3    H228254   5.722   0.551   4.644  0.0817 -0.3868 -0.0626
 2255TIP3   OH228255   0.807   1.690   4.626 -0.0051 -0.1712  0.3508
 2255TIP3    H128256   0.822   1.605   4.667 -0.2102  0.6353  2.2116
 2255TIP3    H228257   0.737   1.674   4.563  0.3340 -1.4782  0.2805
 2256TIP3   OH228258   3.557   5.201   0.266 -0.2512 -0.0132 -0.1791
 2256TIP3    H128259   3.644   5.196   0.226 -1.3137  0.1873 -2.7245
 2256TIP3    H228260   3.543   5.294   0.282  0.2150 -0.1025  0.8345
 2257TIP3   OH228261   2.672   3.975  15.083  0.2762  0.0806 -0.1112
 2257TIP3    H128262   2.701   3.910  15.147 -0.8159 -0.8179 -0.5135
 2257TIP3    H228263   2.577   3.968  15.083  0.2411  0.2199 -1.6806
 2258TIP3   OH228264   1.028   6.042  15.931 -0.7001 -0.2766 -0.0682
 2258TIP3    H128265   1.015   6.030  15.837 -0.1782 -1.6288  0.0102
 2258TIP3    H228266   0.979   5.971  15.971  1.5490 -1.5837  0.5174
 2259TIP3   OH228267   5.402   6.349  12.892 -0.2064  0.2158  0.1616
 2259TIP3    H128268   5.398   6.381  12.983 -1.0581  2.8846 -0.7314
 2259TIP3    H228269   5.391   6.427  12.839 -1.5075 -1.5129 -2.2818
 2260TIP3   OH228270   4.537   6.646  15.735  0.1001  0.0530 -0.2068
 2260TIP3    H128271   4.509   6.695  15.657 -2.3956 -0.5477  0.2334
 2260TIP3    H228272   4.476   6.672  15.803  2.1603  0.4574  1.5929
 2261TIP3   OH228273   5.573   6.285   2.136  0.1311  0.0070 -0.0836
 2261TIP3    H128274   5.488   6.326   2.120  0.8189  1.2215 -0.7458
 2261TIP3    H228275   5.585   6.290   2.231 -1.9156 -3.0688  0.4998
 2262TIP3   OH228276   6.628   0.258  16.195 -0.3179 -1.0123  0.1754
 2262TIP3    H128277   6.609   0.202  16.119 -2.6854  0.0818 -0.1140
 2262TIP3    H228278   6.642   0.197  16.267  1.1975 -2.0567 -0.9384
 2263TIP3   OH228279   3.027   0.916   1.333  0.0765  0.2982  0.4916
 2263TIP3    H128280   2.966   0.977   1.376 -1.2432 -0.2457 -0.5287
 2263TIP3    H228281   3.050   0.853   1.402 -0.2645  0.7098  0.9858
 2264TIP3   OH228282   2.155   5.936  16.085  0.0372 -0.1796  0.7543
 2264TIP3    H128283   2.164   6.015  16.139 -1.1289 -2.1285  4.0958
 2264TIP3    H228284   2.063   5.935  16.060  0.9103  1.7888 -3.4604
 2265TIP3   OH228285   0.871   6.467   2.234 -0.3535  0.0689  0.4648
 2265TIP3    H128286   0.934   6.485   2.304  0.8806 -1.2433 -0.2791
 2265TIP3    H228287   0.820   6.393   2.266  0.2655 -0.5854 -0.0429
 2266TIP3   OH228288   1.001   1.982   6.247 -0.1126 -0.0385  0.0139
 2266TIP3    H128289   0.963   1.938   6.323 -0.1826  0.5745  0.3396
 2266TIP3    H228290   0.980   1.924   6.174  1.2013 -1.3830  0.6354
 2267TIP3   OH228291   2.825   1.820   5.977  0.3067 -0.3913 -0.8283
 2267TIP3    H128292   2.822   1.912   6.003  0.0768 -0.4980 -0.4725
 2267TIP3    H228293   2.916   1.806   5.952 -0.0574  0.4687 -2.8889
 2268TIP3   OH228294   3.684   0.235  14.818 -0.1909 -0.3677  0.2545
 2268TIP3    H128295   3.679   0.189  14.734  0.5961 -1.4180  0.7574
 2268TIP3    H228296   3.593   0.248  14.844 -0.4696 -2.2570  0.3928
 2269TIP3   OH228297   0.619   0.609  14.008  0.7340 -0.1842  0.0536
 2269TIP3    H128298   0.690   0.575  14.062  1.0127  0.6008  0.2092
 2269TIP3    H228299   0.656   0.613  13.920  0.4983 -0.8534 -0.0752
 2270TIP3   OH228300   2.866   3.442   0.131  0.0059 -0.2157 -0.1255
 2270TIP3    H128301   2.811   3.474   0.059  0.8585 -0.8936 -1.1218
 2270TIP3    H228302   2.955   3.446   0.095  0.5072 -0.0131  1.1147
 2271TIP3   OH228303   1.297   4.366   0.890 -0.1142  0.2471  0.1179
 2271TIP3    H128304   1.294   4.308   0.966 -0.4380 -0.5196 -0.4658
 2271TIP3    H228305   1.384   4.405   0.893 -0.1244  0.2303  0.8845
 2272TIP3   OH228306   6.211   6.038   5.567  0.3438  0.1165  0.4137
 2272TIP3    H128307   6.247   5.991   5.492  0.9165 -1.5599  1.6605
 2272TIP3    H228308   6.288   6.075   5.611 -0.0483  1.7272 -0.1880
 2273TIP3   OH228309   5.817   1.821  15.156 -0.1771  0.3268  0.0093
 2273TIP3    H128310   5.838   1.876  15.232 -2.0733 -0.6286  1.3120
 2273TIP3    H228311   5.895   1.767  15.144  0.2559  0.6715  1.1258
 2274TIP3   OH228312   1.302   5.108  13.594  0.2327 -0.2847 -0.3562
 2274TIP3    H128313   1.388   5.118  13.635 -0.1146 -0.1332  0.3566
 2274TIP3    H228314   1.312   5.032  13.536  1.2092  0.5270 -1.2818
 2275TIP3   OH228315   2.800   1.222   3.235  0.0841  0.8050 -0.1795
 2275TIP3    H128316   2.869   1.259   3.291  0.5360  2.8125 -1.8928
 2275TIP3    H228317   2.761   1.299   3.193 -3.1313 -0.2942  0.5800
 2276TIP3   OH228318   5.533   1.719  13.941 -0.3399 -0.2780  0.4652
 2276TIP3    H128319   5.442   1.748  13.948  0.1423  1.3140  0.5260
 2276TIP3    H228320   5.577   1.758  14.018  0.5897 -0.1837 -0.0958
 2277TIP3   OH228321   6.421   0.849  12.118 -0.3857 -0.0865  0.2957
 2277TIP3    H128322   6.410   0.838  12.213  1.0605  2.0147  0.7985
 2277TIP3    H228323   6.334   0.836  12.082 -0.6274 -2.9708  1.6096
 2278TIP3   OH228324   6.711   5.402   5.957  0.2483 -0.2291  0.4478
 2278TIP3    H128325   6.773   5.368   5.893 -0.3761 -1.6661  0.5582
 2278TIP3    H228326   6.703   5.332   6.022 -0.1804  0.6305  1.3586
 2279TIP3   OH228327   1.994   5.288  15.873  0.3782 -0.1745 -0.4411
 2279TIP3    H128328   2.049   5.345  15.926 -0.8429 -0.3221  1.0764
 2279TIP3    H228329   1.910   5.334  15.868 -0.8425 -2.0084  1.3449
 2280TIP3   OH228330   4.375   2.433   0.448  0.4408  0.5136 -0.3251
 2280TIP3    H128331   4.459   2.475   0.465  0.1354  0.8801  0.3057
 2280TIP3    H228332   4.391   2.378   0.371  0.8017  1.9248 -1.2913
 2281TIP3   OH228333   1.689   3.514  12.020 -0.3346 -0.3688  0.0621
 2281TIP3    H128334   1.700   3.586  11.959 -0.6148 -0.7999 -0.5045
 2281TIP3    H228335   1.648   3.554  12.097 -0.4596  0.0740 -0.2321
 2282TIP3   OH228336   1.180   0.555  15.908 -0.0516  0.1211 -0.3162
 2282TIP3    H128337   1.187   0.518  15.820 -1.9963 -0.4387 -0.2738
 2282TIP3    H228338   1.086   0.560  15.925  0.2752 -0.7077  2.1151
 2283TIP3   OH228339   4.373   5.231   2.034  0.5786 -0.2000 -0.3182
 2283TIP3    H128340   4.345   5.322   2.021 -0.1598 -0.5260 -1.1454
 2283TIP3    H228341   4.440   5.218   1.967  1.6014  0.1105  0.6370
 2284TIP3   OH228342   1.850   6.554   4.315  0.2645 -0.4700 -0.5261
 2284TIP3    H128343   1.834   6.643   4.285 -0.0440 -0.9502 -1.8357
 2284TIP3    H228344   1.763   6.518   4.333  0.4170 -0.3333  0.6028
 2285TIP3   OH228345   6.693   1.168  11.250  0.5814  0.9762 -0.1333
 2285TIP3    H128346   6.626   1.169  11.181  0.9090  1.8915 -0.4483
 2285TIP3    H228347   6.643   1.176  11.331  0.2061  0.1013 -0.2677
 2286TIP3   OH228348   5.841   2.987  16.627  0.1120  0.4650 -0.2299
 2286TIP3    H128349   5.775   2.938  16.578  0.7542 -0.0056 -0.6383
 2286TIP3    H228350   5.876   3.050  16.564  0.8126 -0.0179 -0.3257
 2287TIP3   OH228351   2.594   4.521  10.225 -0.8582  0.7584 -0.0235
 2287TIP3    H128352   2.510   4.476  10.217  1.2587 -3.6198 -0.6004
 2287TIP3    H228353   2.609   4.529  10.319 -1.4482  0.5924  0.0854
 2288TIP3   OH228354   6.808   4.018   1.534  0.4341  0.4729  0.4788
 2288TIP3    H128355   6.805   3.968   1.452  1.0010 -0.6054  1.0833
 2288TIP3    H228356   6.778   4.105   1.510  0.0221  0.0197 -0.7572
 2289TIP3   OH228357   0.727   6.420  14.210  0.1740  0.0896 -0.5848
 2289TIP3    H128358   0.710   6.330  14.183 -0.0560 -0.0965  0.1387
 2289TIP3    H228359   0.808   6.415  14.260  0.2936  0.3277 -0.7523
 2290TIP3   OH228360   5.405   5.914   0.538  0.0886 -0.3693  0.2596
 2290TIP3    H128361   5.360   5.862   0.471 -0.0517 -1.1274  0.9202
 2290TIP3    H228362   5.412   5.855   0.613  1.7390 -0.1152  0.3597
 2291TIP3   OH228363   1.223   4.539  11.042 -0.1668 -0.2078  0.3421
 2291TIP3    H128364   1.198   4.604  10.976 -0.6792 -1.5106 -0.7935
 2291TIP3    H228365   1.318   4.534  11.034 -0.1394  0.2507  0.3111
 2292TIP3   OH228366   0.419   2.003  10.746  0.1102 -0.1644  0.2265
 2292TIP3    H128367   0.410   2.062  10.820  0.1374  0.1076  0.0155
 2292TIP3    H228368   0.494   2.037  10.697 -0.1227 -0.1327 -0.1143
 2293TIP3   OH228369   4.847   4.443   5.387 -0.1839 -0.2347 -0.4723
 2293TIP3    H128370   4.877   4.353   5.402  0.3043 -0.1759 -1.0634
 2293TIP3    H228371   4.907   4.497   5.438 -1.5777 -0.3350  1.3628
 2294TIP3   OH228372   0.936   5.118  14.557  0.6864 -0.3178 -0.0596
 2294TIP3    H128373   0.850   5.160  14.571  0.8508 -0.4084  1.3611
 2294TIP3    H228374   0.968   5.157  14.476 -0.3900  0.2462 -0.2414
 2295TIP3   OH228375   4.196   3.181  13.152 -0.2888 -0.6598  0.6303
 2295TIP3    H128376   4.231   3.235  13.221 -4.3072 -0.2655  2.6650
 2295TIP3    H228377   4.162   3.243  13.087 -0.8616 -0.8453  0.7423
 2296TIP3   OH228378   4.078   5.044  16.621  0.0944 -0.1322 -0.2687
 2296TIP3    H128379   4.061   5.127  16.666  2.6406 -0.1792  0.9531
 2296TIP3    H228380   4.033   4.978  16.674  1.6460  0.0276  1.3528
 2297TIP3   OH228381   5.338   2.635  14.880  0.3674 -0.3460  0.4310
 2297TIP3    H128382   5.296   2.619  14.795  1.3269  0.8072 -0.2951
 2297TIP3    H228383   5.428   2.603  14.868 -0.2577 -3.0078  2.0416
 2298TIP3   OH228384   6.467   1.814  16.994 -0.1094 -0.2358 -0.5598
 2298TIP3    H128385   6.433   1.753  16.929  0.1973 -0.4621 -0.5067
 2298TIP3    H228386   6.528   1.869  16.945  0.7594 -0.9467 -0.2907
 2299TIP3   OH228387   3.230   6.591  14.788  0.1257  0.0107 -0.2730
 2299TIP3    H128388   3.275   6.573  14.705  0.3021 -1.3497  0.0975
 2299TIP3    H228389   3.143   6.552  14.777 -0.3120  0.9665 -0.2834
 2300TIP3   OH228390   1.830   1.262   3.749  0.6561 -0.1149  0.4436
 2300TIP3    H128391   1.753   1.311   3.775  1.0116  1.2040 -0.8630
 2300TIP3    H228392   1.904   1.314   3.779  1.0417  0.2448 -1.0714
 2301TIP3   OH228393   4.499   1.813  14.286 -0.0990  0.4206 -0.0154
 2301TIP3    H128394   4.558   1.768  14.346 -0.0171  0.2668 -0.2106
 2301TIP3    H228395   4.556   1.848  14.217 -0.1181  1.1202  0.3101
 2302TIP3   OH228396   2.009   2.070  15.594  0.1109 -0.3428  0.1426
 2302TIP3    H128397   2.016   2.154  15.638  1.3326  0.1518 -0.9276
 2302TIP3    H228398   2.095   2.057  15.553 -0.4936 -1.4759 -0.8219
 2303TIP3   OH228399   3.892   2.641  16.367 -0.0360 -0.4601 -0.0208
 2303TIP3    H128400   3.836   2.683  16.432  0.0949  1.1378 -0.8726
 2303TIP3    H228401   3.980   2.674  16.386  0.5201 -2.2856  0.7832
 2304TIP3   OH228402   6.702   2.898   4.332 -0.1056 -0.2858  0.2392
 2304TIP3    H128403   6.710   2.804   4.316 -1.2990 -1.0962  3.6015
 2304TIP3    H228404   6.611   2.910   4.360  0.4288  1.6129  1.3020
 2305TIP3   OH228405   4.782   3.563   6.115  0.0566 -0.1971  0.7090
 2305TIP3    H128406   4.838   3.598   6.045  0.1583 -1.3574  0.1950
 2305TIP3    H228407   4.757   3.640   6.165  0.5695  0.5769 -0.1801
 2306TIP3   OH228408   0.657   3.080   1.424 -0.2220 -0.0828 -0.0420
 2306TIP3    H128409   0.585   3.068   1.486  0.8606 -0.9201  1.1039
 2306TIP3    H228410   0.659   2.998   1.375 -0.6539  0.3242 -0.7588
 2307TIP3   OH228411   4.270   1.179  16.470  0.0937 -0.2542 -0.0419
 2307TIP3    H128412   4.250   1.211  16.558  0.0660 -1.2491  0.3232
 2307TIP3    H228413   4.350   1.225  16.446  0.1311 -0.0114  0.5291
 2308TIP3   OH228414   1.065   0.455  14.130 -0.6598 -0.0940  0.3558
 2308TIP3    H128415   1.095   0.546  14.130 -0.3675 -0.1812  0.9733
 2308TIP3    H228416   1.055   0.433  14.038 -0.3886  0.4564  0.1888
 2309TIP3   OH228417   3.610   4.313  15.127  0.0745  0.0286 -0.2255
 2309TIP3    H128418   3.648   4.263  15.055  0.1918  0.7283 -0.6578
 2309TIP3    H228419   3.662   4.289  15.203 -0.8787 -1.7421 -0.0639
 2310TIP3   OH228420   5.567   3.611  10.918 -0.4196  0.2076  0.0071
 2310TIP3    H128421   5.591   3.704  10.926 -0.8320  0.2141  1.3326
 2310TIP3    H228422   5.472   3.613  10.901 -0.1948  0.0552 -1.4007
 2311TIP3   OH228423   4.238   1.812   4.482  0.4334 -0.1517  0.0220
 2311TIP3    H128424   4.165   1.750   4.486  0.2881  0.0646  0.9259
 2311TIP3    H228425   4.247   1.833   4.389 -0.6377 -0.2032 -0.1045
 2312TIP3   OH228426   3.343   3.103  15.606 -0.3032 -0.0106  0.1400
 2312TIP3    H128427   3.338   3.101  15.702 -2.5405  1.6632  0.1526
 2312TIP3    H228428   3.345   3.011  15.580 -1.9135 -0.5753  1.7851
 2313TIP3   OH228429   6.620   1.904   1.375  0.1965  0.1907  0.0566
 2313TIP3    H128430   6.598   1.880   1.285  0.0441 -0.7137  0.3339
 2313TIP3    H228431   6.675   1.833   1.407  0.9177  0.8927  0.4208
 2314TIP3   OH228432   6.487   1.319  15.084  0.7145  0.1782  0.0323
 2314TIP3    H128433   6.494   1.395  15.142 -0.8303  0.1440  0.3063
 2314TIP3    H228434   6.415   1.267  15.121  0.5087 -0.4634 -1.2216
 2315TIP3   OH228435   2.792   1.102   1.806 -0.1798  0.6014  0.1704
 2315TIP3    H128436   2.809   1.156   1.729  2.2672  0.7642  0.7505
 2315TIP3    H228437   2.791   1.163   1.880 -1.3735  0.3040  0.4303
 2316TIP3   OH228438   6.828   4.946  12.729 -0.3900  0.0005 -0.3556
 2316TIP3    H128439   6.817   4.966  12.822 -3.2052 -0.5569 -0.4916
 2316TIP3    H228440   6.767   5.005  12.684  1.5872  0.9438 -2.0121
 2317TIP3   OH228441   6.197   5.213   2.675 -0.5631  0.1499 -0.1553
 2317TIP3    H128442   6.250   5.133   2.680  0.6703  0.8191 -1.5488
 2317TIP3    H228443   6.184   5.239   2.766 -1.2668 -1.7844  0.3509
 2318TIP3   OH228444   6.386   3.556  11.003  0.1911 -0.0878  0.6630
 2318TIP3    H128445   6.295   3.550  10.975  0.4149 -0.7234  0.0377
 2318TIP3    H228446   6.384   3.615  11.078 -0.4601  1.4394 -0.5122
 2319TIP3   OH228447   4.997   0.758   2.171 -0.3894 -0.1221 -0.0624
 2319TIP3    H128448   5.026   0.738   2.260 -2.8414  1.2744  1.1485
 2319TIP3    H228449   4.925   0.698   2.154 -0.0551 -0.2639 -1.0792
 2320TIP3   OH228450   0.304   3.899   3.512 -0.0016  0.1555  0.2093
 2320TIP3    H128451   0.341   3.960   3.449  1.3974  0.1563  0.9872
 2320TIP3    H228452   0.266   3.829   3.459  1.8746 -0.2680 -0.6609
 2321TIP3   OH228453   3.962   4.553  16.240  0.9466 -0.0375 -0.0523
 2321TIP3    H128454   3.879   4.509  16.258 -1.8448  4.0170 -1.5442
 2321TIP3    H228455   4.003   4.562  16.326  0.7358 -3.4016  0.5622
 2322TIP3   OH228456   1.901   3.869  16.103  0.2548 -0.4192  0.8149
 2322TIP3    H128457   1.817   3.822  16.107  0.1860 -0.3834 -0.0523
 2322TIP3    H228458   1.881   3.957  16.134 -0.0201 -0.4234  0.6520
 2323TIP3   OH228459   6.554   1.523   5.866  0.6542  0.9123  0.3053
 2323TIP3    H128460   6.550   1.515   5.961  0.1440  1.2905  0.3203
 2323TIP3    H228461   6.463   1.511   5.837  0.9303 -0.0485 -0.2064
 2324TIP3   OH228462   3.112   6.728  16.827  0.1555 -0.0343 -0.0347
 2324TIP3    H128463   3.089   6.793  16.894 -0.6024 -0.6160  0.2782
 2324TIP3    H228464   3.170   6.775  16.767  0.2268  0.7132  0.6074
 2325TIP3   OH228465   5.062   0.077  13.642  0.0575 -0.0078 -0.1493
 2325TIP3    H128466   5.005   0.022  13.694  1.7357 -0.7193  1.0416
 2325TIP3    H228467   5.005   0.147  13.608 -1.4594 -0.6378  1.0126
 2326TIP3   OH228468   2.922   2.043  13.319 -0.6640  0.2873 -0.6854
 2326TIP3    H128469   2.989   1.980  13.344 -0.2394  0.8977 -0.2624
 2326TIP3    H228470   2.945   2.068  13.229  0.9390  2.0437  0.1336
 2327TIP3   OH228471   3.688   4.614  15.817  0.4965 -0.1497  0.3847
 2327TIP3    H128472   3.709   4.651  15.903  0.9453 -1.2840  0.7820
 2327TIP3    H228473   3.772   4.582  15.784  0.3993  0.6247 -0.6628
 2328TIP3   OH228474   0.279   5.583  11.936  0.0951  0.1584  0.0566
 2328TIP3    H128475   0.244   5.668  11.963  1.1221  0.7917 -0.5269
 2328TIP3    H228476   0.342   5.561  12.004  0.2022  0.1136 -0.0568
 2329TIP3   OH228477   1.196   1.174   0.848  0.2773 -0.4528 -0.0257
 2329TIP3    H128478   1.122   1.213   0.801  0.9631  1.2366  0.2228
 2329TIP3    H228479   1.174   1.081   0.855 -0.7093 -0.4357 -2.0545
 2330TIP3   OH228480   6.264   2.592  12.610  0.1373 -0.1688 -0.0923
 2330TIP3    H128481   6.310   2.593  12.525  1.5881  0.6059  0.6626
 2330TIP3    H228482   6.214   2.673  12.611 -0.3430 -0.4511 -0.4233
 2331TIP3   OH228483   0.352   4.715   4.618 -0.6368  0.6359 -0.6570
 2331TIP3    H128484   0.403   4.789   4.583  1.1335 -1.0270 -1.7757
 2331TIP3    H228485   0.277   4.708   4.559 -1.1400  1.8471 -0.2040
 2332TIP3   OH228486   4.499   3.084   0.091 -0.2100 -0.7260  0.1562
 2332TIP3    H128487   4.518   3.125   0.175  0.8841 -0.2877 -0.2811
 2332TIP3    H228488   4.548   3.136   0.027 -1.6107 -0.6060 -0.8585
 2333TIP3   OH228489   6.178   4.293  11.689 -0.3370  0.0786  0.2956
 2333TIP3    H128490   6.116   4.275  11.760  0.0865  1.2653  0.9866
 2333TIP3    H228491   6.162   4.384  11.665  2.3602  1.0495  1.7802
 2334TIP3   OH228492   6.455   2.571  14.406 -0.2538  0.1273 -0.1070
 2334TIP3    H128493   6.429   2.659  14.433  3.3923  1.1373  0.6952
 2334TIP3    H228494   6.477   2.526  14.488  1.6299 -0.1484 -0.7201
 2335TIP3   OH228495   0.372   0.569  16.287 -0.2542 -0.0276 -0.2095
 2335TIP3    H128496   0.416   0.654  16.285  2.3359 -1.2229  0.9366
 2335TIP3    H228497   0.409   0.521  16.213  1.7319 -1.6082  1.7008
 2336TIP3   OH228498   4.481   1.710  16.543 -0.0233  0.0232  0.5362
 2336TIP3    H128499   4.446   1.738  16.458 -2.1211 -1.0038  1.0051
 2336TIP3    H228500   4.423   1.749  16.608  0.1168 -1.1251  1.3879
 2337TIP3   OH228501   2.602   4.353  13.399  0.0094 -0.1982  0.2132
 2337TIP3    H128502   2.527   4.407  13.424  0.5947 -0.8464  3.9419
 2337TIP3    H228503   2.628   4.308  13.480  3.5485 -1.0939 -1.2064
 2338TIP3   OH228504   3.585   2.239  16.892  0.3284  0.9291 -0.3410
 2338TIP3    H128505   3.588   2.334  16.891  2.8975  0.9081 -1.1446
 2338TIP3    H228506   3.640   2.213  16.966 -2.4116  0.0089  1.5300
 2339TIP3   OH228507   3.893   6.310  16.441 -0.3088 -0.0519 -0.3767
 2339TIP3    H128508   3.809   6.312  16.488  0.4899  1.7546  1.1402
 2339TIP3    H228509   3.921   6.219  16.445 -2.3475 -0.7870 -1.2826
 2340TIP3   OH228510   2.906   6.152   2.755 -0.0836  0.2200  0.3839
 2340TIP3    H128511   2.868   6.240   2.758  3.9617  2.1090  1.9533
 2340TIP3    H228512   2.860   6.104   2.824 -1.6203  1.3716  0.2259
 2341TIP3   OH228513   1.596   3.742   3.745  0.3211 -0.5740 -0.3328
 2341TIP3    H128514   1.594   3.827   3.788  1.8433 -0.8738  0.3695
 2341TIP3    H228515   1.559   3.759   3.658  0.4039  0.7494 -0.1284
 2342TIP3   OH228516   1.149   5.410  12.134 -0.3397 -0.0740 -0.4492
 2342TIP3    H128517   1.187   5.323  12.146 -0.4574 -0.1418 -0.5634
 2342TIP3    H228518   1.191   5.444  12.056  1.3967  0.8908  0.8294
 2343TIP3   OH228519   3.588   5.273  11.722  0.6529 -0.1599  0.4751
 2343TIP3    H128520   3.522   5.341  11.713  0.2629 -0.6208 -0.2281
 2343TIP3    H228521   3.540   5.191  11.711  1.1590 -0.5447  1.0690
 2344TIP3   OH228522   2.701   4.265   1.730 -0.1449 -0.5084  0.2368
 2344TIP3    H128523   2.748   4.182   1.734 -0.6749 -0.8741 -0.8192
 2344TIP3    H228524   2.742   4.319   1.797  3.1730 -0.1125 -1.9057
 2345TIP3   OH228525   3.727   6.768  13.343  0.7676 -0.1181  0.1201
 2345TIP3    H128526   3.786   6.830  13.384  0.6715  1.4698 -1.9708
 2345TIP3    H228527   3.767   6.682  13.358  1.1534  0.4552  2.6474
 2346TIP3   OH228528   6.247   3.180  15.828 -0.3462  0.5375  0.3738
 2346TIP3    H128529   6.263   3.267  15.789 -0.6935  0.5352  0.2215
 2346TIP3    H228530   6.329   3.132  15.812 -0.3964  0.6139 -0.1550
 2347TIP3   OH228531   0.063   3.837  14.045  0.4534  0.1131 -0.1276
 2347TIP3    H128532   0.073   3.883  13.961  1.0354 -0.1294 -0.2027
 2347TIP3    H228533   0.142   3.782  14.051  0.3185 -0.0214  0.4875
 2348TIP3   OH228534   2.701   3.598  13.620 -0.5886 -0.5166  0.2167
 2348TIP3    H128535   2.626   3.538  13.616 -0.3280 -0.8931  0.7702
 2348TIP3    H228536   2.778   3.540  13.618 -0.2490 -0.0922 -1.6662
 2349TIP3   OH228537   2.871   0.617   6.504 -0.4731  0.2706 -0.0716
 2349TIP3    H128538   2.905   0.604   6.415 -2.1922 -2.7033 -0.4463
 2349TIP3    H228539   2.942   0.589   6.561  0.0752  0.6385 -0.5611
 2350TIP3   OH228540   5.075   4.679   2.237  0.0333 -0.1362 -0.5693
 2350TIP3    H128541   5.106   4.601   2.282 -0.2190 -1.0188 -1.8534
 2350TIP3    H228542   5.078   4.748   2.303  0.0734 -1.2705  0.6566
 2351TIP3   OH228543   1.546   5.405  16.494 -0.0530  0.2758 -0.0439
 2351TIP3    H128544   1.575   5.374  16.580  0.5406 -0.5542 -0.5291
 2351TIP3    H228545   1.509   5.492  16.511  2.2317  1.1754  0.7292
 2352TIP3   OH228546   3.267   4.220   4.680 -0.6127 -0.1652  0.1127
 2352TIP3    H128547   3.211   4.292   4.708  0.2251  0.8544 -0.7061
 2352TIP3    H228548   3.345   4.263   4.644  0.2541 -1.5064  0.2942
 2353TIP3   OH228549   3.259   2.522  11.805 -0.2003  0.4362  0.1655
 2353TIP3    H128550   3.303   2.551  11.885 -1.0445 -0.0480  0.8237
 2353TIP3    H228551   3.308   2.445  11.777  0.0219  0.5339  0.2819
 2354TIP3   OH228552   1.688   4.947  14.889  0.6754  0.0428  0.1778
 2354TIP3    H128553   1.726   4.882  14.948  0.9016 -0.9356 -1.0137
 2354TIP3    H228554   1.722   4.925  14.802 -0.4922  0.7920 -0.5094
 2355TIP3   OH228555   3.466   3.326  10.479 -0.2158  0.0254  0.1598
 2355TIP3    H128556   3.390   3.287  10.436  0.7873  0.4133 -2.1054
 2355TIP3    H228557   3.493   3.260  10.544 -0.4080 -1.7181 -1.4404
 2356TIP3   OH228558   2.240   1.027  14.024 -0.0445 -0.0190  0.3187
 2356TIP3    H128559   2.288   1.022  14.107  0.3859 -0.3628  0.0487
 2356TIP3    H228560   2.204   1.116  14.023 -0.0423 -0.0099  0.8705
 2357TIP3   OH228561   0.361   6.778  15.484  0.1265  0.2471 -0.5783
 2357TIP3    H128562   0.333   6.855  15.434 -0.6190  0.5285  0.2554
 2357TIP3    H228563   0.378   6.811  15.572 -2.5043 -0.9037  0.4607
 2358TIP3   OH228564   0.748   0.147  14.678 -0.1901  0.2840  0.4805
 2358TIP3    H128565   0.723   0.220  14.620  1.6122  0.2013 -0.4663
 2358TIP3    H228566   0.843   0.143  14.672 -0.0882 -0.8482  2.1549
 2359TIP3   OH228567   6.408   3.598   4.089 -0.2516 -0.5535 -0.5222
 2359TIP3    H128568   6.500   3.574   4.086 -0.3080 -1.2789  1.4768
 2359TIP3    H228569   6.369   3.557   4.011  1.0962 -0.2248 -1.3842
 2360TIP3   OH228570   5.799   6.111  14.219  0.2288  0.3849  0.7689
 2360TIP3    H128571   5.817   6.082  14.308 -0.6736  0.8930  1.1286
 2360TIP3    H228572   5.795   6.030  14.168  1.9001  0.1552  0.9498
 2361TIP3   OH228573   1.179   1.792   0.119  0.3200  0.0680  0.2636
 2361TIP3    H128574   1.093   1.797   0.161  1.2602 -0.0338  2.3285
 2361TIP3    H228575   1.216   1.879   0.129  0.5392  0.0541 -0.4233
 2362TIP3   OH228576   0.473   6.818   0.106  0.4785  0.3764 -0.5712
 2362TIP3    H128577   0.520   6.900   0.088  0.1505  0.2371 -2.2054
 2362TIP3    H228578   0.408   6.812   0.036 -2.1212  0.6239  1.6859
 2363TIP3   OH228579   1.332   4.774   3.973  0.1610 -0.5366  0.0441
 2363TIP3    H128580   1.323   4.738   3.885 -0.5742 -0.1523 -0.0485
 2363TIP3    H228581   1.290   4.710   4.030  0.4265 -0.6706  0.0913
 2364TIP3   OH228582   0.426   3.181  15.704 -0.1131 -0.1276  0.4509
 2364TIP3    H128583   0.427   3.107  15.643  0.6967 -0.7141  1.1581
 2364TIP3    H228584   0.493   3.241  15.671 -0.3267 -0.0001  0.2420
 2365TIP3   OH228585   5.522   0.543   2.553  0.0556  0.2473 -0.1391
 2365TIP3    H128586   5.484   0.599   2.621 -1.4682  0.8705 -1.4569
 2365TIP3    H228587   5.571   0.604   2.497  4.1391 -0.6100  2.0491
 2366TIP3   OH228588   3.041   3.989  13.290  0.2386  0.3691 -0.0453
 2366TIP3    H128589   2.977   3.993  13.218  0.2399 -2.5276 -0.3276
 2366TIP3    H228590   3.041   4.077  13.326 -1.5220  1.3229 -2.0925
 2367TIP3   OH228591   3.467   3.278  13.149 -0.1401  0.4182  0.1898
 2367TIP3    H128592   3.562   3.273  13.149 -0.1112  0.6485  1.3325
 2367TIP3    H228593   3.448   3.365  13.184 -0.7689  1.2518 -2.0239
 2368TIP3   OH228594   5.650   0.931   6.334 -0.4396  0.3604  0.0456
 2368TIP3    H128595   5.666   0.842   6.303 -0.9725  0.5373 -0.7687
 2368TIP3    H228596   5.697   0.987   6.271 -0.9391  0.6935 -0.0363
 2369TIP3   OH228597   4.831   1.295   1.311 -0.0325  0.2239  0.5257
 2369TIP3    H128598   4.887   1.224   1.277 -1.1604 -1.2067  1.5383
 2369TIP3    H228599   4.749   1.286   1.262 -0.3479  0.5536  0.9934
 2370TIP3   OH228600   6.850   6.134  15.243  0.3226 -0.6858 -0.5375
 2370TIP3    H128601   6.775   6.192  15.229 -0.4277 -0.6916  2.5657
 2370TIP3    H228602   6.917   6.190  15.282  1.0251 -1.1494 -1.0646
 2371TIP3   OH228603   1.756   2.131   0.203 -0.9310 -0.0641 -0.1853
 2371TIP3    H128604   1.722   2.103   0.288 -0.2156 -0.7811 -0.1256
 2371TIP3    H228605   1.840   2.086   0.194  0.0985  1.7458 -0.2670
 2372TIP3   OH228606   4.394   3.514  14.170 -0.3147  0.0916  0.5118
 2372TIP3    H128607   4.341   3.574  14.118  0.4337  0.6220  0.3459
 2372TIP3    H228608   4.454   3.474  14.107  1.9462  2.1826  1.1712
 2373TIP3   OH228609   1.502   0.901   0.876  0.5353  0.3292  1.1911
 2373TIP3    H128610   1.411   0.875   0.862  0.8308  0.5007 -1.6434
 2373TIP3    H228611   1.499   0.996   0.878  0.7868  0.3853 -0.3726
 2374TIP3   OH228612   4.770   4.930   5.101 -0.1220 -0.0833 -0.2535
 2374TIP3    H128613   4.764   4.955   5.009  0.8090 -2.8681 -1.1547
 2374TIP3    H228614   4.850   4.973   5.132 -0.3736  0.7704 -0.7535
 2375TIP3   OH228615   1.184   4.502  15.399 -0.6570 -0.4901 -0.3896
 2375TIP3    H128616   1.240   4.474  15.472  0.4258 -0.2707 -1.1027
 2375TIP3    H228617   1.095   4.502  15.435 -0.2191 -0.9873  0.7442
 2376TIP3   OH228618   5.260   4.968  15.989 -0.2103  0.3582  0.3089
 2376TIP3    H128619   5.211   5.044  16.019  1.2373  1.0103  1.1460
 2376TIP3    H228620   5.233   4.897  16.046 -1.3182  0.3077 -0.2545
 2377TIP3   OH228621   3.171   1.004   4.273  0.0595  0.0529  0.1790
 2377TIP3    H128622   3.123   0.990   4.354 -2.6934  0.1878 -1.3275
 2377TIP3    H228623   3.208   0.918   4.252 -0.1012 -0.2275  0.9997
 2378TIP3   OH228624   3.200   1.249   5.873 -0.2461 -0.3365  0.2929
 2378TIP3    H128625   3.189   1.279   5.963  1.7171  0.6105  0.2532
 2378TIP3    H228626   3.278   1.194   5.874  0.1357  0.1507 -0.9324
 2379TIP3   OH228627   1.884   5.456   2.151 -1.0407 -0.5133  0.0636
 2379TIP3    H128628   1.935   5.419   2.223  0.2262  1.4402  0.2433
 2379TIP3    H228629   1.837   5.530   2.191  0.1359  0.9699 -1.1645
 2380TIP3   OH228630   1.213   2.850  13.091 -0.5450 -0.2186 -0.2993
 2380TIP3    H128631   1.205   2.833  12.997  2.0330 -0.0203 -0.6468
 2380TIP3    H228632   1.249   2.939  13.096  1.3705 -0.9847  0.7188
 2381TIP3   OH228633   2.870   2.677  12.589 -0.0555  0.3623  0.7976
 2381TIP3    H128634   2.864   2.590  12.627  0.6039 -0.5516 -1.0563
 2381TIP3    H228635   2.784   2.716  12.603 -0.2930 -0.4934  1.8391
 2382TIP3   OH228636   6.684   4.531  11.973  0.3590  0.3943  0.2049
 2382TIP3    H128637   6.695   4.437  11.988  0.7310 -0.1099 -2.6918
 2382TIP3    H228638   6.766   4.571  12.003  1.0574 -0.4983 -0.4713
 2383TIP3   OH228639   6.353   5.540  12.812 -0.1902  0.5031 -0.1334
 2383TIP3    H128640   6.300   5.604  12.860 -1.1663 -0.9442  0.8290
 2383TIP3    H228641   6.295   5.508  12.743  0.2489  0.5830 -0.5388
 2384TIP3   OH228642   2.632   1.159   2.592  0.0091  0.1033  0.1869
 2384TIP3    H128643   2.697   1.089   2.588  0.1598  0.2836 -1.0634
 2384TIP3    H228644   2.669   1.230   2.539  0.1432  1.4060  1.9156
 2385TIP3   OH228645   2.293   1.767   0.991 -0.4186  0.1692 -0.5685
 2385TIP3    H128646   2.374   1.719   0.974 -0.1319  0.0204  1.0623
 2385TIP3    H228647   2.257   1.726   1.070 -2.0829  0.2581 -1.2377
 2386TIP3   OH228648   2.878   4.380  14.915 -0.0735 -0.1935 -1.0982
 2386TIP3    H128649   2.912   4.320  14.849 -0.8828 -1.5751 -0.3030
 2386TIP3    H228650   2.843   4.323  14.984  0.1603  1.1933  0.2325
 2387TIP3   OH228651   4.676   4.876  16.641 -0.2321 -0.1980 -0.4400
 2387TIP3    H128652   4.635   4.809  16.696 -1.8610  1.5533  0.6087
 2387TIP3    H228653   4.607   4.904  16.582  0.3625  0.7389 -0.7093
 2388TIP3   OH228654   3.623   6.138  11.664  0.2357  0.5874 -0.0689
 2388TIP3    H128655   3.600   6.045  11.655 -0.8889  0.8104  0.2748
 2388TIP3    H228656   3.651   6.147  11.755 -2.8141  1.1559  0.9462
 2389TIP3   OH228657   6.808   6.133  16.274  0.5541 -1.0514 -0.1584
 2389TIP3    H128658   6.884   6.183  16.244  0.0299  1.0311  1.6833
 2389TIP3    H228659   6.830   6.108  16.363 -1.2321  0.4048  0.7456
 2390TIP3   OH228660   5.108   2.088   2.517  0.1627 -0.1173 -0.8216
 2390TIP3    H128661   5.166   2.016   2.491  0.3204 -0.0628 -0.6259
 2390TIP3    H228662   5.138   2.162   2.465  1.1613  0.2644  0.2482
 2391TIP3   OH228663   1.387   6.647   3.878  0.2631  0.1161 -1.1281
 2391TIP3    H128664   1.298   6.678   3.863  0.0902  0.3227  0.2044
 2391TIP3    H228665   1.424   6.637   3.790 -1.2674 -0.5600 -1.7357
 2392TIP3   OH228666   6.710   5.478  12.854  0.1334 -0.3583  0.2439
 2392TIP3    H128667   6.657   5.506  12.929  0.5153 -0.3428  0.5113
 2392TIP3    H228668   6.800   5.480  12.887  0.4456  1.0112 -0.6346
 2393TIP3   OH228669   3.964   4.481   5.134 -0.1110 -0.0550 -0.2421
 2393TIP3    H128670   3.918   4.535   5.069 -0.2240  0.2704  0.1076
 2393TIP3    H228671   3.921   4.500   5.217 -0.2154 -0.7602 -0.1267
 2394TIP3   OH228672   3.946   2.021   4.375 -0.3027 -0.0479  0.3212
 2394TIP3    H128673   3.926   2.104   4.418  0.6869  0.7358 -0.6586
 2394TIP3    H228674   4.042   2.018   4.372 -0.3050  0.0904 -2.0324
 2395TIP3   OH228675   2.674   5.041  13.632 -0.1471  0.4364 -0.2439
 2395TIP3    H128676   2.682   5.041  13.727  0.4024 -0.8994 -0.2700
 2395TIP3    H228677   2.600   5.099  13.614 -0.7525  0.0978  1.0457
 2396TIP3   OH228678   1.772   1.877  16.464 -0.1004  0.0065 -0.3096
 2396TIP3    H128679   1.858   1.892  16.424 -0.2426 -0.5763 -0.8577
 2396TIP3    H228680   1.744   1.793  16.428 -0.6986 -0.0267  0.2279
 2397TIP3   OH228681   5.570   5.186  14.849 -0.2025 -0.6887  0.2083
 2397TIP3    H128682   5.663   5.172  14.868 -0.0435  0.2155  0.1088
 2397TIP3    H228683   5.524   5.136  14.918  0.3473 -1.1144  0.2751
 2398TIP3   OH228684   0.224   4.278  13.597  0.2308 -0.1481  0.5703
 2398TIP3    H128685   0.246   4.189  13.571  0.4285 -0.2132  0.9575
 2398TIP3    H228686   0.143   4.297  13.549  0.2407 -0.4971  0.4087
 2399TIP3   OH228687   1.803   5.029   2.467  0.2134  0.2986  0.0671
 2399TIP3    H128688   1.729   4.978   2.433 -0.6987  1.5837  0.0368
 2399TIP3    H228689   1.778   5.049   2.557  0.7653  0.3199  0.2159
 2400TIP3   OH228690   6.178   5.178  11.044  0.6200  0.2549  0.2803
 2400TIP3    H128691   6.188   5.160  11.137  3.3149  1.8492  0.3888
 2400TIP3    H228692   6.253   5.135  11.002  0.6475  1.3163 -0.8515
 2401TIP3   OH228693   2.468   0.591   1.158  0.4249  0.8024 -0.0170
 2401TIP3    H128694   2.424   0.676   1.165 -0.8557  0.1589 -0.0083
 2401TIP3    H228695   2.423   0.535   1.221 -0.2465 -0.4726 -1.5298
 2402TIP3   OH228696   2.742   2.027  16.472  0.2435  0.7562 -0.3925
 2402TIP3    H128697   2.773   1.943  16.438  0.7739  0.6808  0.2437
 2402TIP3    H228698   2.819   2.083  16.470  0.5466  0.4964  1.4415
 2403TIP3   OH228699   4.579   5.875  13.434 -0.0146 -0.1340  0.4833
 2403TIP3    H128700   4.546   5.960  13.406  1.0258 -0.2961 -1.4430
 2403TIP3    H228701   4.540   5.812  13.372  1.2428 -0.7029  0.2277
 2404TIP3   OH228702   2.088   5.235   1.382 -0.2231 -0.3715 -0.1940
 2404TIP3    H128703   2.028   5.187   1.440 -2.1709  1.7699 -0.2554
 2404TIP3    H228704   2.033   5.260   1.308  0.9054  1.1458 -0.5607
 2405TIP3   OH228705   4.822   0.660  16.838  0.6676  0.4687  0.1820
 2405TIP3    H128706   4.744   0.685  16.887 -0.0547  1.1163 -1.2576
 2405TIP3    H228707   4.874   0.609  16.901 -0.7309  0.3125  1.2590
 2406TIP3   OH228708   1.771   3.180   4.092 -0.3701 -0.1125  0.3555
 2406TIP3    H128709   1.760   3.233   4.013 -0.1736 -2.0436 -1.0197
 2406TIP3    H228710   1.682   3.167   4.125 -0.3829  1.5573  1.1075
 2407TIP3   OH228711   0.054   6.125   0.917 -0.1630  0.5342  0.3408
 2407TIP3    H128712  -0.038   6.154   0.919 -0.4837 -0.4742  1.1466
 2407TIP3    H228713   0.100   6.191   0.970 -0.4572  0.9132  0.1349
 2408TIP3   OH228714   3.444   2.796   3.646 -0.2446 -0.3314 -0.5745
 2408TIP3    H128715   3.461   2.705   3.674  0.9302  0.1206  0.2772
 2408TIP3    H228716   3.530   2.830   3.622 -0.7793  0.3613 -1.5612
 2409TIP3   OH228717   1.953   6.245   2.733 -0.2250 -0.2039  0.3675
 2409TIP3    H128718   1.868   6.255   2.776  0.5292 -0.7541  2.0565
 2409TIP3    H228719   2.016   6.286   2.792  0.6206  0.8979 -1.2352
 2410TIP3   OH228720   5.807   4.335  15.506  0.3723 -0.3090  0.5967
 2410TIP3    H128721   5.744   4.360  15.439 -1.5351 -0.8691  2.0752
 2410TIP3    H228722   5.890   4.325  15.459 -0.6696  0.2125 -1.4761
 2411TIP3   OH228723   1.972   4.325   1.264  0.5389  0.5651  0.3638
 2411TIP3    H128724   1.954   4.413   1.232 -1.0842 -0.8172 -3.1465
 2411TIP3    H228725   1.885   4.286   1.278  1.2051 -0.5715  1.5813
 2412TIP3   OH228726   6.139   0.956   3.100  0.1028 -0.3866  0.3245
 2412TIP3    H128727   6.082   0.989   3.169 -1.9972 -0.5647 -1.2303
 2412TIP3    H228728   6.148   0.863   3.118 -1.1038 -0.5918 -0.0623
 2413TIP3   OH228729   3.391   3.071   4.482 -0.3325  0.4312  0.1328
 2413TIP3    H128730   3.482   3.055   4.506 -0.4428 -0.6395 -0.1168
 2413TIP3    H228731   3.396   3.110   4.394 -0.0405  2.3639  0.9447
 2414TIP3   OH228732   3.750   0.840   4.544  0.2286  0.1392 -0.0856
 2414TIP3    H128733   3.790   0.754   4.531  1.2558  0.2213  2.0823
 2414TIP3    H228734   3.795   0.876   4.620  0.0314  2.7527 -1.0987
 2415TIP3   OH228735   5.173   6.381  12.032  0.4942 -0.0983  0.2639
 2415TIP3    H128736   5.153   6.288  12.034  0.8871 -0.1741  1.0464
 2415TIP3    H228737   5.129   6.414  11.954  1.3291 -1.1483 -0.6657
 2416TIP3   OH228738   2.635   2.198   5.102  0.3258 -0.6312 -0.0970
 2416TIP3    H128739   2.714   2.209   5.155  0.4979 -0.6644 -0.3430
 2416TIP3    H228740   2.569   2.166   5.163 -0.4756  2.5127  0.8652
 2417TIP3   OH228741   4.097   3.618  14.804 -0.5324  0.2691 -0.6223
 2417TIP3    H128742   4.044   3.542  14.781  0.2811 -0.5248  0.0557
 2417TIP3    H228743   4.080   3.681  14.734 -0.3361 -0.9723 -1.8331
 2418TIP3   OH228744   4.475   0.284   5.819  0.1455  0.0272  0.2412
 2418TIP3    H128745   4.513   0.372   5.820  1.7514 -0.6290 -0.0478
 2418TIP3    H228746   4.545   0.228   5.852 -0.0925 -1.3993 -1.5511
 2419TIP3   OH228747   4.281   0.889  15.646  0.5817  0.0429  0.1023
 2419TIP3    H128748   4.367   0.850  15.660 -0.3689 -2.2541  0.0539
 2419TIP3    H228749   4.220   0.817  15.658 -1.4185  1.7660  0.8662
 2420TIP3   OH228750   5.016   6.563  14.151 -0.4364 -0.2614 -0.9281
 2420TIP3    H128751   4.951   6.633  14.162 -1.2028 -1.1821  0.5647
 2420TIP3    H228752   5.097   6.599  14.187 -0.6732  0.0658 -0.7253
 2421TIP3   OH228753   5.360   4.090   4.019  0.6485  0.2221 -0.4355
 2421TIP3    H128754   5.351   4.085   4.114 -1.7701  1.9362 -0.4853
 2421TIP3    H228755   5.429   4.154   4.005  1.6139 -0.6632  0.1312
 2422TIP3   OH228756   1.792   0.758  15.641  0.1322  0.1257  0.1985
 2422TIP3    H128757   1.735   0.684  15.665  0.0040  0.0665 -0.2748
 2422TIP3    H228758   1.774   0.773  15.549  0.5308  0.4281  0.1668
 2423TIP3   OH228759   6.180   6.411   4.319 -0.5617  0.0874 -0.1491
 2423TIP3    H128760   6.115   6.401   4.388 -0.0662 -2.9471  0.0486
 2423TIP3    H228761   6.245   6.343   4.338  0.6068  0.4500 -2.5003
 2424TIP3   OH228762   1.300   3.044   0.302 -0.0056  0.1702  0.2132
 2424TIP3    H128763   1.387   3.045   0.263 -0.0827  1.3538  0.0542
 2424TIP3    H228764   1.293   2.956   0.341  1.5631  0.3145  0.9162
 2425TIP3   OH228765   0.138   2.323   1.713 -0.3676 -0.3530  0.4419
 2425TIP3    H128766   0.063   2.381   1.697 -0.0049  0.0293  0.1161
 2425TIP3    H228767   0.196   2.373   1.771 -0.7336 -0.9613  1.3671
 2426TIP3   OH228768   1.006   1.508  14.802  0.6130  0.1499  0.2457
 2426TIP3    H128769   1.015   1.467  14.888  1.0113  0.4436  0.3467
 2426TIP3    H228770   1.087   1.488  14.757  0.5233  0.2403  0.0439
 2427TIP3   OH228771   4.845   2.320  16.299  0.7184  0.0017 -0.3108
 2427TIP3    H128772   4.777   2.383  16.273  0.6612 -0.1187 -0.4551
 2427TIP3    H228773   4.898   2.309  16.221  0.5564 -0.3506 -0.3759
 2428TIP3   OH228774   6.199   6.807  15.290 -0.6277  0.1209  0.8192
 2428TIP3    H128775   6.184   6.786  15.198 -1.1719 -0.2917  0.9956
 2428TIP3    H228776   6.179   6.725  15.337  3.6150 -1.0597  0.9881
 2429TIP3   OH228777   6.359   0.214  16.023 -0.3263  0.0005  0.1064
 2429TIP3    H128778   6.432   0.154  16.008 -0.5947 -0.4840  0.7130
 2429TIP3    H228779   6.354   0.266  15.942  0.3016 -0.3663 -0.1777
 2430TIP3   OH228780   3.181   2.517   2.663 -0.3546  0.4688 -0.0060
 2430TIP3    H128781   3.175   2.446   2.727  2.8758  0.3564  0.3716
 2430TIP3    H228782   3.150   2.595   2.710 -2.9351 -0.4408 -0.0854
 2431TIP3   OH228783   5.772   0.911  16.195 -0.0409  0.3185  0.1864
 2431TIP3    H128784   5.818   0.951  16.269  2.1712  0.9615 -1.4188
 2431TIP3    H228785   5.823   0.939  16.118 -0.7267 -2.3942 -1.3728
 2432TIP3   OH228786   6.304   3.979   4.324  0.0662  0.5244  0.3040
 2432TIP3    H128787   6.325   3.947   4.412  0.8924 -0.2096 -0.1514
 2432TIP3    H228788   6.370   3.939   4.267  0.6347  2.4033 -0.4163
 2433TIP3   OH228789   3.455   5.234   1.391 -0.0846  0.5415 -0.3657
 2433TIP3    H128790   3.482   5.259   1.479 -1.4608 -0.6178  0.4325
 2433TIP3    H228791   3.442   5.139   1.396 -1.4702  0.6464 -1.4316
 2434TIP3   OH228792   5.496   5.825  12.022 -0.4354  0.4143  0.2927
 2434TIP3    H128793   5.459   5.755  11.968  0.2690  1.0863 -1.1147
 2434TIP3    H228794   5.534   5.780  12.097 -1.5803 -0.5402  0.3200
 2435TIP3   OH228795   1.049   4.741  13.251  0.3908  0.4864 -0.7079
 2435TIP3    H128796   0.954   4.729  13.240  0.2879  1.1881 -0.6710
 2435TIP3    H228797   1.073   4.803  13.182  0.5204  1.5761  0.2816
 2436TIP3   OH228798   3.130   4.673   1.105 -0.5048 -0.0645  0.2166
 2436TIP3    H128799   3.106   4.664   1.013 -2.2978  1.2501  0.5018
 2436TIP3    H228800   3.158   4.585   1.131 -1.0459 -0.7190 -1.2823
 2437TIP3   OH228801   4.676   4.855   3.158 -0.1867 -0.1852 -0.2214
 2437TIP3    H128802   4.591   4.869   3.200  0.4536 -0.3148  1.1754
 2437TIP3    H228803   4.662   4.778   3.103 -0.4039 -1.7136  1.8274
 2438TIP3   OH228804   0.547   3.491   3.746 -0.5837 -0.5757 -0.6308
 2438TIP3    H128805   0.456   3.504   3.772 -0.2835  0.7398 -0.1426
 2438TIP3    H228806   0.550   3.520   3.655 -0.6382 -0.5357 -0.6201
 2439TIP3   OH228807   6.179   5.263   5.353 -0.4696  0.3361 -0.1350
 2439TIP3    H128808   6.198   5.230   5.441 -1.9274  1.0372  0.4869
 2439TIP3    H228809   6.171   5.185   5.299 -2.9953 -0.3993  1.1167
 2440TIP3   OH228810   4.615   1.162   0.158  0.6186 -0.0599 -0.1207
 2440TIP3    H128811   4.637   1.223   0.088  1.5375  0.2511  0.4165
 2440TIP3    H228812   4.602   1.218   0.235  0.7012 -0.4758  0.2013
 2441TIP3   OH228813   3.819   6.211  16.085  0.2859 -0.0486 -0.3973
 2441TIP3    H128814   3.744   6.270  16.088 -0.2444 -0.7370  0.4023
 2441TIP3    H228815   3.851   6.216  15.995 -0.5604  0.4495 -0.6768
 2442TIP3   OH228816   4.203   3.352   3.985  0.6845 -0.4501  0.0373
 2442TIP3    H128817   4.176   3.364   3.894 -0.7902 -0.7993  0.4005
 2442TIP3    H228818   4.210   3.440   4.020  0.2512 -0.3404 -0.1454
 2443TIP3   OH228819   6.671   6.144  15.980  0.4896  0.0766  0.8048
 2443TIP3    H128820   6.579   6.124  15.963 -0.0008  1.0610  2.1702
 2443TIP3    H228821   6.686   6.114  16.070  1.5948 -0.3706  0.4801
 2444TIP3   OH228822   0.756   3.137  11.286 -0.1791 -0.1894  0.2086
 2444TIP3    H128823   0.743   3.173  11.199  0.4660 -0.7024 -0.1079
 2444TIP3    H228824   0.696   3.063  11.291 -0.4120  0.0047  0.3021
 2445TIP3   OH228825   3.331   2.461  15.527  0.0533 -0.2061  0.0132
 2445TIP3    H128826   3.271   2.395  15.563 -1.4214  1.3890  0.5847
 2445TIP3    H228827   3.380   2.494  15.603  0.1707 -0.0200 -0.1409
 2446TIP3   OH228828   5.308   1.220  11.765  0.1336 -0.3062  0.0952
 2446TIP3    H128829   5.222   1.231  11.803 -0.3246 -0.9713 -0.6917
 2446TIP3    H228830   5.369   1.251  11.832 -0.6001 -1.8268  1.5402
 2447TIP3   OH228831   3.495   6.625  16.593  0.3098  0.4941  0.2312
 2447TIP3    H128832   3.550   6.552  16.567 -0.9071  0.4115 -2.4864
 2447TIP3    H228833   3.550   6.703  16.579  0.8276  0.2468  0.8554
 2448TIP3   OH228834   2.009   1.316   1.806  0.3059 -0.2754 -0.0783
 2448TIP3    H128835   1.935   1.261   1.832 -1.1031  1.5597 -0.0548
 2448TIP3    H228836   2.052   1.340   1.888  1.9466 -2.5649 -0.1581
 2449TIP3   OH228837   4.073   5.527  14.002 -0.0680  0.1591  0.2223
 2449TIP3    H128838   4.078   5.559  13.912  0.4203 -0.4221  0.0348
 2449TIP3    H228839   4.051   5.604  14.054  0.6262  0.7010 -0.2762
 2450TIP3   OH228840   1.472   0.391  12.738  0.4799 -0.8128 -0.6187
 2450TIP3    H128841   1.489   0.467  12.794  0.9234 -2.2180  1.2424
 2450TIP3    H228842   1.548   0.387  12.680 -1.5658  2.8041 -4.1354
 2451TIP3   OH228843   4.376   3.582   0.684 -0.0326  0.5874 -0.1733
 2451TIP3    H128844   4.433   3.558   0.757 -0.0593 -0.4560 -0.4872
 2451TIP3    H228845   4.347   3.671   0.705 -1.4246 -0.2787  1.9850
 2452TIP3   OH228846   3.150   5.444   4.792 -0.2982 -0.1574  0.1687
 2452TIP3    H128847   3.066   5.409   4.822 -0.5061  0.3896  0.2521
 2452TIP3    H228848   3.178   5.385   4.723 -1.9572  1.0188 -1.5926
 2453TIP3   OH228849   5.231   2.110   3.048 -0.2163 -0.2962  0.5550
 2453TIP3    H128850   5.143   2.075   3.036 -0.0330 -0.7400  0.4717
 2453TIP3    H228851   5.238   2.124   3.142 -0.1221 -0.9591  0.6548
 2454TIP3   OH228852   4.582   4.951   1.322  0.7134  0.3247  0.8109
 2454TIP3    H128853   4.650   4.955   1.389  0.5922  0.8546  0.9066
 2454TIP3    H228854   4.503   4.982   1.366  0.3267 -0.5977  0.7910
 2455TIP3   OH228855   3.029   1.125   0.904 -0.3314 -0.0338  0.3161
 2455TIP3    H128856   2.936   1.103   0.896  0.0477 -2.0494  0.9596
 2455TIP3    H228857   3.073   1.068   0.840  0.3489  2.2648 -1.3976
 2456TIP3   OH228858   0.199   4.057  14.610  0.0145  0.4372 -0.3205
 2456TIP3    H128859   0.170   4.101  14.530 -0.4558  1.0552  0.1851
 2456TIP3    H228860   0.210   4.127  14.674  2.1558  0.1626 -0.3345
 2457TIP3   OH228861   3.849   5.011   2.375  0.6206  0.4983  0.6336
 2457TIP3    H128862   3.795   5.023   2.297 -1.2600 -1.9152  1.4646
 2457TIP3    H228863   3.838   5.093   2.424  1.7451  2.0123 -1.4765
 2458TIP3   OH228864   1.521   3.812   5.422 -0.2675 -0.0941 -0.4431
 2458TIP3    H128865   1.476   3.729   5.414 -0.9816  0.1571  0.8107
 2458TIP3    H228866   1.513   3.852   5.335  0.0974 -1.3170 -1.0606
 2459TIP3   OH228867   2.230   4.320   5.223 -0.1117  0.2249 -0.0647
 2459TIP3    H128868   2.225   4.358   5.135  2.4374 -0.4410 -0.5810
 2459TIP3    H228869   2.156   4.260   5.227 -0.3816  0.3855 -1.7028
 2460TIP3   OH228870   1.894   5.412   1.233 -0.3147  0.0419 -0.2898
 2460TIP3    H128871   1.895   5.453   1.319  0.6163 -0.4072 -0.0662
 2460TIP3    H228872   1.915   5.483   1.172 -0.5949  0.2840 -0.1017
 2461TIP3   OH228873   1.506   0.112  12.270 -0.0480  0.1510 -0.0706
 2461TIP3    H128874   1.494   0.099  12.176  1.8389 -1.8419 -0.1077
 2461TIP3    H228875   1.546   0.199  12.278  0.0024  0.2362 -1.1260
 2462TIP3   OH228876   4.506   3.491   1.866 -0.1202  0.0825 -0.0302
 2462TIP3    H128877   4.570   3.558   1.842 -1.2890  1.0517 -0.5787
 2462TIP3    H228878   4.432   3.507   1.807 -0.5234 -1.5663 -0.0153
 2463TIP3   OH228879   0.777   5.040   0.938 -0.3978  0.0644 -0.2148
 2463TIP3    H128880   0.682   5.038   0.951 -0.5288 -1.9774 -1.0834
 2463TIP3    H228881   0.800   4.949   0.920  1.9923  0.1830  1.7282
 2464TIP3   OH228882   0.867   4.984   5.391 -0.1467  0.4412  0.3652
 2464TIP3    H128883   0.881   5.076   5.415 -1.9212  0.5356  1.2198
 2464TIP3    H228884   0.807   4.988   5.317 -1.6861 -0.0260  1.5374
 2465TIP3   OH228885   6.031   4.589   1.591  0.3370 -0.2467  0.3507
 2465TIP3    H128886   6.083   4.582   1.511  0.4527  0.1926  0.3825
 2465TIP3    H228887   5.942   4.567   1.564  0.2315  0.6673 -0.0720
 2466TIP3   OH228888   4.211   4.081   3.490 -0.2377  0.0735  0.3975
 2466TIP3    H128889   4.189   4.074   3.398  0.5557  0.1045  0.1963
 2466TIP3    H228890   4.127   4.075   3.536 -0.4467 -2.2524 -0.1697
 2467TIP3   OH228891   4.987   1.701   2.304  0.3437 -0.4820  0.0391
 2467TIP3    H128892   4.908   1.689   2.251  0.6215 -0.5906 -0.3625
 2467TIP3    H228893   4.972   1.648   2.382 -0.4920  0.4737  0.5377
 2468TIP3   OH228894   1.748   3.385  16.965 -0.2154 -0.1050  0.8103
 2468TIP3    H128895   1.753   3.446  16.891 -1.9832  0.2955  0.9851
 2468TIP3    H228896   1.786   3.434  17.038  0.8431 -0.2282  0.3663
 2469TIP3   OH228897   5.957   1.857   5.111 -0.3082  0.0802  0.5237
 2469TIP3    H128898   5.985   1.918   5.179  1.4478 -0.3238  0.2222
 2469TIP3    H228899   5.904   1.792   5.157 -0.2057  0.5189  1.2795
 2470TIP3   OH228900   5.463   6.070  11.879 -0.0987  0.0782 -0.1731
 2470TIP3    H128901   5.399   6.041  11.814  1.5582 -2.6368 -0.7411
 2470TIP3    H228902   5.461   6.002  11.946  0.5982  1.1402  0.9530
 2471TIP3   OH228903   5.218   1.316   6.357 -0.0632 -0.2778 -0.1729
 2471TIP3    H128904   5.236   1.272   6.440  0.9086 -0.0510 -0.2566
 2471TIP3    H228905   5.168   1.252   6.306  0.8902 -1.0892 -0.0967
 2472TIP3   OH228906   4.721   0.522  14.247 -0.0913 -0.4277 -0.4008
 2472TIP3    H128907   4.667   0.495  14.173 -2.5623  0.4581  0.9646
 2472TIP3    H228908   4.762   0.604  14.218 -0.4943 -0.4383 -1.0023
 2473TIP3   OH228909   0.962   6.675  12.903 -0.0153  0.2209 -0.4933
 2473TIP3    H128910   0.973   6.603  12.965  1.2657  0.4153 -0.4561
 2473TIP3    H228911   0.961   6.633  12.817  1.4319  0.1706 -0.5191
 2474TIP3   OH228912   0.169   0.934   1.848  0.5788 -0.7839 -0.5269
 2474TIP3    H128913   0.245   0.948   1.792  0.0070 -1.5046 -1.5003
 2474TIP3    H228914   0.155   0.840   1.847 -1.5832 -0.5166 -2.0754
 2475TIP3   OH228915   2.694   4.066   4.133 -0.1752  0.2892  0.1655
 2475TIP3    H128916   2.598   4.063   4.140 -0.1970 -0.5045 -0.4855
 2475TIP3    H228917   2.722   4.098   4.219 -0.8365 -2.7995  1.6536
 2476TIP3   OH228918   5.053   3.696  16.590  0.2347  0.1874  0.3070
 2476TIP3    H128919   5.097   3.624  16.545 -0.9642 -0.8029  0.6706
 2476TIP3    H228920   5.008   3.744  16.521  0.0209 -0.1565  0.2046
 2477TIP3   OH228921   5.903   5.567   0.334  0.1679  0.0092 -0.3161
 2477TIP3    H128922   5.815   5.601   0.314  0.0244 -0.5982 -0.7400
 2477TIP3    H228923   5.905   5.481   0.292  1.0436  0.1090 -0.4850
 2478TIP3   OH228924   1.113   5.864   6.010  0.3555  0.3830 -0.0993
 2478TIP3    H128925   1.157   5.853   6.093  1.1096 -0.2475 -0.5683
 2478TIP3    H228926   1.021   5.843   6.028  0.4609  0.5308  0.6208
 2479TIP3   OH228927   5.618   5.485   1.329  0.2434 -0.4506 -0.3132
 2479TIP3    H128928   5.646   5.575   1.340  0.6762 -0.6892  0.7156
 2479TIP3    H228929   5.551   5.472   1.397  1.1359 -1.2596  0.4602
 2480TIP3   OH228930   6.734   1.265  15.660  0.0126 -0.1420  0.2204
 2480TIP3    H128931   6.718   1.201  15.592 -0.0455  0.7179 -0.5994
 2480TIP3    H228932   6.760   1.214  15.737 -0.5759 -1.1576 -0.2469
 2481TIP3   OH228933   6.083   1.992   6.668 -0.0108 -0.4067  0.2494
 2481TIP3    H128934   6.128   2.068   6.705  0.6714  0.4706 -2.2242
 2481TIP3    H228935   6.075   1.931   6.742  1.5100  1.0965  1.7481
 2482TIP3   OH228936   3.118   4.432   4.397  0.2957  0.4278  0.4763
 2482TIP3    H128937   3.118   4.486   4.477 -0.9561 -3.7377  3.6137
 2482TIP3    H228938   3.025   4.422   4.374  0.4389 -0.8885  0.3946
 2483TIP3   OH228939   2.748   1.549  16.009  0.4543 -0.3677 -0.1991
 2483TIP3    H128940   2.800   1.617  16.051  1.0057 -0.6933 -0.3550
 2483TIP3    H228941   2.802   1.470  16.012 -1.0062 -1.3842  1.8747
 2484TIP3   OH228942   1.021   1.686   3.096  0.1133  0.0261 -0.0185
 2484TIP3    H128943   0.987   1.694   3.007  0.5907 -0.2753 -0.2339
 2484TIP3    H228944   1.001   1.770   3.138 -1.1804 -0.2540 -0.0289
 2485TIP3   OH228945   4.325   6.825   2.768 -0.1727  0.2028  0.1858
 2485TIP3    H128946   4.349   6.917   2.758 -1.5482  1.0520  3.3071
 2485TIP3    H228947   4.406   6.782   2.796  0.3435  0.5388 -0.7471
 2486TIP3   OH228948   0.470   3.221  16.051  0.2450 -0.2790  0.1126
 2486TIP3    H128949   0.385   3.184  16.072  1.1159 -2.0352  0.7056
 2486TIP3    H228950   0.533   3.170  16.102  1.6266  1.3730  0.1917
 2487TIP3   OH228951   6.034   5.246  15.756  0.5305 -0.5129 -0.1950
 2487TIP3    H128952   5.948   5.289  15.754  0.0816 -1.4053 -1.5736
 2487TIP3    H228953   6.022   5.166  15.705  1.8863 -1.2582  0.5840
 2488TIP3   OH228954   6.318   5.260  11.898  0.3043  0.4825  0.1850
 2488TIP3    H128955   6.312   5.353  11.877 -0.5345  0.3055 -0.4038
 2488TIP3    H228956   6.409   5.248  11.927  1.0449  1.1006 -1.6984
 2489TIP3   OH228957   5.805   3.736   5.487  0.6296  0.0134 -1.0445
 2489TIP3    H128958   5.878   3.776   5.440  0.9083  0.6283 -0.1190
 2489TIP3    H228959   5.846   3.688   5.558  0.1614  0.0451 -0.7468
 2490TIP3   OH228960   1.627   2.396   3.453  0.0693 -0.0591 -0.4194
 2490TIP3    H128961   1.682   2.397   3.374 -0.8032 -0.0090 -1.0342
 2490TIP3    H228962   1.596   2.306   3.460  0.7883 -0.2647  0.3412
 2491TIP3   OH228963   6.357   1.932   4.549  0.0333 -0.2813 -0.1158
 2491TIP3    H128964   6.271   1.975   4.545 -0.1641 -0.5386  1.1188
 2491TIP3    H228965   6.419   2.003   4.529 -0.3139  0.5252  1.5269
 2492TIP3   OH228966   5.333   0.604   4.083  0.3717  0.4410  0.2968
 2492TIP3    H128967   5.334   0.636   3.993 -1.5263 -0.3400 -0.0517
 2492TIP3    H228968   5.349   0.683   4.136 -1.5596  1.5588 -0.6471
 2493TIP3   OH228969   6.397   6.607  15.551 -0.5465  0.3056 -0.6242
 2493TIP3    H128970   6.354   6.524  15.570 -0.5713  0.6165  0.7592
 2493TIP3    H228971   6.416   6.603  15.457 -2.4288 -0.3669 -1.0177
 2494TIP3   OH228972   4.061   1.935  14.741 -0.1468 -0.3638  0.3001
 2494TIP3    H128973   4.061   2.030  14.740  2.2160 -0.2330 -2.7037
 2494TIP3    H228974   4.004   1.910  14.667 -0.2808 -1.2800  0.6919
 2495TIP3   OH228975   4.558   0.091  14.829 -0.1800  0.0428  0.0033
 2495TIP3    H128976   4.519   0.034  14.895 -0.2798  0.1323  0.0221
 2495TIP3    H228977   4.486   0.110  14.769 -0.4497  1.1041  0.6430
 2496TIP3   OH228978   1.050   6.670   1.792  0.3077  0.0011 -0.4618
 2496TIP3    H128979   0.989   6.735   1.757 -0.6794 -1.0915 -0.8606
 2496TIP3    H228980   1.107   6.650   1.718  0.2931  0.0582 -0.4890
 2497TIP3   OH228981   1.444   3.821   4.588 -0.0169  0.2853 -0.0630
 2497TIP3    H128982   1.507   3.750   4.574 -1.2172 -0.8874  0.2823
 2497TIP3    H228983   1.363   3.790   4.547 -0.6541  1.3337  0.3554
 2498TIP3   OH228984   3.265   3.055  13.495  0.0318  0.8524 -0.0764
 2498TIP3    H128985   3.257   3.128  13.434 -0.6751  0.0603 -0.9571
 2498TIP3    H228986   3.352   3.019  13.478 -0.2366  0.5150 -0.7744
 2499TIP3   OH228987   6.194   1.427  12.372 -0.1532 -0.3997  0.1325
 2499TIP3    H128988   6.269   1.368  12.379 -0.2261 -0.3211  1.7627
 2499TIP3    H228989   6.120   1.371  12.352  0.1558 -0.5832 -0.5404
 2500TIP3   OH228990   2.878   0.414  13.227 -0.2677 -0.4734  0.3921
 2500TIP3    H128991   2.853   0.347  13.163 -0.8633 -1.0935  1.2588
 2500TIP3    H228992   2.974   0.415  13.224 -0.2668  1.0391 -2.0500
 2501TIP3   OH228993   0.599   3.294  15.522 -0.6182 -0.8328  0.0223
 2501TIP3    H128994   0.685   3.258  15.547 -0.8422 -0.8005  0.8863
 2501TIP3    H228995   0.620   3.378  15.481 -0.1536 -1.4858 -1.1218
 2502TIP3   OH228996   5.820   1.821  13.409 -0.0661 -0.4012 -0.5861
 2502TIP3    H128997   5.892   1.819  13.346  0.1574  0.0477 -0.3479
 2502TIP3    H228998   5.768   1.897  13.384 -0.7331 -0.9867 -1.0453
 2503TIP3   OH228999   1.914   6.855  13.359  0.7486 -0.0608  0.3524
 2503TIP3    H129000   1.835   6.874  13.309  0.5807  1.1652  1.0566
 2503TIP3    H229001   1.983   6.847  13.293  0.4007  0.8090 -0.1248
 2504TIP3   OH229002   0.619   4.782   1.314  0.5968 -0.6154 -0.1329
 2504TIP3    H129003   0.626   4.823   1.400 -1.2780  1.3648 -0.8181
 2504TIP3    H229004   0.532   4.806   1.283  1.2076 -1.2569 -2.5829
 2505TIP3   OH229005   0.370   3.272  16.618 -0.2733 -0.3355 -0.0853
 2505TIP3    H129006   0.388   3.180  16.639  0.3110 -0.4953 -1.1998
 2505TIP3    H229007   0.434   3.321  16.669 -0.3373 -0.5666  0.2238
 2506TIP3   OH229008   3.500   6.676  10.610  0.7907  0.1560  0.2778
 2506TIP3    H129009   3.506   6.582  10.597 -1.1285  0.1873 -1.3853
 2506TIP3    H229010   3.431   6.704  10.551  0.1427  2.3891  1.9399
 2507TIP3   OH229011   0.618   3.491  16.122 -0.4991 -0.2766  0.1630
 2507TIP3    H129012   0.602   3.470  16.214 -1.2732  2.3323  0.7266
 2507TIP3    H229013   0.540   3.538  16.095  0.0828 -0.2687 -1.5912
 2508TIP3   OH229014   0.397   2.893   3.677  0.3567 -0.2477  0.2177
 2508TIP3    H129015   0.397   2.973   3.728 -0.7008 -0.3542  0.4131
 2508TIP3    H229016   0.439   2.828   3.734  1.3022  0.1764  0.0192
 2509TIP3   OH229017   6.536   5.263  11.058  0.0618 -0.1359 -0.7677
 2509TIP3    H129018   6.485   5.213  11.123 -1.6241  1.5212 -0.7193
 2509TIP3    H229019   6.476   5.273  10.984  0.4765  1.4845 -0.9094
 2510TIP3   OH229020   5.686   3.561   5.292  0.3478  0.1326 -0.1294
 2510TIP3    H129021   5.761   3.588   5.345 -1.8701  0.3490  3.1815
 2510TIP3    H229022   5.664   3.638   5.240  0.7595  1.0102  0.9625
 2511TIP3   OH229023   3.643   1.217   0.187  0.2302 -0.3941 -0.5866
 2511TIP3    H129024   3.636   1.300   0.233 -0.2576 -0.5486 -0.3782
 2511TIP3    H229025   3.557   1.205   0.146  0.8718  0.0955 -2.1590
 2512TIP3   OH229026   2.511   6.152   5.524 -0.3038  0.0034  0.4667
 2512TIP3    H129027   2.496   6.058   5.530 -1.6667  0.0183 -1.6517
 2512TIP3    H229028   2.490   6.185   5.611 -3.8018 -1.2126  0.2351
 2513TIP3   OH229029   6.594   4.470   6.117  0.1855  0.0692  0.3438
 2513TIP3    H129030   6.523   4.443   6.175 -0.3003 -0.6293 -0.5577
 2513TIP3    H229031   6.587   4.566   6.114 -0.4781  0.0297  0.5528
 2514TIP3   OH229032   2.787   3.273   4.525  0.0666 -0.1832  0.5199
 2514TIP3    H129033   2.768   3.310   4.439 -1.7194  1.6706  1.6137
 2514TIP3    H229034   2.869   3.315   4.551 -0.0254  0.2091  0.1981
 2515TIP3   OH229035   3.781   6.196   6.362 -0.2703  0.5328  0.1087
 2515TIP3    H129036   3.731   6.197   6.281 -1.4447  0.9229  0.8058
 2515TIP3    H229037   3.731   6.138   6.420  1.1995 -0.7092  0.1767
 2516TIP3   OH229038   1.258   0.759   4.334  0.0011 -0.5699 -0.2541
 2516TIP3    H129039   1.306   0.736   4.255  1.5181 -2.3803  1.1105
 2516TIP3    H229040   1.315   0.821   4.379 -0.8580  0.4594 -0.5313
 2517TIP3   OH229041   4.770   5.694  16.570 -0.1926 -0.0687 -0.0457
 2517TIP3    H129042   4.813   5.627  16.517 -2.5217 -0.9954 -0.9236
 2517TIP3    H229043   4.780   5.775  16.521 -0.2083 -0.4486 -0.6855
 2518TIP3   OH229044   2.938   6.521  11.925 -0.5570  0.3039 -0.2305
 2518TIP3    H129045   2.939   6.448  11.863  0.0746 -0.9019  1.1371
 2518TIP3    H229046   3.028   6.554  11.925 -0.6692  0.6195 -0.2941
 2519TIP3   OH229047   2.956   6.028  11.712  0.0063 -0.0315 -0.0145
 2519TIP3    H129048   3.049   6.011  11.694 -0.0102 -1.4167  1.0552
 2519TIP3    H229049   2.921   6.056  11.627  0.8676 -2.0327 -1.1138
 2520TIP3   OH229050   5.372   6.472  10.333 -0.2605  0.0334  0.6001
 2520TIP3    H129051   5.454   6.520  10.343 -0.5603  0.9318 -0.7705
 2520TIP3    H229052   5.397   6.388  10.296  0.2444 -0.7781  2.6831
 2521TIP3   OH229053   0.519   6.254  13.375  0.2011 -1.0339  0.2020
 2521TIP3    H129054   0.447   6.288  13.322 -0.2982 -0.3814  1.2705
 2521TIP3    H229055   0.596   6.302  13.345  0.0981 -1.3000 -0.5237
 2522TIP3   OH229056   6.738   1.931  15.837  0.3288 -0.2225 -0.2945
 2522TIP3    H129057   6.786   2.001  15.881  0.3879 -0.3726 -0.1219
 2522TIP3    H229058   6.746   1.855  15.895  1.0664 -0.6478 -0.9231
 2523TIP3   OH229059   5.823   2.684  15.146 -0.2573 -0.4750 -0.8311
 2523TIP3    H129060   5.833   2.767  15.193  1.8442 -1.2185  0.1834
 2523TIP3    H229061   5.841   2.706  15.054  0.2977  0.2099 -0.5694
 2524TIP3   OH229062   4.865   5.247  11.908  0.2883  0.7428 -0.8287
 2524TIP3    H129063   4.854   5.161  11.867 -0.8682  0.3866  0.1806
 2524TIP3    H229064   4.909   5.229  11.991 -2.3817  0.7337  0.6779
 2525TIP3   OH229065   1.129   0.170  12.036  0.2402  0.3272  0.2469
 2525TIP3    H129066   1.039   0.141  12.021 -0.5400  2.4960  0.3319
 2525TIP3    H229067   1.144   0.152  12.129 -0.1446  0.0409  0.2591
 2526TIP3   OH229068   1.841   2.211   3.408 -0.1122 -0.0941 -0.6046
 2526TIP3    H129069   1.923   2.260   3.408  0.8105 -1.5648 -1.5494
 2526TIP3    H229070   1.818   2.202   3.500  0.6398  0.5748 -0.3479
 2527TIP3   OH229071   2.225   2.888   5.798  0.0340 -0.2587 -0.5748
 2527TIP3    H129072   2.149   2.940   5.825 -0.0702 -1.2777  1.2771
 2527TIP3    H229073   2.227   2.897   5.703 -0.1864  2.8035 -0.4173
 2528TIP3   OH229074   2.577   5.619  14.329  0.0613 -0.1242  0.7594
 2528TIP3    H129075   2.534   5.676  14.393 -0.1773  0.6758 -0.0878
 2528TIP3    H229076   2.590   5.675  14.253  1.3160 -0.7513  0.4850
 2529TIP3   OH229077   0.867   0.678   0.358  0.3680 -0.7807  0.6311
 2529TIP3    H129078   0.914   0.605   0.399 -0.1180 -0.8483  1.0717
 2529TIP3    H229079   0.936   0.742   0.338  0.7119 -1.0820  0.8345
 2530TIP3   OH229080   0.719   3.484  14.719 -0.0753 -0.0329 -0.0553
 2530TIP3    H129081   0.690   3.488  14.810  1.0310  1.6700  0.2562
 2530TIP3    H229082   0.646   3.441  14.673 -0.1062 -2.1501  1.7991
 2531TIP3   OH229083   5.950   6.548  11.708 -0.0987 -0.3672 -0.1379
 2531TIP3    H129084   6.035   6.505  11.707 -0.2163 -0.6388  0.6199
 2531TIP3    H229085   5.950   6.598  11.790 -0.4755  0.0160 -0.3731
 2532TIP3   OH229086   2.682   0.048   3.660 -0.4426  0.1404  0.2319
 2532TIP3    H129087   2.592   0.037   3.629  0.3794 -0.9386 -1.9652
 2532TIP3    H229088   2.677   0.120   3.723 -2.8475  0.0182  0.2712
 2533TIP3   OH229089   4.041   2.011   3.371 -0.0414 -0.2073 -0.4875
 2533TIP3    H129090   3.950   2.033   3.353 -0.0843 -0.8980 -1.1940
 2533TIP3    H229091   4.076   1.983   3.286  0.6043 -0.7308 -0.0622
 2534TIP3   OH229092   5.518   2.518   5.335 -0.2497  0.1750  0.0224
 2534TIP3    H129093   5.511   2.467   5.416  1.8527  1.4139  1.0578
 2534TIP3    H229094   5.468   2.468   5.271 -0.6328 -1.6859  1.6847
 2535TIP3   OH229095   2.175   0.962   0.276 -0.5094  0.3402 -0.6214
 2535TIP3    H129096   2.174   1.037   0.216  1.1743  0.8107 -0.1181
 2535TIP3    H229097   2.181   1.002   0.363  1.6789 -0.3403 -0.4056
 2536TIP3   OH229098   5.624   1.964   1.981 -0.3780 -0.0968  0.0534
 2536TIP3    H129099   5.611   1.959   2.076 -1.1135  1.0681  0.0274
 2536TIP3    H229100   5.572   1.892   1.946 -1.4460  0.4793  0.4252
 2537TIP3   OH229101   3.701   1.261  14.382  0.4087 -0.2473  0.3780
 2537TIP3    H129102   3.647   1.183  14.399  0.6953 -0.3326  0.9305
 2537TIP3    H229103   3.724   1.294  14.469 -2.2401  2.2689  0.2505
 2538TIP3   OH229104   2.015   2.097  12.778 -0.6170 -0.1243 -0.1417
 2538TIP3    H129105   2.043   2.032  12.713  0.1044 -0.3410  0.3840
 2538TIP3    H229106   2.063   2.074  12.857 -0.7988  0.7030  0.2110
 2539TIP3   OH229107   1.288   3.527  16.696  0.2618 -0.4147 -0.1416
 2539TIP3    H129108   1.339   3.592  16.647 -1.5466  0.2171 -1.2828
 2539TIP3    H229109   1.336   3.445  16.684  1.2250  0.2245 -0.8042
 2540TIP3   OH229110   6.264   3.114   3.630 -0.5265  0.3890 -0.4340
 2540TIP3    H129111   6.353   3.091   3.605 -0.3901  0.0229  0.3455
 2540TIP3    H229112   6.211   3.038   3.606 -0.3355 -0.1149  0.6847
 2541TIP3   OH229113   4.104   1.939  11.495  0.3753 -0.3164 -0.0912
 2541TIP3    H129114   4.033   1.917  11.556  1.0072 -0.9867  0.4282
 2541TIP3    H229115   4.136   2.023  11.525  0.2163 -0.3094  0.0622
 2542TIP3   OH229116   5.093   6.564  11.535 -0.1289 -0.2719  0.7371
 2542TIP3    H129117   5.144   6.612  11.470 -0.1857 -1.0463  0.1072
 2542TIP3    H229118   5.014   6.537  11.488 -2.8331  3.6432  2.4517
 2543TIP3   OH229119   3.845   2.075   0.711 -0.3418 -0.2312  0.3277
 2543TIP3    H129120   3.920   2.122   0.675 -0.3791  0.0373  0.5927
 2543TIP3    H229121   3.791   2.143   0.751 -0.1973 -0.5448  1.0670
 2544TIP3   OH229122   5.168   3.406   4.138 -0.2278  0.2600  0.2904
 2544TIP3    H129123   5.186   3.313   4.126  3.4929  0.9929 -1.1325
 2544TIP3    H229124   5.189   3.423   4.230  0.0561 -0.1281  0.2966
 2545TIP3   OH229125   6.277   2.700  16.543  0.1846  0.1054 -0.6316
 2545TIP3    H129126   6.302   2.792  16.534 -0.7530  0.5695  1.0371
 2545TIP3    H229127   6.322   2.656  16.472  0.0015  1.9807 -1.9879
 2546TIP3   OH229128   3.245   1.589   1.570 -0.1258 -0.3321 -0.7832
 2546TIP3    H129129   3.269   1.558   1.482 -0.3114 -0.0094 -0.9470
 2546TIP3    H229130   3.307   1.545   1.628  0.1560 -0.3543 -1.1000
 2547TIP3   OH229131   4.451   6.187   3.961  0.8502 -0.2293  0.0097
 2547TIP3    H129132   4.429   6.103   4.003 -0.4274 -0.7795 -1.6591
 2547TIP3    H229133   4.383   6.247   3.993  2.1598  0.4009  1.7428
 2548TIP3   OH229134   0.207   6.710   1.762  0.1958  0.7736 -0.4608
 2548TIP3    H129135   0.149   6.733   1.834  1.2071  1.0647  0.2810
 2548TIP3    H229136   0.216   6.615   1.769  1.0312  0.8997  0.3988
 2549TIP3   OH229137   5.889   2.856  15.340 -0.0165 -0.3751 -0.3993
 2549TIP3    H129138   5.859   2.945  15.321 -0.6642 -0.5190 -0.0815
 2549TIP3    H229139   5.979   2.867  15.372  0.7632 -0.0585 -2.5822
 2550TIP3   OH229140   3.494   4.552  11.159 -0.5429  0.4544  0.2922
 2550TIP3    H129141   3.418   4.508  11.198  0.5431 -1.6566  0.1502
 2550TIP3    H229142   3.540   4.591  11.233 -0.4552 -0.3977  0.6988
 2551TIP3   OH229143   3.857   4.739   2.387  0.3704 -0.1030 -0.1102
 2551TIP3    H129144   3.892   4.810   2.441  2.4902 -1.2011  0.0935
 2551TIP3    H229145   3.764   4.737   2.406  0.6797  1.0561  1.7363
 2552TIP3   OH229146   4.981   5.720  15.377 -0.2533 -0.5947 -0.3072
 2552TIP3    H129147   5.012   5.791  15.433 -0.4913 -2.4436  2.3604
 2552TIP3    H229148   5.049   5.712  15.310 -0.2756  2.1406 -0.7894
 2553TIP3   OH229149   1.097   4.899  12.876 -0.0194 -0.0680 -0.2014
 2553TIP3    H129150   1.092   4.956  12.952  0.5469  0.4667 -0.5511
 2553TIP3    H229151   1.121   4.813  12.911 -1.2933 -0.2193  0.3770
 2554TIP3   OH229152   6.541   0.692   1.802  0.1514  0.0747  0.1024
 2554TIP3    H129153   6.523   0.776   1.843  1.4577  0.2327  0.4041
 2554TIP3    H229154   6.543   0.711   1.708 -2.3436 -0.1938 -0.0566
 2555TIP3   OH229155   5.681   2.383   4.104 -0.4068  0.2615  0.3634
 2555TIP3    H129156   5.587   2.364   4.113 -0.4773 -0.9774 -2.2015
 2555TIP3    H229157   5.702   2.358   4.014  2.0829  1.9769  0.3819
 2556TIP3   OH229158   4.026   6.112   0.452 -0.1650 -0.0816 -0.0745
 2556TIP3    H129159   3.952   6.077   0.401 -0.1106 -0.2024 -0.0706
 2556TIP3    H229160   3.995   6.198   0.482 -0.6560 -0.5212  0.7002
 2557TIP3   OH229161   0.509   2.050  11.131 -0.4575 -0.1631 -0.0085
 2557TIP3    H129162   0.438   2.061  11.067 -1.3091 -0.8871  0.7679
 2557TIP3    H229163   0.522   1.955  11.135  0.7765 -0.0132 -0.3632
 2558TIP3   OH229164   6.647   4.823   5.674  0.1524 -0.2644 -0.2616
 2558TIP3    H129165   6.675   4.751   5.731 -2.1121  0.2008  1.5743
 2558TIP3    H229166   6.649   4.785   5.586  2.1453 -1.5239  0.2512
 2559TIP3   OH229167   0.192   2.972  12.701 -0.0489  0.6337 -0.1874
 2559TIP3    H129168   0.099   2.948  12.710 -0.1652  1.2732  0.3973
 2559TIP3    H229169   0.217   3.005  12.787 -0.0544  3.1458 -1.0559
 2560TIP3   OH229170   2.756   4.192   4.384 -0.6187  0.5768 -0.2636
 2560TIP3    H129171   2.820   4.210   4.453  0.7906  0.3196 -1.4659
 2560TIP3    H229172   2.694   4.130   4.424 -0.7982  1.7017  1.2757
 2561TIP3   OH229173   6.253   3.674  15.816 -0.0432 -0.5039 -0.1518
 2561TIP3    H129174   6.207   3.751  15.851  1.7355  0.7628 -0.4951
 2561TIP3    H229175   6.260   3.691  15.722 -1.5680 -2.1780 -0.6289
 2562TIP3   OH229176   1.839   5.653  11.083  0.3116 -0.3903  0.0414
 2562TIP3    H129177   1.824   5.704  11.163 -0.0795  0.9798 -0.8696
 2562TIP3    H229178   1.805   5.708  11.013  0.2108 -1.7718 -1.0357
 2563TIP3   OH229179   1.008   4.567   2.947  0.2565  0.1340 -0.0638
 2563TIP3    H129180   1.064   4.521   3.009 -0.9269 -1.8739 -0.3893
 2563TIP3    H229181   0.940   4.608   3.001  2.1630  3.0177  0.3849
 2564TIP3   OH229182   2.694   2.590  16.176 -0.4938  0.5640 -0.4074
 2564TIP3    H129183   2.687   2.631  16.262 -1.3849 -0.1885 -0.1036
 2564TIP3    H229184   2.739   2.507  16.193  4.4081  2.6555 -1.4637
 2565TIP3   OH229185   1.989   0.248  16.243  0.6619 -0.2591 -0.4976
 2565TIP3    H129186   2.026   0.164  16.268 -0.8714 -1.2459 -1.3767
 2565TIP3    H229187   1.931   0.271  16.316  0.4450 -0.3805 -0.6320
 2566TIP3   OH229188   2.687   2.832  16.783  0.5237 -0.4928  0.2198
 2566TIP3    H129189   2.702   2.926  16.787  2.2255 -0.6860 -0.7697
 2566TIP3    H229190   2.747   2.794  16.848 -0.4193 -0.8906  0.8855
 2567TIP3   OH229191   3.928   5.198   1.766 -0.0684  0.0506  0.3655
 2567TIP3    H129192   3.901   5.174   1.854 -1.2304  0.7268  0.2136
 2567TIP3    H229193   3.969   5.284   1.776 -0.4325  0.2413  0.2062
 2568TIP3   OH229194   0.085   1.362  15.340 -0.0834  0.7382 -0.1265
 2568TIP3    H129195   0.116   1.422  15.271  0.1281  1.2580  0.4129
 2568TIP3    H229196   0.031   1.298  15.293  1.8408 -0.2479 -1.1230
 2569TIP3   OH229197   4.092   0.606  11.264 -0.4342 -0.3967 -0.6030
 2569TIP3    H129198   4.014   0.655  11.240  0.0153  0.4601 -0.3688
 2569TIP3    H229199   4.135   0.660  11.330 -0.4658 -1.6153  0.4661
 2570TIP3   OH229200   0.821   3.713  16.606 -0.4600 -0.6468  0.6196
 2570TIP3    H129201   0.830   3.668  16.522 -1.0955 -0.8963  0.6756
 2570TIP3    H229202   0.881   3.666  16.664  1.1084  0.4672 -0.0429
 2571TIP3   OH229203   1.264   1.047   6.283  0.1269 -0.2412 -0.4713
 2571TIP3    H129204   1.221   1.052   6.368  2.3564 -1.6386  0.8503
 2571TIP3    H229205   1.289   1.137   6.262 -1.1316  0.2169 -0.0459
 2572TIP3   OH229206   1.185   3.753   5.790  0.0748  0.3621 -0.0832
 2572TIP3    H129207   1.161   3.843   5.813  0.3419 -0.0500  1.9665
 2572TIP3    H229208   1.162   3.701   5.866  1.1229 -1.1210 -0.7215
 2573TIP3   OH229209   6.711   3.704  11.580  0.7149  0.0334 -0.2475
 2573TIP3    H129210   6.781   3.735  11.638  0.4177 -1.0456  0.7225
 2573TIP3    H229211   6.659   3.645  11.635 -1.0660  0.9401 -0.8891
 2574TIP3   OH229212   5.082   5.452   5.467 -0.1785  0.1998 -0.1972
 2574TIP3    H129213   5.092   5.547   5.461  2.2503  0.0345  0.5115
 2574TIP3    H229214   5.101   5.431   5.558 -1.8049 -0.9050 -0.0597
 2575TIP3   OH229215   2.958   1.726   4.333  0.1050  0.0483  0.2608
 2575TIP3    H129216   2.927   1.717   4.243  1.9358  1.2529 -0.5458
 2575TIP3    H229217   2.983   1.638   4.359 -2.2075 -0.6588  0.3401
 2576TIP3   OH229218   2.681   5.827   5.233 -0.3032 -0.1347 -0.1767
 2576TIP3    H129219   2.648   5.904   5.186  0.1779 -0.8565 -1.7953
 2576TIP3    H229220   2.749   5.861   5.290 -0.7570  0.7641 -0.1455
 2577TIP3   OH229221   3.936   4.172   4.425 -0.2930  0.0840  0.2770
 2577TIP3    H129222   4.004   4.212   4.370 -0.7204  0.3303 -0.0771
 2577TIP3    H229223   3.981   4.100   4.469 -0.1559 -0.7232 -1.1216
 2578TIP3   OH229224   5.119   3.267   5.954  0.0584 -0.2381  0.1410
 2578TIP3    H129225   5.213   3.261   5.935  0.1829  1.5962 -0.0310
 2578TIP3    H229226   5.114   3.286   6.047 -0.0319  1.1533 -0.1199
 2579TIP3   OH229227   6.229   3.333   4.577  0.4048  0.5794  0.0114
 2579TIP3    H129228   6.261   3.265   4.637 -1.1341 -0.8824 -0.7684
 2579TIP3    H229229   6.298   3.341   4.511  0.7901  0.1133  0.3500
 2580TIP3   OH229230   3.071   3.447  13.209 -0.4822 -0.5779 -0.5094
 2580TIP3    H129231   3.065   3.536  13.174 -1.2617 -0.1346  0.6968
 2580TIP3    H229232   3.059   3.390  13.133 -0.6296  0.3490 -1.1919
 2581TIP3   OH229233   6.520   6.497   2.163 -0.0569 -0.0290 -0.6117
 2581TIP3    H129234   6.458   6.500   2.091 -0.9004  1.3816  0.1519
 2581TIP3    H229235   6.604   6.474   2.122 -0.8680 -1.0087 -1.7705
 2582TIP3   OH229236   0.681   2.874   5.507 -0.1717  0.4389 -0.0090
 2582TIP3    H129237   0.729   2.833   5.578  0.3978  1.1818  0.0366
 2582TIP3    H229238   0.742   2.936   5.469 -0.8732  0.9126 -0.3800
 2583TIP3   OH229239   4.838   1.242  12.264 -0.1940  0.0707 -0.2272
 2583TIP3    H129240   4.832   1.195  12.180 -0.9972 -0.4414  0.1037
 2583TIP3    H229241   4.783   1.191  12.324  0.7166  0.1810  0.7357
 2584TIP3   OH229242   1.730   4.776  15.619  0.1883  0.3088  0.0009
 2584TIP3    H129243   1.752   4.742  15.532  0.7853  0.4193  0.1059
 2584TIP3    H229244   1.806   4.756  15.673 -0.6682 -0.8668  0.8194
 2585TIP3   OH229245   0.866   3.795   1.506 -0.2546  0.0547  0.1023
 2585TIP3    H129246   0.886   3.793   1.599  1.2794 -2.1990 -0.2029
 2585TIP3    H229247   0.947   3.767   1.463 -2.0168 -2.8751 -1.6442
 2586TIP3   OH229248   1.049   6.406   3.650  0.1058 -0.2830 -0.1999
 2586TIP3    H129249   1.016   6.496   3.655 -1.3765 -0.8492  1.2214
 2586TIP3    H229250   1.144   6.415   3.657 -0.0570  1.1442  0.8476
 2587TIP3   OH229251   4.394   0.033   4.770 -0.1697 -0.3304  0.7682
 2587TIP3    H129252   4.421  -0.014   4.691 -1.3032 -1.3564  0.9638
 2587TIP3    H229253   4.445   0.114   4.768 -1.0768  0.2821 -1.6895
 2588TIP3   OH229254   1.349   6.450  10.712 -0.1598 -0.1402  0.2730
 2588TIP3    H129255   1.323   6.460  10.620  0.7820  0.2919  0.0379
 2588TIP3    H229256   1.271   6.417  10.756 -0.9516  0.6704 -0.4836
 2589TIP3   OH229257   3.982   5.033   0.417  0.3386 -0.0065  0.3617
 2589TIP3    H129258   3.964   4.965   0.353 -2.2272 -1.4991  2.4650
 2589TIP3    H229259   4.076   5.050   0.408  0.4460 -1.4372 -2.4396
 2590TIP3   OH229260   4.656   5.280   3.740 -0.0962  0.5393 -0.0860
 2590TIP3    H129261   4.744   5.242   3.743  0.2838  1.4843  1.9036
 2590TIP3    H229262   4.616   5.240   3.662  0.2896 -3.8533  1.6813
 2591TIP3   OH229263   5.793   1.873   3.033 -0.1310 -0.0261 -0.3149
 2591TIP3    H129264   5.727   1.827   3.084 -0.3503  0.0748 -0.5037
 2591TIP3    H229265   5.857   1.806   3.010  0.4997  0.1220  0.9374
 2592TIP3   OH229266   1.528   5.457   3.609 -0.0612 -0.2230 -0.5883
 2592TIP3    H129267   1.582   5.483   3.684 -1.4580 -2.1034  1.2009
 2592TIP3    H229268   1.551   5.366   3.593 -3.6711 -1.6912  1.3786
 2593TIP3   OH229269   3.239   3.238   1.559  0.9511  0.5032  0.1904
 2593TIP3    H129270   3.297   3.311   1.536  2.9358 -1.1099 -0.2165
 2593TIP3    H229271   3.298   3.169   1.588 -0.9667 -0.4251  2.1831
 2594TIP3   OH229272   1.064   1.884  10.390  0.3824  0.0705  0.0930
 2594TIP3    H129273   1.003   1.843  10.329  0.4803 -0.0632  0.0825
 2594TIP3    H229274   1.011   1.944  10.442  0.1623 -0.3427  0.3563
 2595TIP3   OH229275   1.737   1.957  14.308 -0.0478 -0.1127  0.1038
 2595TIP3    H129276   1.687   2.011  14.369  2.5966  0.4456  1.9640
 2595TIP3    H229277   1.792   2.019  14.260  2.7735 -0.8912  2.0216
 2596TIP3   OH229278   0.302   0.109   0.312 -0.0640 -1.0043 -0.1121
 2596TIP3    H129279   0.380   0.078   0.265  0.9481  2.4041 -0.9652
 2596TIP3    H229280   0.257   0.165   0.249 -0.0964  1.5992  2.0540
 2597TIP3   OH229281   3.529   5.864   5.635 -0.0777  0.1423 -0.0566
 2597TIP3    H129282   3.548   5.809   5.712  1.0331  1.9037  1.0028
 2597TIP3    H229283   3.603   5.847   5.576  0.6433  0.9623  0.5747
 2598TIP3   OH229284   2.582   1.043  10.529 -0.3024 -0.3182 -0.4029
 2598TIP3    H129285   2.503   1.084  10.565 -0.0004 -1.0435  1.1598
 2598TIP3    H229286   2.647   1.051  10.599  1.5189  1.5728 -2.1733
 2599TIP3   OH229287   4.035   3.835  16.216 -0.3375  0.0339  0.3254
 2599TIP3    H129288   3.954   3.789  16.191  0.8742 -1.1689 -1.6225
 2599TIP3    H229289   4.089   3.832  16.138  1.0299  2.1565  1.1316
 2600TIP3   OH229290   6.362   4.818   5.437 -0.3002 -0.4619  0.1058
 2600TIP3    H129291   6.293   4.795   5.375  0.1477  0.5286 -0.7930
 2600TIP3    H229292   6.436   4.845   5.382  0.0612  0.6110  1.0661
 2601TIP3   OH229293   1.177   6.169   1.146 -0.2435 -0.1031 -0.3717
 2601TIP3    H129294   1.127   6.228   1.090  1.9471  1.2386 -1.0717
 2601TIP3    H229295   1.254   6.147   1.093 -0.6039 -3.0187  0.1878
 2602TIP3   OH229296   4.016   4.514   1.761 -0.2266  0.0320  0.1123
 2602TIP3    H129297   3.945   4.530   1.700  1.3256  0.2352 -1.7450
 2602TIP3    H229298   4.037   4.600   1.797 -1.3388 -0.1311  1.2327
 2603TIP3   OH229299   1.997   5.321  14.200 -0.0548  0.1415  0.2388
 2603TIP3    H129300   1.936   5.380  14.245  0.6033 -1.0805  2.9430
 2603TIP3    H229301   2.084   5.346  14.233  0.3699 -1.3775  0.3634
 2604TIP3   OH229302   3.105   3.355   4.811  0.3320  0.9105 -0.5305
 2604TIP3    H129303   3.154   3.290   4.760 -2.3847 -0.6927 -1.2663
 2604TIP3    H229304   3.062   3.304   4.880 -0.8131  2.1312 -0.3164
 2605TIP3   OH229305   1.297   3.331   3.737 -0.2684 -0.0268  0.2653
 2605TIP3    H129306   1.314   3.367   3.650  0.5623 -3.4559 -1.1718
 2605TIP3    H229307   1.206   3.301   3.734 -0.5059  0.5978  0.9158
 2606TIP3   OH229308   2.241   3.677   0.171  0.2113 -0.5508  0.4426
 2606TIP3    H129309   2.203   3.592   0.191  0.3109 -0.6479  0.2305
 2606TIP3    H229310   2.319   3.656   0.119 -0.0781 -0.3070 -0.0978
 2607TIP3   OH229311   4.781   5.709  10.580  0.0210 -0.6595  0.7436
 2607TIP3    H129312   4.800   5.745  10.666  0.3777  0.2881  0.2879
 2607TIP3    H229313   4.866   5.711  10.535 -0.3360 -0.2663  0.0696
 2608TIP3   OH229314   4.798   5.744  14.061  0.2934  0.3604  0.1604
 2608TIP3    H129315   4.751   5.823  14.035  0.9357  1.4927  2.1927
 2608TIP3    H229316   4.754   5.715  14.141 -0.5650 -1.9845 -1.0552
 2609TIP3   OH229317   2.144   6.173  13.094 -1.0808 -0.3018 -0.4577
 2609TIP3    H129318   2.183   6.212  13.173  0.0628 -0.1215 -1.0850
 2609TIP3    H229319   2.117   6.086  13.122  0.6309 -0.7934 -0.1883
 2610TIP3   OH229320   2.523   5.563   3.494 -0.2812  0.5876 -0.5041
 2610TIP3    H129321   2.527   5.623   3.568 -1.5063 -0.4828  0.5050
 2610TIP3    H229322   2.588   5.595   3.432 -0.0865  2.2362  0.5028
 2611TIP3   OH229323   0.830   5.725  13.814  0.4600 -0.0024  0.5505
 2611TIP3    H129324   0.833   5.661  13.742  0.7513 -0.8552  1.3071
 2611TIP3    H229325   0.821   5.810  13.770 -0.3082 -0.5805 -0.4684
 2612TIP3   OH229326   4.250   4.944  13.348  0.4599  0.1133 -0.7815
 2612TIP3    H129327   4.269   5.013  13.284 -0.6605 -0.2963 -1.5774
 2612TIP3    H229328   4.277   4.863  13.304  0.4485 -0.0919 -0.4123
 2613TIP3   OH229329   6.145   2.575   4.857 -0.4817  0.0609  0.6513
 2613TIP3    H129330   6.131   2.651   4.799 -0.3353  0.7474  1.4948
 2613TIP3    H229331   6.135   2.611   4.945  1.8690 -0.4042  1.1510
 2614TIP3   OH229332   5.355   0.989   0.914  0.4648  0.8591  0.0266
 2614TIP3    H129333   5.408   1.065   0.892  0.5622  0.6555 -0.4638
 2614TIP3    H229334   5.336   0.948   0.829 -0.7368  1.1050  0.1700
 2615TIP3   OH229335   1.454   4.592  11.582 -0.2437 -0.6050  0.7949
 2615TIP3    H129336   1.370   4.635  11.595  0.5292  0.8652  1.1918
 2615TIP3    H229337   1.463   4.586  11.487 -0.5817 -0.3230  0.7437
 2616TIP3   OH229338   0.054   2.873   5.223 -0.1969 -0.3156 -0.3615
 2616TIP3    H129339  -0.039   2.870   5.245  0.0578  0.5112  0.9093
 2616TIP3    H229340   0.080   2.963   5.240  1.3380 -1.0598  1.5179
 2617TIP3   OH229341   6.141   3.825  16.056 -0.0346  0.5093 -0.2093
 2617TIP3    H129342   6.236   3.821  16.045  0.0604 -2.6238  0.8202
 2617TIP3    H229343   6.128   3.893  16.122  1.4569  1.1161 -0.4876
 2618TIP3   OH229344   5.470   1.239   0.848 -0.0606 -0.2950 -0.2347
 2618TIP3    H129345   5.533   1.261   0.917 -1.8278 -0.0867  1.3868
 2618TIP3    H229346   5.484   1.306   0.781  0.8654  0.2446  0.4700
 2619TIP3   OH229347   5.770   2.437  15.036  0.2277 -0.0827  0.3746
 2619TIP3    H129348   5.805   2.526  15.039  1.1679 -0.4560  1.5506
 2619TIP3    H229349   5.686   2.446  14.992  0.4089  1.3549  0.2618
 2620TIP3   OH229350   2.858   2.891   3.706  0.4319  0.8073 -0.5735
 2620TIP3    H129351   2.861   2.845   3.790  2.6736 -0.0852 -1.0580
 2620TIP3    H229352   2.942   2.936   3.700  0.3689  0.7604 -2.3773
 2621TIP3   OH229353   1.123   6.151  14.827 -0.2066  0.2950 -0.6937
 2621TIP3    H129354   1.034   6.167  14.794  0.0262  1.3610 -0.8383
 2621TIP3    H229355   1.118   6.064  14.866 -1.0392 -0.1007 -1.6373
 2622TIP3   OH229356   5.134   2.798  13.080  0.0983  0.2975  0.4559
 2622TIP3    H129357   5.142   2.742  13.157  2.3526  0.3289  0.3029
 2622TIP3    H229358   5.169   2.882  13.108 -1.0490  0.9586 -0.0150
 2623TIP3   OH229359   4.168   3.173  15.971 -0.9879  0.1767  0.0695
 2623TIP3    H129360   4.176   3.179  15.876  0.3835  0.4421  0.1868
 2623TIP3    H229361   4.108   3.244  15.994 -1.5428 -0.0558 -0.6111
 2624TIP3   OH229362   4.809   2.763  11.873 -0.1892 -0.1774  0.0085
 2624TIP3    H129363   4.722   2.748  11.837 -0.4856 -0.3607  0.8076
 2624TIP3    H229364   4.797   2.765  11.967  0.4676  1.0957  0.0965
 2625TIP3   OH229365   6.183   0.327   3.284 -0.1682 -0.5312 -0.1471
 2625TIP3    H129366   6.097   0.327   3.327 -0.3842 -2.4422 -0.4900
 2625TIP3    H229367   6.198   0.235   3.261  2.1493 -0.3011  0.2477
 2626TIP3   OH229368   1.745   1.035  15.729 -0.4470  0.6398 -0.1632
 2626TIP3    H129369   1.733   1.040  15.824 -1.3101  0.3974 -0.2502
 2626TIP3    H229370   1.778   0.946  15.714  2.0049  1.4356  0.1151
 2627TIP3   OH229371   2.002   3.023  15.954  0.0628 -0.5688  0.0134
 2627TIP3    H129372   1.946   3.100  15.938 -0.2534 -0.8877 -0.4269
 2627TIP3    H229373   2.091   3.058  15.953  0.1095 -0.5679 -2.6248
 2628TIP3   OH229374   6.534   5.001   3.023  0.2214 -0.5575  0.1688
 2628TIP3    H129375   6.558   4.915   2.990  1.2643 -0.1792 -0.1166
 2628TIP3    H229376   6.548   4.996   3.118  0.9881 -0.4985  0.0665
 2629TIP3   OH229377   2.723   2.125   6.025 -0.4633 -0.5107  0.0934
 2629TIP3    H129378   2.664   2.194   6.053  0.1262  0.1494 -0.2472
 2629TIP3    H229379   2.721   2.129   5.929 -2.6403 -2.8900 -0.0879
 2630TIP3   OH229380   2.013   0.917  11.655  0.5395 -0.0225  0.3655
 2630TIP3    H129381   2.053   0.873  11.580 -0.4134 -0.2352 -0.0364
 2630TIP3    H229382   1.921   0.928  11.630 -0.0836 -1.1817  1.9923
 2631TIP3   OH229383   4.923   0.703   4.081 -0.2416 -0.0073  0.3360
 2631TIP3    H129384   5.013   0.729   4.059 -0.4959  2.7327  2.0332
 2631TIP3    H229385   4.873   0.722   4.002  0.6335 -1.7991 -0.7194
 2632TIP3   OH229386   0.413   5.723   1.725  0.7416  0.2090  0.2457
 2632TIP3    H129387   0.375   5.786   1.664  0.7053  0.4134  0.4769
 2632TIP3    H229388   0.472   5.670   1.671 -0.1793 -0.3890 -0.1969
 2633TIP3   OH229389   3.320   1.979  15.009 -0.8328  0.6996 -0.4384
 2633TIP3    H129390   3.315   2.065  14.967  4.0154  0.5780 -1.8569
 2633TIP3    H229391   3.371   1.995  15.089  0.6692 -0.8615 -1.0253
 2634TIP3   OH229392   4.674   6.424  11.247  0.0717  0.5902 -0.0903
 2634TIP3    H129393   4.603   6.365  11.224  0.8236  0.7818 -3.4186
 2634TIP3    H229394   4.631   6.506  11.270 -0.8640  0.5336 -1.5157
 2635TIP3   OH229395   6.636   3.596  16.840  0.4657 -0.1682  0.1708
 2635TIP3    H129396   6.655   3.569  16.751  0.1406  1.5086 -0.4548
 2635TIP3    H229397   6.715   3.642  16.869  0.4368 -0.3937  0.6159
 2636TIP3   OH229398   3.057   1.856  12.171  0.3251 -0.1759  0.2220
 2636TIP3    H129399   3.145   1.852  12.134  0.0028 -1.3507 -0.4585
 2636TIP3    H229400   3.003   1.891  12.101  0.3997  1.5409  0.9816
 2637TIP3   OH229401   4.374   6.190   2.673 -0.4985 -0.1016 -0.5138
 2637TIP3    H129402   4.303   6.126   2.669  0.3969 -1.1427 -0.0569
 2637TIP3    H229403   4.341   6.265   2.622 -1.4307 -1.0352 -1.3232
 2638TIP3   OH229404   1.932   3.433  13.565  0.2707 -0.1668  0.5120
 2638TIP3    H129405   1.959   3.507  13.511 -0.1831 -0.8274 -0.6390
 2638TIP3    H229406   1.841   3.417  13.542  0.2010 -0.7432  1.1449
 2639TIP3   OH229407   3.251   3.842  13.857 -0.3275 -0.1739  0.7023
 2639TIP3    H129408   3.179   3.800  13.905 -0.8437 -0.0240  0.0747
 2639TIP3    H229409   3.287   3.772  13.802 -0.9680  0.1025 -0.0909
 2640TIP3   OH229410   4.398   1.994   1.040 -0.1987  0.0415  0.5220
 2640TIP3    H129411   4.453   1.968   1.114  0.2090 -1.2250 -0.1935
 2640TIP3    H229412   4.426   1.938   0.969 -1.3599  0.4664 -0.2975
 2641TIP3   OH229413   2.360   5.810   2.173  0.1224  0.2795 -0.1703
 2641TIP3    H129414   2.357   5.869   2.097 -0.0935 -0.7815 -1.0081
 2641TIP3    H229415   2.445   5.827   2.213 -0.6424  2.4242  0.6611
 2642TIP3   OH229416   5.331   3.834  11.577  0.4447  0.1268  0.2796
 2642TIP3    H129417   5.390   3.853  11.504  1.7460 -2.1247  0.6569
 2642TIP3    H229418   5.376   3.868  11.654  0.3926  0.0179  0.3584
 2643TIP3   OH229419   3.022   2.220  12.921 -0.2424 -0.5584 -0.2596
 2643TIP3    H129420   3.037   2.169  12.841  2.3940  2.3714 -1.8422
 2643TIP3    H229421   3.068   2.170  12.989 -0.9875 -2.1924 -0.9015
 2644TIP3   OH229422   5.041   3.668  13.031 -0.0522 -0.4048 -0.4515
 2644TIP3    H129423   5.131   3.690  13.011 -0.1704  0.3306 -0.2093
 2644TIP3    H229424   5.047   3.591  13.088  0.5321  0.8434  1.2430
 2645TIP3   OH229425   1.624   4.728  14.045 -0.2106 -0.4340 -1.2029
 2645TIP3    H129426   1.655   4.779  14.120  1.0917 -3.1052  0.2119
 2645TIP3    H229427   1.695   4.733  13.981 -0.4762  0.2412 -1.4498
 2646TIP3   OH229428   0.021   1.596  14.533  0.3473 -0.7084  1.2957
 2646TIP3    H129429   0.030   1.512  14.579 -1.4697 -0.6241  1.8830
 2646TIP3    H229430   0.024   1.662  14.603  0.1830 -0.3999  1.0129
 2647TIP3   OH229431   6.034   5.390  14.890 -0.0242 -0.0178 -0.1924
 2647TIP3    H129432   5.956   5.336  14.882 -0.0070  0.0315 -0.7671
 2647TIP3    H229433   6.099   5.332  14.929  0.4450 -0.9141 -2.1860
 2648TIP3   OH229434   4.655   1.618   6.113 -0.4291  0.0805 -0.1394
 2648TIP3    H129435   4.644   1.527   6.139  2.4968  0.0332  1.2759
 2648TIP3    H229436   4.646   1.668   6.194 -0.6933  0.9340 -0.6796
 2649TIP3   OH229437   0.970   1.829   1.594  0.8780 -0.3511  0.1161
 2649TIP3    H129438   1.003   1.823   1.683  0.4088  0.9103  0.4031
 2649TIP3    H229439   1.010   1.909   1.559  0.0033 -0.0894 -0.3239
 2650TIP3   OH229440   6.313   5.122  16.223 -0.2359  0.2183  0.0459
 2650TIP3    H129441   6.220   5.135  16.209 -0.4965 -1.6315 -0.1182
 2650TIP3    H229442   6.355   5.189  16.168 -1.4382  0.9521 -0.0188
 2651TIP3   OH229443   4.457   3.915  16.679  0.1112  0.1210  0.2667
 2651TIP3    H129444   4.411   3.860  16.616 -0.6484  1.2956 -0.2301
 2651TIP3    H229445   4.417   3.893  16.763 -1.9466  1.5970 -0.2289
 2652TIP3   OH229446   0.051   6.750  11.367 -0.3471 -0.1529 -0.0082
 2652TIP3    H129447   0.090   6.807  11.300  0.6181  0.3858  0.9884
 2652TIP3    H229448  -0.023   6.709  11.322  1.1949 -1.0339 -1.9093
 2653TIP3   OH229449   3.090   3.149  12.483 -0.0606 -0.1182  0.5684
 2653TIP3    H129450   3.088   3.184  12.393 -1.1501 -1.0164  0.2314
 2653TIP3    H229451   3.170   3.186  12.520  1.6409 -1.4566 -1.4793
 2654TIP3   OH229452   6.215   0.118  15.708  0.1248 -0.2705  0.2970
 2654TIP3    H129453   6.238   0.204  15.674 -1.6284 -0.1086 -0.5881
 2654TIP3    H229454   6.257   0.057  15.647 -0.1304 -0.0164 -0.1363
 2655TIP3   OH229455   0.512   1.489   3.006  0.0254 -0.0501  0.4604
 2655TIP3    H129456   0.477   1.426   3.069 -1.0543  0.3639  0.2993
 2655TIP3    H229457   0.518   1.440   2.924 -1.7595  0.2567  0.0835
 2656TIP3   OH229458   2.390   4.866  15.886 -0.7050  0.5193  0.0740
 2656TIP3    H129459   2.406   4.791  15.943  1.6461  1.1267  0.3134
 2656TIP3    H229460   2.297   4.887  15.900 -0.4138  0.2617  3.2637
 2657TIP3   OH229461   5.923   6.127  12.922 -0.1254  0.5464  0.1884
 2657TIP3    H129462   5.997   6.149  12.865  0.6584 -0.6561  0.7197
 2657TIP3    H229463   5.850   6.115  12.861  0.4185  0.4647 -0.4674
 2658TIP3   OH229464   6.614   6.346  12.358 -0.5405  0.1676 -0.1137
 2658TIP3    H129465   6.661   6.370  12.278 -0.7229  2.0318  0.2898
 2658TIP3    H229466   6.583   6.257  12.342 -0.0511  0.2769 -1.8685
 2659TIP3   OH229467   2.193   2.618  14.051 -0.1087  0.1885 -0.1713
 2659TIP3    H129468   2.127   2.679  14.020 -1.2412 -1.9705 -2.2856
 2659TIP3    H229469   2.253   2.606  13.977  0.7275 -0.4186  0.5727
 2660TIP3   OH229470   4.531   2.323   3.864 -0.4119 -0.0252  0.1566
 2660TIP3    H129471   4.610   2.322   3.809 -0.3803  1.6442  0.1343
 2660TIP3    H229472   4.564   2.310   3.953 -0.0638  0.8726  0.1711
 2661TIP3   OH229473   2.363   0.946  14.278 -0.1896  0.2478 -0.0080
 2661TIP3    H129474   2.290   0.943  14.340  0.3944 -2.1976  0.6922
 2661TIP3    H229475   2.430   0.890  14.318  1.6844  1.5773 -1.1279
 2662TIP3   OH229476   1.661   2.810   0.316 -0.4208 -0.6115 -0.3333
 2662TIP3    H129477   1.749   2.783   0.289  0.0937  1.7008 -1.2105
 2662TIP3    H229478   1.641   2.886   0.261 -1.1573  1.5980  2.7269
 2663TIP3   OH229479   0.846   1.187  12.914  0.5907 -0.3108  0.0961
 2663TIP3    H129480   0.932   1.192  12.872  0.7022  0.4483  0.3888
 2663TIP3    H229481   0.840   1.268  12.965 -1.0328  0.5170 -1.3249
 2664TIP3   OH229482   2.037   5.105  16.131 -0.0932  0.1811  0.0918
 2664TIP3    H129483   2.103   5.048  16.092 -0.4401  0.2664 -0.6313
 2664TIP3    H229484   1.954   5.071  16.097 -0.3705  0.5003  0.4519
 2665TIP3   OH229485   3.851   0.633   5.697 -0.0715 -0.5803  0.2412
 2665TIP3    H129486   3.947   0.633   5.692 -0.0854  0.8553 -0.7676
 2665TIP3    H229487   3.831   0.702   5.759 -0.4607 -1.8573  1.5884
 2666TIP3   OH229488   5.368   1.084   3.650 -0.4020 -0.9431 -0.6412
 2666TIP3    H129489   5.347   1.098   3.557 -0.3783  0.7709 -0.4134
 2666TIP3    H229490   5.440   1.021   3.649  0.7553  0.3266 -1.8999
 2667TIP3   OH229491   2.105   4.641   1.818  0.1173  0.3257 -0.2200
 2667TIP3    H129492   2.122   4.733   1.841 -0.5138 -0.0411  1.8897
 2667TIP3    H229493   2.012   4.628   1.838  0.9090 -1.6175  2.9691
 2668TIP3   OH229494   3.449   3.804  11.230  0.8237  0.4169  0.0894
 2668TIP3    H129495   3.473   3.848  11.311 -0.0818 -2.1243  1.8752
 2668TIP3    H229496   3.457   3.871  11.163  0.7011  2.9047  2.3929
 2669TIP3   OH229497   5.357   6.746  13.710 -0.5155 -0.3920  0.1112
 2669TIP3    H129498   5.318   6.718  13.793 -0.6374  1.6106  0.7811
 2669TIP3    H229499   5.441   6.700  13.707 -1.5145 -2.3640  0.1331
 2670TIP3   OH229500   3.415   0.446  11.422  0.0349  0.3374 -0.4899
 2670TIP3    H129501   3.472   0.472  11.494  0.1921 -0.8416 -0.1719
 2670TIP3    H229502   3.341   0.507  11.427 -0.2100 -0.0530  1.0127
 2671TIP3   OH229503   6.221   2.009   3.521  0.0704  0.4670  0.2390
 2671TIP3    H129504   6.283   2.082   3.518 -0.6719  1.1018 -0.3919
 2671TIP3    H229505   6.229   1.968   3.435 -0.1173  0.3275  0.2886
 2672TIP3   OH229506   6.056   0.054  16.402 -0.3931 -0.0491  0.6327
 2672TIP3    H129507   6.091   0.068  16.314 -0.0893  1.6266  0.9907
 2672TIP3    H229508   6.083  -0.035  16.425  3.7229  1.0694  0.9058
 2673TIP3   OH229509   6.320   2.647   5.106 -0.3040 -0.1956  0.0128
 2673TIP3    H129510   6.373   2.595   5.046 -0.0681 -2.0313  1.7248
 2673TIP3    H229511   6.378   2.719   5.133  0.4960 -0.8259  0.0151
 2674TIP3   OH229512   0.379   1.021  13.241  0.0621  0.0078 -0.2577
 2674TIP3    H129513   0.449   0.959  13.219 -0.2797  0.0907 -1.6659
 2674TIP3    H229514   0.411   1.106  13.211 -0.3859  0.1533 -0.3289
 2675TIP3   OH229515   2.935   5.105   5.776 -0.0509  0.0470  0.2776
 2675TIP3    H129516   2.884   5.115   5.857 -1.8263  0.2728 -0.8215
 2675TIP3    H229517   3.019   5.146   5.796 -1.0515  1.6503  1.4820
 2676TIP3   OH229518   4.923   5.732  15.009  0.0923 -0.0871 -0.1067
 2676TIP3    H129519   4.848   5.732  15.069  0.4552  1.1433  0.3760
 2676TIP3    H229520   4.929   5.642  14.978 -1.1425 -0.3673  0.4023
 2677TIP3   OH229521   6.510   6.775   4.935  0.3900 -0.2467  0.4348
 2677TIP3    H129522   6.556   6.801   5.014 -0.5344 -0.0684  0.9267
 2677TIP3    H229523   6.428   6.736   4.967  0.0838 -0.3227 -0.4225
 2678TIP3   OH229524   1.210   5.478  14.339  0.0673 -0.7352  0.2549
 2678TIP3    H129525   1.275   5.507  14.402  1.3986 -1.8286 -0.5555
 2678TIP3    H229526   1.169   5.559  14.307  1.5388  0.0434  0.2564
 2679TIP3   OH229527   6.810   2.760  14.376  0.1445 -0.2818 -0.5615
 2679TIP3    H129528   6.817   2.734  14.468 -2.1809  1.8503  0.3267
 2679TIP3    H229529   6.763   2.688  14.334  0.3873 -0.8471  0.1181
 2680TIP3   OH229530   0.544   5.458   4.005  0.7167 -0.2396  0.1492
 2680TIP3    H129531   0.513   5.379   4.049  1.1378 -0.0426  0.8191
 2680TIP3    H229532   0.580   5.512   4.076  1.2410  0.1608 -0.4152
 2681TIP3   OH229533   4.465   3.010  15.826 -0.3666 -0.1161  0.6822
 2681TIP3    H129534   4.545   3.056  15.853 -0.9740  1.0392  0.5825
 2681TIP3    H229535   4.403   3.080  15.806 -1.1389 -0.9877 -0.0619
 2682TIP3   OH229536   6.633   4.958  10.911  0.1592 -0.4365  0.2321
 2682TIP3    H129537   6.681   5.033  10.877  0.4898  0.1228  1.8287
 2682TIP3    H229538   6.645   4.890  10.846  0.2557  0.7411 -1.0287
 2683TIP3   OH229539   2.882   4.479   0.870  0.3142  0.0771  0.0500
 2683TIP3    H129540   2.883   4.574   0.854  0.6785  0.0775  0.0749
 2683TIP3    H229541   2.874   4.440   0.783 -1.0315  0.1529  0.1203
 2684TIP3   OH229542   6.813   1.459   0.220 -0.5804  0.9097  0.6648
 2684TIP3    H129543   6.838   1.535   0.168 -0.7202  1.3108  1.1694
 2684TIP3    H229544   6.730   1.484   0.261 -0.0518  0.9460  1.7521
 2685TIP3   OH229545   4.365   1.029   3.999 -0.7469 -0.5810  0.1037
 2685TIP3    H129546   4.383   0.950   3.948  0.4999 -0.4148  0.2637
 2685TIP3    H229547   4.270   1.037   3.997 -0.7465 -0.1036 -2.9386
 2686TIP3   OH229548   6.396   4.548   3.213 -0.1702 -0.1670 -0.4019
 2686TIP3    H129549   6.351   4.534   3.296 -0.7004 -1.9493 -0.9452
 2686TIP3    H229550   6.477   4.498   3.222 -0.3794 -0.6300 -1.0670
 2687TIP3   OH229551   0.917   0.278  13.616 -0.1133  0.5152  0.4661
 2687TIP3    H129552   0.845   0.319  13.569 -1.5496  1.0445  2.9354
 2687TIP3    H229553   0.916   0.187  13.588 -0.8532  0.8229 -0.5356
 2688TIP3   OH229554   5.660   0.999  14.422 -0.2573  0.3023  0.5515
 2688TIP3    H129555   5.608   1.074  14.391  0.9212  0.8630 -0.1182
 2688TIP3    H229556   5.658   0.937  14.349  0.5826  0.6272  0.2429
 2689TIP3   OH229557   0.492   3.583  12.906 -0.0729  0.1630  0.1793
 2689TIP3    H129558   0.544   3.662  12.923 -0.3243  0.0420  1.6089
 2689TIP3    H229559   0.467   3.591  12.814  0.8833  1.1620 -0.0246
 2690TIP3   OH229560   0.091   1.161   4.794 -0.3710 -0.2394 -0.5109
 2690TIP3    H129561   0.125   1.247   4.772 -0.6994 -0.5208 -2.2239
 2690TIP3    H229562   0.158   1.100   4.765 -0.8206 -0.6267 -0.7598
 2691TIP3   OH229563   3.652   4.660   0.936  0.6596  0.4212 -0.1986
 2691TIP3    H129564   3.581   4.709   0.894 -0.0605 -0.7905 -0.4536
 2691TIP3    H229565   3.728   4.675   0.880  0.4520  1.2275 -0.2739
 2692TIP3   OH229566   6.721   0.127   2.252  0.7372  0.2838 -0.0191
 2692TIP3    H129567   6.765   0.172   2.179 -2.1903  3.4436 -0.0881
 2692TIP3    H229568   6.645   0.085   2.212  1.2528 -1.3950  0.6957
 2693TIP3   OH229569   5.237   3.123   0.894 -0.3825 -0.3504 -0.1282
 2693TIP3    H129570   5.197   3.039   0.872  0.9221 -1.7203  2.3039
 2693TIP3    H229571   5.328   3.114   0.868 -0.4822  0.7619 -0.8936
 2694TIP3   OH229572   3.838   4.699  16.011 -0.0110  0.5426 -0.0652
 2694TIP3    H129573   3.869   4.646  16.084 -1.4298 -0.3665 -0.0723
 2694TIP3    H229574   3.917   4.736  15.973  1.1883 -2.1656 -0.4951
 2695TIP3   OH229575   3.147   6.293  12.582  0.3554 -0.7865 -0.3669
 2695TIP3    H129576   3.196   6.375  12.587  1.6435 -1.4351 -1.9713
 2695TIP3    H229577   3.060   6.320  12.551  0.3224  0.1003  0.4158
 2696TIP3   OH229578   5.466   0.702   2.250  0.2560  0.0208 -0.4958
 2696TIP3    H129579   5.381   0.744   2.254 -0.5245 -1.1011 -3.0277
 2696TIP3    H229580   5.528   0.774   2.239 -0.3977  0.8016  0.7293
 2697TIP3   OH229581   4.443   2.511   5.618 -0.0099  0.5734  0.1884
 2697TIP3    H129582   4.414   2.602   5.611 -0.0462  0.5160 -0.4110
 2697TIP3    H229583   4.362   2.460   5.615 -0.0186  0.5355  0.8955
 2698TIP3   OH229584   3.023   3.242   1.979 -0.0805 -0.0183 -0.6912
 2698TIP3    H129585   3.030   3.177   1.909  0.9843 -0.8486  0.1570
 2698TIP3    H229586   3.112   3.275   1.991 -0.2467  0.1271  0.2412
 2699TIP3   OH229587   1.970   3.174  16.650 -0.2581 -0.0336 -0.6892
 2699TIP3    H129588   1.910   3.110  16.611  0.5726 -1.4607  0.2874
 2699TIP3    H229589   2.030   3.196  16.579 -0.3345 -0.6045 -0.9401
 2700TIP3   OH229590   4.262   4.061   0.034  0.1520 -0.2690 -0.0981
 2700TIP3    H129591   4.331   4.114   0.073 -0.5048 -0.1622  0.9905
 2700TIP3    H229592   4.214   4.122  -0.022  0.2156 -0.0373  0.0935
 2701TIP3   OH229593   6.767   6.710   5.502 -0.6662 -0.3125 -0.4681
 2701TIP3    H129594   6.688   6.728   5.553 -0.3503 -0.3130  0.0196
 2701TIP3    H229595   6.838   6.708   5.566 -0.4963 -1.9795 -0.6746
 2702TIP3   OH229596   3.085   4.671   1.938 -0.0714 -0.4482  0.1580
 2702TIP3    H129597   3.083   4.721   2.020 -0.4110 -1.6052  0.8714
 2702TIP3    H229598   2.993   4.655   1.918  0.0552 -1.3384  0.2815
 2703TIP3   OH229599   3.235   2.318   6.635 -0.2303 -0.1462 -0.4103
 2703TIP3    H129600   3.274   2.370   6.705 -1.9677  0.3699  0.2238
 2703TIP3    H229601   3.291   2.335   6.559  0.6386  0.7191  0.3847
 2704TIP3   OH229602   5.593   0.855  14.821  0.6791 -0.9263 -0.0700
 2704TIP3    H129603   5.621   0.911  14.893  1.6491 -1.1784 -0.2344
 2704TIP3    H229604   5.567   0.916  14.751 -0.3111 -0.6823  0.4842
 2705TIP3   OH229605   3.336   2.524   6.146  0.4674 -0.3701 -0.1672
 2705TIP3    H129606   3.416   2.471   6.140  1.5482  1.2065 -0.2767
 2705TIP3    H229607   3.352   2.585   6.218 -0.6211  0.0113 -0.2234
 2706TIP3   OH229608   3.586   5.165   5.046 -0.6670  0.2089 -0.0132
 2706TIP3    H129609   3.675   5.136   5.025 -0.4982  0.4475  0.3617
 2706TIP3    H229610   3.573   5.244   4.993 -0.6105  0.2397  0.0184
 2707TIP3   OH229611   2.782   6.850   4.048  0.1931  0.0009 -0.0905
 2707TIP3    H129612   2.864   6.899   4.039  0.5973 -0.3797  1.3005
 2707TIP3    H229613   2.714   6.914   4.025  0.7078  1.2214  1.5958
 2708TIP3   OH229614   3.015   3.794  13.489  0.3220 -0.7935  0.1708
 2708TIP3    H129615   3.047   3.855  13.423  1.7487 -1.7054 -0.0434
 2708TIP3    H229616   2.956   3.735  13.442  0.4278 -0.7233 -0.0525
 2709TIP3   OH229617   5.272   4.000  15.530 -0.6028 -0.2916 -0.8374
 2709TIP3    H129618   5.349   3.970  15.481  0.0357 -1.3364  0.7273
 2709TIP3    H229619   5.209   3.929  15.521 -1.0320  0.1342 -1.2847
 2710TIP3   OH229620   0.994   3.073  15.821 -0.0735 -0.3211  0.2384
 2710TIP3    H129621   0.976   3.143  15.758 -2.6358 -0.3510  0.8415
 2710TIP3    H229622   1.007   3.119  15.904  0.5520 -0.4566  0.2241
 2711TIP3   OH229623   0.275   4.046   2.837 -0.1858  0.1068  0.5783
 2711TIP3    H129624   0.314   4.117   2.889  0.6873  1.3184 -1.6142
 2711TIP3    H229625   0.181   4.054   2.852 -0.1339  1.9619  0.1236
 2712TIP3   OH229626   5.596   4.284  14.743 -0.0023  0.3604 -1.0285
 2712TIP3    H129627   5.658   4.354  14.721 -0.3866  1.6121  1.5430
 2712TIP3    H229628   5.649   4.216  14.783 -0.1859  1.3347  0.9643
 2713TIP3   OH229629   1.578   2.434  16.887  0.0965  0.3818 -0.0903
 2713TIP3    H129630   1.504   2.478  16.930  0.6880  0.6080  0.7128
 2713TIP3    H229631   1.571   2.461  16.796  0.1297  1.7258  0.2845
 2714TIP3   OH229632   2.608   5.430   2.809 -0.7407 -0.1965 -0.3704
 2714TIP3    H129633   2.546   5.414   2.880 -0.4428  0.0783 -0.0466
 2714TIP3    H229634   2.554   5.429   2.730 -0.9500 -1.3509 -0.2367
 2715TIP3   OH229635   5.730   1.403  15.670  0.0480  0.0510  0.4080
 2715TIP3    H129636   5.652   1.458  15.664  0.7462  0.9444 -1.6472
 2715TIP3    H229637   5.784   1.446  15.737 -0.9545 -0.2418  1.4165
 2716TIP3   OH229638   1.432   1.897  14.461  0.2857  0.3199 -0.5016
 2716TIP3    H129639   1.417   1.810  14.424  0.5642 -0.0877  0.3303
 2716TIP3    H229640   1.368   1.952  14.416 -0.0698 -0.3584 -0.8554
 2717TIP3   OH229641   5.435   6.146  13.330  0.5124 -0.0409 -0.2571
 2717TIP3    H129642   5.477   6.101  13.403 -1.5164 -1.5371  0.0941
 2717TIP3    H229643   5.374   6.081  13.295 -0.8122  1.6792 -1.2825
 2718TIP3   OH229644   3.291   0.658  13.388  0.7041 -0.1267 -1.0792
 2718TIP3    H129645   3.252   0.627  13.470  0.1093  0.6310 -1.0670
 2718TIP3    H229646   3.350   0.587  13.362  3.7764  1.0502  1.9000
 2719TIP3   OH229647   5.442   5.584  13.545  0.3731  0.0978 -0.2378
 2719TIP3    H129648   5.439   5.650  13.475 -0.7379 -1.3591 -1.6466
 2719TIP3    H229649   5.468   5.503  13.500  0.7974 -0.6389  1.2781
 2720TIP3   OH229650   0.372   1.951  16.122 -0.8945 -0.1800  0.3081
 2720TIP3    H129651   0.434   1.992  16.183  0.2611 -1.9756  0.4181
 2720TIP3    H229652   0.286   1.981  16.151 -0.1066  2.6178 -0.0364
 2721TIP3   OH229653   2.379   1.459   3.254  0.2750 -0.2830  0.5107
 2721TIP3    H129654   2.458   1.430   3.299  0.0268  0.4852  1.4876
 2721TIP3    H229655   2.385   1.421   3.167  1.1182 -1.2453  0.9701
 2722TIP3   OH229656   3.247   1.366  10.449  0.0154 -0.2582  0.0602
 2722TIP3    H129657   3.211   1.350  10.361 -1.2928  1.9080  0.1418
 2722TIP3    H229658   3.202   1.445  10.479  0.8074 -0.6743  2.4998
 2723TIP3   OH229659   6.187   4.157  15.085  0.8400  0.6464  0.1568
 2723TIP3    H129660   6.276   4.168  15.051  0.7087  1.0697 -0.0520
 2723TIP3    H229661   6.184   4.215  15.161  0.7180  0.6847  0.1214
 2724TIP3   OH229662   1.569   0.061  11.591  0.1615 -0.6042 -0.2183
 2724TIP3    H129663   1.491   0.098  11.550 -0.8366 -0.9840  1.2649
 2724TIP3    H229664   1.566  -0.032  11.569 -1.0843 -1.0663  1.6903
 2725TIP3   OH229665   0.896   6.611   0.776  0.1674  0.0748 -0.1252
 2725TIP3    H129666   0.881   6.576   0.688 -0.8366  2.2878 -0.9075
 2725TIP3    H229667   0.990   6.597   0.792 -0.1002 -2.5514 -0.4738
 2726TIP3   OH229668   4.977   5.165  16.831  0.6214 -0.0486  0.0616
 2726TIP3    H129669   5.062   5.205  16.818  0.5491 -0.5077 -2.4896
 2726TIP3    H229670   4.956   5.126  16.746 -1.5345 -1.1081  0.9936
 2727TIP3   OH229671   2.991   3.446   4.570  0.4827  0.2425 -0.3686
 2727TIP3    H129672   3.005   3.416   4.660  0.6386 -0.5126 -0.6417
 2727TIP3    H229673   2.960   3.536   4.580  0.3374  0.1113  0.4468
 2728TIP3   OH229674   1.006   2.017  14.159  0.0304 -0.0437 -0.0850
 2728TIP3    H129675   1.063   2.092  14.175 -1.1013  1.3177 -1.9282
 2728TIP3    H229676   0.961   2.039  14.077 -1.0138 -2.3534 -0.2042
 2729TIP3   OH229677   6.700   3.988   5.194  0.5028  0.1507  0.2357
 2729TIP3    H129678   6.671   3.897   5.199 -0.8006  0.5877  0.8506
 2729TIP3    H229679   6.691   4.011   5.101 -0.8449  0.1845  0.3669
 2730TIP3   OH229680   2.315   2.592   0.457  0.0342 -0.0594  0.0385
 2730TIP3    H129681   2.340   2.654   0.389 -0.8718 -0.5846 -0.8031
 2730TIP3    H229682   2.397   2.574   0.504  0.6363  0.4880 -0.7656
 2731TIP3   OH229683   2.115   1.606  11.090  0.0537 -0.0297  0.4190
 2731TIP3    H129684   2.100   1.633  11.000 -0.9709 -0.1321  0.5487
 2731TIP3    H229685   2.143   1.515  11.084 -0.9028 -0.3163  0.2548
 2732TIP3   OH229686   5.482   3.293   5.829 -1.2445 -0.0125  0.1160
 2732TIP3    H129687   5.545   3.364   5.813 -1.2764  0.2464  1.0507
 2732TIP3    H229688   5.454   3.307   5.919 -0.0330 -2.1744  0.9059
 2733TIP3   OH229689   1.833   3.598   2.916  0.7543 -0.6519 -0.3960
 2733TIP3    H129690   1.817   3.506   2.895 -0.3751 -0.3882 -0.7879
 2733TIP3    H229691   1.814   3.645   2.835 -0.0051  0.0370  0.1617
 2734TIP3   OH229692   4.384   5.162   4.455 -0.1838  0.2586 -0.0122
 2734TIP3    H129693   4.293   5.172   4.484 -0.3974  1.3379 -0.9517
 2734TIP3    H229694   4.382   5.086   4.397 -0.9025  1.3333 -1.4628
 2735TIP3   OH229695   0.180   5.409  15.301 -0.4311  0.1348  0.1151
 2735TIP3    H129696   0.184   5.490  15.250  0.8899  0.1754  0.2371
 2735TIP3    H229697   0.087   5.387  15.303 -0.8569  1.7553  0.2580
 2736TIP3   OH229698   3.671   4.024   6.521  0.2234 -0.0214  0.1665
 2736TIP3    H129699   3.637   3.973   6.595 -0.5065  0.8265  0.4399
 2736TIP3    H229700   3.766   4.016   6.528  0.1362 -1.1549  0.3230
 2737TIP3   OH229701   5.225   5.127   2.235  0.6205  0.5564 -0.1738
 2737TIP3    H129702   5.215   5.177   2.154  2.4441  1.7724  0.2949
 2737TIP3    H229703   5.316   5.141   2.261 -0.0390  0.6170  2.3602
 2738TIP3   OH229704   3.971   6.524  11.657  0.0433  0.5455  0.0281
 2738TIP3    H129705   4.012   6.604  11.689  0.7194 -0.3329  1.5063
 2738TIP3    H229706   3.881   6.549  11.638  0.4863  1.8588 -0.4452
 2739TIP3   OH229707   6.698   2.163  11.834 -0.0453  0.7677  0.0123
 2739TIP3    H129708   6.771   2.101  11.824  0.6981  1.8890 -2.3699
 2739TIP3    H229709   6.735   2.235  11.886 -0.2778  0.1759  1.0172
 2740TIP3   OH229710   2.262   3.494  12.286  0.3841 -0.0111 -0.1078
 2740TIP3    H129711   2.179   3.530  12.315  0.4104  0.1114 -0.1831
 2740TIP3    H229712   2.306   3.468  12.367  0.4451  0.3028 -0.0371
 2741TIP3   OH229713   0.532   1.789  15.581 -0.7583 -0.2078 -0.2360
 2741TIP3    H129714   0.439   1.765  15.589 -0.8962  0.8798  2.2253
 2741TIP3    H229715   0.571   1.759  15.663  1.1305 -0.7031 -1.2678
 2742TIP3   OH229716   0.749   3.666  17.078 -0.1329  0.4144  0.1604
 2742TIP3    H129717   0.661   3.671  17.115  0.6939  2.1706  2.0668
 2742TIP3    H229718   0.789   3.591  17.122  0.1103  1.1355  1.2008
 2743TIP3   OH229719   3.041   3.823   3.522 -0.1104  0.2147 -0.1930
 2743TIP3    H129720   3.097   3.893   3.554  0.0695  1.0377 -2.1817
 2743TIP3    H229721   3.048   3.754   3.588  2.5883  0.6071  0.0146
 2744TIP3   OH229722   1.743   3.366   3.506 -0.4294  0.0133 -0.2159
 2744TIP3    H129723   1.770   3.415   3.584 -0.9101 -0.0817  0.0151
 2744TIP3    H229724   1.700   3.431   3.450  0.1283  0.1319 -0.5128
 2745TIP3   OH229725   4.634   0.490  13.467 -0.2223  0.0411  0.5894
 2745TIP3    H129726   4.635   0.557  13.536 -0.5605  2.4119 -1.5699
 2745TIP3    H229727   4.689   0.526  13.398  0.9549 -2.7285 -0.0295
 2746TIP3   OH229728   0.418   0.495   5.495  0.3184 -0.8704 -0.6657
 2746TIP3    H129729   0.415   0.507   5.401  1.2719  0.1834 -0.5749
 2746TIP3    H229730   0.381   0.576   5.531 -0.4193 -1.4275 -0.1248
 2747TIP3   OH229731   6.787   0.165   1.977 -0.2407  0.5848  0.3421
 2747TIP3    H129732   6.850   0.201   1.914  0.0194 -1.6497 -0.7539
 2747TIP3    H229733   6.704   0.204   1.952 -0.0609  0.0685 -1.1517
 2748TIP3   OH229734   3.492   2.246  14.540  0.5062 -0.2961  0.3672
 2748TIP3    H129735   3.503   2.329  14.586 -1.2603  0.8976 -1.2204
 2748TIP3    H229736   3.410   2.256  14.492  1.4763 -2.0303 -1.8240
 2749TIP3   OH229737   3.781   0.008  16.747  0.9319  0.0700  0.9429
 2749TIP3    H129738   3.829  -0.062  16.792  0.5030 -0.6048  0.3789
 2749TIP3    H229739   3.757  -0.031  16.663  0.4568  0.8185  0.7308
 2750TIP3   OH229740   3.759   5.806   5.486 -0.2352 -0.1856 -0.7471
 2750TIP3    H129741   3.785   5.859   5.411  1.1761  0.2705  0.0272
 2750TIP3    H229742   3.751   5.717   5.451  0.9927 -0.0842 -1.3365
 2751TIP3   OH229743   6.106   6.797  10.851 -0.7887 -0.5891 -0.4110
 2751TIP3    H129744   6.143   6.851  10.781  0.5068 -2.3361 -1.1250
 2751TIP3    H229745   6.181   6.771  10.904 -1.3086 -2.0868 -0.3722
 2752TIP3   OH229746   0.752   4.441  16.581  0.3680  0.1830 -0.0426
 2752TIP3    H129747   0.740   4.506  16.511  2.3477  0.1601 -0.4600
 2752TIP3    H229748   0.748   4.357  16.536 -1.5129 -0.0236  0.4020
 2753TIP3   OH229749   3.684   2.899   2.685 -0.1792  0.4132  0.6270
 2753TIP3    H129750   3.665   2.981   2.730  2.1022  0.3516  1.8660
 2753TIP3    H229751   3.779   2.900   2.672  0.0357 -2.2743  1.2859
 2754TIP3   OH229752   1.048   6.122   2.077 -0.1199 -0.5075  0.1574
 2754TIP3    H129753   1.031   6.203   2.029 -1.5309 -0.0676  1.3290
 2754TIP3    H229754   0.972   6.067   2.059 -0.0908 -0.8100  0.9224
 2755TIP3   OH229755   0.003   0.410   5.595 -0.2170 -0.2514  0.0665
 2755TIP3    H129756   0.067   0.389   5.528  2.5548  1.2582  2.0300
 2755TIP3    H229757   0.050   0.465   5.657 -3.6178  1.4846  1.3960
 2756TIP3   OH229758   5.619   3.720  13.700  0.2879 -0.6401  0.6563
 2756TIP3    H129759   5.659   3.638  13.728  0.5103 -0.3833  1.1093
 2756TIP3    H229760   5.610   3.771  13.781  0.9258  0.1119  0.2739
 2757TIP3   OH229761   0.511   5.927  10.597 -0.8374  0.4342  0.4344
 2757TIP3    H129762   0.540   5.844  10.635 -0.7625  0.2766  0.0444
 2757TIP3    H229763   0.588   5.983  10.601 -0.6183  0.1849 -0.1256
 2758TIP3   OH229764   0.681   5.020   5.178  0.6429  0.1504 -0.0069
 2758TIP3    H129765   0.734   5.077   5.122 -0.9686 -0.0343 -1.8220
 2758TIP3    H229766   0.596   5.064   5.184 -0.5149 -1.7788 -1.0987
 2759TIP3   OH229767   1.624   1.493   1.399  0.8029  0.7604 -0.4888
 2759TIP3    H129768   1.585   1.553   1.335 -1.7078 -1.2810 -1.0314
 2759TIP3    H229769   1.571   1.506   1.478 -0.2367 -1.1421 -0.8280
 2760TIP3   OH229770   0.094   0.350   4.857 -0.0155 -0.0595  0.0881
 2760TIP3    H129771   0.120   0.258   4.864  0.7969  0.2228  0.8255
 2760TIP3    H229772   0.022   0.359   4.920  0.4089 -0.0139  0.5730
 2761TIP3   OH229773   1.317   1.922  15.362  0.1452  0.0344  0.1550
 2761TIP3    H129774   1.221   1.922  15.368  0.1694 -0.5357  0.6109
 2761TIP3    H229775   1.343   1.840  15.403  0.9265  0.8625  1.3619
 2762TIP3   OH229776   0.460   1.570  17.122  0.0094 -0.0174  0.0870
 2762TIP3    H129777   0.380   1.593  17.169  0.6913  0.9940  0.7792
 2762TIP3    H229778   0.431   1.552  17.032 -0.7935  1.8850 -0.0740
 2763TIP3   OH229779   5.868   3.285   2.789 -0.5131  0.6187 -0.3399
 2763TIP3    H129780   5.917   3.223   2.844 -0.9840 -0.0643 -0.6832
 2763TIP3    H229781   5.791   3.307   2.841 -0.1906  1.1829 -0.0822
 2764TIP3   OH229782   3.870   0.678  13.216  0.3420  0.4644  0.1796
 2764TIP3    H129783   3.839   0.673  13.125 -0.8522 -2.4264  0.6225
 2764TIP3    H229784   3.802   0.725  13.263  1.2756  2.5660 -0.4681
 2765TIP3   OH229785   1.286   4.032   0.933 -0.3561 -0.6056 -0.3140
 2765TIP3    H129786   1.367   3.981   0.930 -0.8371 -1.3851 -0.3198
 2765TIP3    H229787   1.297   4.091   1.007  0.1405 -0.8401 -0.1996
 2766TIP3   OH229788   2.681   3.959  12.291  0.4707 -0.0928 -0.1062
 2766TIP3    H129789   2.749   4.027  12.301 -0.8243  1.3308 -0.5224
 2766TIP3    H229790   2.662   3.959  12.197  0.6210 -1.2449 -0.1517
 2767TIP3   OH229791   5.284   3.647   3.340 -0.2015 -0.3986  0.0019
 2767TIP3    H129792   5.335   3.566   3.351 -0.8225 -0.8050 -0.0520
 2767TIP3    H229793   5.329   3.694   3.270 -1.5748 -2.1341 -2.1517
 2768TIP3   OH229794   2.115   2.415  12.145  0.2387  0.2261 -0.0184
 2768TIP3    H129795   2.046   2.364  12.189 -1.0312  0.1649 -1.9547
 2768TIP3    H229796   2.079   2.503  12.137  0.3031  0.1660 -1.1600
 2769TIP3   OH229797   4.684   5.008  12.312  0.2101  0.5756  0.4194
 2769TIP3    H129798   4.626   4.969  12.378 -1.8632 -0.1785 -1.6745
 2769TIP3    H229799   4.728   4.933  12.272  1.2281  0.9977  0.7251
 2770TIP3   OH229800   0.528   3.131   5.309  0.4688  0.1334  0.7392
 2770TIP3    H129801   0.571   3.201   5.357  1.0477 -0.3002  0.8658
 2770TIP3    H229802   0.468   3.092   5.373 -0.0569  0.6786  0.5894
 2771TIP3   OH229803   5.927   0.878  12.168  0.2327 -0.3130  0.4544
 2771TIP3    H129804   6.008   0.915  12.204  0.6080  0.2426 -0.9034
 2771TIP3    H229805   5.857   0.923  12.215  0.6853 -0.8024  1.6467
 2772TIP3   OH229806   3.032   4.719   4.820 -0.0946 -0.3616 -0.2747
 2772TIP3    H129807   3.011   4.780   4.750  0.6854  0.1851 -0.0573
 2772TIP3    H229808   3.031   4.773   4.899 -3.1764 -1.3805  0.5127
 2773TIP3   OH229809   2.802   2.969  11.436 -0.3161 -0.8046 -0.4864
 2773TIP3    H129810   2.772   2.915  11.363 -1.0754  1.8781 -2.3395
 2773TIP3    H229811   2.895   2.984  11.419 -0.6904  0.5547 -1.4836
 2774TIP3   OH229812   3.944   1.094   4.436 -0.7147  0.1886  0.4979
 2774TIP3    H129813   3.893   1.025   4.478  1.1051 -3.0156 -2.0859
 2774TIP3    H229814   4.028   1.095   4.482 -0.7564  0.7827  0.5755
 2775TIP3   OH229815   4.499   6.400   4.851 -0.1031 -0.1641 -0.3142
 2775TIP3    H129816   4.419   6.430   4.809 -0.3383 -0.1637  0.1345
 2775TIP3    H229817   4.493   6.304   4.849  0.6874 -0.2095 -1.8232
 2776TIP3   OH229818   0.070   1.699   0.934 -0.2046  1.1011  0.0922
 2776TIP3    H129819  -0.017   1.720   0.898  0.0725  0.3284 -1.0801
 2776TIP3    H229820   0.095   1.777   0.983 -0.6730  2.1688 -1.2958
 2777TIP3   OH229821   5.937   0.514  13.975  0.3344  0.3888  0.3473
 2777TIP3    H129822   5.879   0.584  13.945 -1.0396 -0.8896 -0.1010
 2777TIP3    H229823   5.999   0.557  14.034 -1.2818  1.7488  1.1240
 2778TIP3   OH229824   0.240   5.971   4.651 -0.0687  0.0539 -0.5078
 2778TIP3    H129825   0.194   5.908   4.706  0.1030  1.1708  0.9740
 2778TIP3    H229826   0.305   5.919   4.604 -0.2929 -0.9509  0.2648
 2779TIP3   OH229827   2.733   0.606  16.434  0.0116  0.4811  0.0066
 2779TIP3    H129828   2.669   0.548  16.475 -0.7157  1.6325  0.5360
 2779TIP3    H229829   2.724   0.689  16.480  0.2214  1.3826 -1.5009
 2780TIP3   OH229830   0.331   1.387  12.935  0.6378 -0.0624 -0.5690
 2780TIP3    H129831   0.369   1.310  12.891 -0.4903 -0.1868 -1.3619
 2780TIP3    H229832   0.368   1.461  12.887  1.6476 -0.0946  0.1292
 2781TIP3   OH229833   6.554   3.413  15.358  0.3848 -0.5434  0.0189
 2781TIP3    H129834   6.630   3.459  15.320  0.6090 -0.5262  0.4794
 2781TIP3    H229835   6.534   3.345  15.295  0.7945 -0.5529 -0.1074
 2782TIP3   OH229836   4.389   1.062  11.608  0.1550  0.2960  0.4075
 2782TIP3    H129837   4.428   1.050  11.695 -0.1775  0.5825  0.5983
 2782TIP3    H229838   4.295   1.050  11.622  0.1756 -0.5380 -0.0764
 2783TIP3   OH229839   2.008   1.809   4.543  0.2792  0.3863  0.7857
 2783TIP3    H129840   2.065   1.786   4.471  1.7870  1.1269  1.7050
 2783TIP3    H229841   1.994   1.726   4.590  1.8093  0.4440  1.3823
 2784TIP3   OH229842   6.133   3.203   1.281 -0.0876  0.1154 -0.6960
 2784TIP3    H129843   6.089   3.124   1.312  0.5517  0.8826  2.4991
 2784TIP3    H229844   6.224   3.175   1.268  0.4181  0.5010  1.6249
 2785TIP3   OH229845   2.740   3.171   2.843  0.1004  0.3583  0.6137
 2785TIP3    H129846   2.748   3.175   2.747 -1.5217 -0.5384  0.4197
 2785TIP3    H229847   2.705   3.257   2.867 -1.6487 -0.1944  0.1384
 2786TIP3   OH229848   6.110   1.692   2.385 -0.1589 -0.3740 -0.3168
 2786TIP3    H129849   6.157   1.617   2.349  1.0126  0.4524 -0.5639
 2786TIP3    H229850   6.125   1.687   2.480  0.3400 -0.1824 -0.3828
 2787TIP3   OH229851   5.041   6.676   2.196  0.1137  0.1077  0.4475
 2787TIP3    H129852   5.106   6.612   2.224  0.4545 -0.0792 -0.7255
 2787TIP3    H229853   5.066   6.698   2.106 -2.2570 -1.0245 -0.5521
 2788TIP3   OH229854   1.565   4.655   5.002  0.0826 -0.8000  0.3071
 2788TIP3    H129855   1.484   4.610   5.024  0.7667 -1.7561  0.9150
 2788TIP3    H229856   1.545   4.702   4.921 -2.0014  1.4534  1.9876
 2789TIP3   OH229857   0.405   5.630  15.144 -0.1393  0.1433  0.1751
 2789TIP3    H129858   0.361   5.635  15.229  0.3477 -0.6621  0.4896
 2789TIP3    H229859   0.391   5.716  15.105 -0.4076  0.5166  1.0556
 2790TIP3   OH229860   3.086   0.023  15.152  0.4262 -0.4430  0.3525
 2790TIP3    H129861   3.097   0.023  15.247  0.0038 -0.0173  0.4045
 2790TIP3    H229862   3.042   0.106  15.133  1.6410  0.0550 -0.3458
 2791TIP3   OH229863   2.972   5.958   0.090 -0.0393 -0.1830 -0.1999
 2791TIP3    H129864   3.018   5.924   0.013  1.4691  0.0553  0.5417
 2791TIP3    H229865   2.968   6.052   0.076  1.3331  0.0115  0.5251
 2792TIP3   OH229866   3.207   6.498  13.763  0.1549 -0.0990  0.2206
 2792TIP3    H129867   3.203   6.428  13.828  0.6009 -1.1096 -0.7889
 2792TIP3    H229868   3.265   6.463  13.695  0.3182  1.2344 -0.3473
 2793TIP3   OH229869   5.984   2.955   1.350 -0.0434  0.1568 -0.1129
 2793TIP3    H129870   6.079   2.952   1.350 -0.0009 -1.3580 -2.5444
 2793TIP3    H229871   5.957   2.864   1.367 -1.2111  0.9686  3.2418
 2794TIP3   OH229872   5.377   0.389  15.674  0.2547 -0.0014 -0.1673
 2794TIP3    H129873   5.404   0.343  15.595  0.6323  0.7513 -0.4902
 2794TIP3    H229874   5.413   0.477  15.664  0.5719  0.0197  0.9930
 2795TIP3   OH229875   0.320   2.990   3.238  0.3689 -1.1191  0.0835
 2795TIP3    H129876   0.363   2.966   3.320 -0.9088 -1.2198  0.7442
 2795TIP3    H229877   0.283   3.077   3.254 -0.4317 -1.4040 -0.1586
 2796TIP3   OH229878   4.950   5.812   5.824 -0.1211  0.2951  0.2007
 2796TIP3    H129879   4.930   5.760   5.747  1.4818  0.1094 -0.1351
 2796TIP3    H229880   4.871   5.808   5.877  0.1254 -3.1674  0.5729
 2797TIP3   OH229881   1.439   2.835  13.672 -0.0450  0.3186  0.1767
 2797TIP3    H129882   1.344   2.844  13.662  0.0525  0.1898 -0.9586
 2797TIP3    H229883   1.450   2.784  13.753 -1.0561 -1.9641 -1.0136
 2798TIP3   OH229884   5.456   6.727  13.399 -0.0002  0.1117  0.2046
 2798TIP3    H129885   5.473   6.753  13.309  1.1093  2.4339  1.0089
 2798TIP3    H229886   5.377   6.775  13.424 -1.1253 -1.6057  0.0862
 2799TIP3   OH229887   1.843   4.716   1.652 -0.3220 -0.3768 -0.3313
 2799TIP3    H129888   1.749   4.705   1.639 -0.5686  1.3213 -0.2575
 2799TIP3    H229889   1.881   4.704   1.564 -0.3972 -2.5375 -0.1179
 2800TIP3   OH229890   5.741   6.347  13.272 -0.1692 -0.1159 -0.1198
 2800TIP3    H129891   5.741   6.438  13.244  0.1723 -0.4808 -1.4138
 2800TIP3    H229892   5.831   6.331  13.302  0.0273 -0.2606 -0.7659
 2801TIP3   OH229893   2.691   3.826  16.829  0.2238 -0.0202 -0.2751
 2801TIP3    H129894   2.703   3.895  16.763  1.3991 -0.0803 -0.1394
 2801TIP3    H229895   2.749   3.756  16.802  0.7276 -0.0445  0.8246
 2802TIP3   OH229896   0.227   3.930  15.328  0.0567  0.0243  0.3753
 2802TIP3    H129897   0.193   3.997  15.387  0.5595 -0.7946  1.6456
 2802TIP3    H229898   0.243   3.976  15.246 -3.3247  0.6301 -0.0989
 2803TIP3   OH229899   4.589   2.653  12.552  0.3809 -0.0060 -0.0333
 2803TIP3    H129900   4.674   2.697  12.544 -0.3043  1.2955 -0.4193
 2803TIP3    H229901   4.565   2.664  12.644  0.5510 -0.2444  0.0420
 2804TIP3   OH229902   1.574   6.149  10.983  0.3674  0.1095  0.3403
 2804TIP3    H129903   1.588   6.097  10.904  1.4739  0.3982  0.3166
 2804TIP3    H229904   1.481   6.172  10.982  0.7586  2.0806 -2.1553
 2805TIP3   OH229905   1.642   5.538   2.447 -0.1031  0.1473  0.1922
 2805TIP3    H129906   1.560   5.564   2.405  0.2094 -0.1190 -0.5997
 2805TIP3    H229907   1.681   5.620   2.475  0.3847  0.5003 -1.3796
 2806TIP3   OH229908   4.674   4.905   3.644 -0.1057  0.0135 -0.1686
 2806TIP3    H129909   4.622   4.826   3.628  0.9131 -0.6756 -0.1861
 2806TIP3    H229910   4.761   4.872   3.666  0.5646  1.1597 -0.9890
 2807TIP3   OH229911   6.106   4.243   1.227 -0.0324 -1.0097 -0.3884
 2807TIP3    H129912   6.152   4.281   1.302 -0.8808  0.5442 -0.6058
 2807TIP3    H229913   6.049   4.176   1.265  0.3561 -1.0023  0.2150
 2808TIP3   OH229914   3.260   3.059  14.876 -0.9909  0.1447 -0.1592
 2808TIP3    H129915   3.250   3.027  14.787  0.7784  0.4810 -0.5162
 2808TIP3    H229916   3.219   3.145  14.877  0.6908  1.0061 -1.2220
 2809TIP3   OH229917   1.389   4.831  11.174  0.5644  0.6863  0.1695
 2809TIP3    H129918   1.425   4.800  11.257  0.9495 -0.6738 -0.4923
 2809TIP3    H229919   1.298   4.854  11.195  0.0317 -1.5604  0.5679
 2810TIP3   OH229920   0.316   3.230   3.484  0.1090 -0.2474  0.2200
 2810TIP3    H129921   0.411   3.241   3.474  0.1820 -1.9198 -1.5753
 2810TIP3    H229922   0.306   3.138   3.510 -1.0863 -0.7805 -1.9428
 2811TIP3   OH229923   1.962   3.093   4.824 -0.3492  0.1185  0.2792
 2811TIP3    H129924   2.048   3.123   4.854  0.2850 -0.7876 -0.5681
 2811TIP3    H229925   1.908   3.090   4.903  0.4710  0.4223  0.8652
 2812TIP3   OH229926   6.003   1.639   3.112  0.7227  0.3811 -0.3308
 2812TIP3    H129927   5.934   1.665   3.173 -0.8557 -0.4215 -1.6866
 2812TIP3    H229928   6.031   1.721   3.071  1.9317  0.9562  1.5029
 2813TIP3   OH229929   0.672   5.347   5.408  0.6116 -0.7512  0.2761
 2813TIP3    H129930   0.699   5.344   5.499  2.7521 -1.8861 -0.3299
 2813TIP3    H229931   0.617   5.270   5.395  1.2887 -1.2433  0.3275
 2814TIP3   OH229932   4.369   4.801  14.844 -0.5895  0.1249 -0.2822
 2814TIP3    H129933   4.354   4.718  14.889 -0.7088 -0.0536 -0.6539
 2814TIP3    H229934   4.354   4.782  14.751 -0.7494  0.5925 -0.3552
 2815TIP3   OH229935   0.634   5.690   0.246 -0.0928  0.4211  0.6006
 2815TIP3    H129936   0.704   5.683   0.311 -0.1726 -0.0224  0.6451
 2815TIP3    H229937   0.588   5.770   0.268  1.0551  1.3083 -0.0740
 2816TIP3   OH229938   6.541   5.530  14.253  0.0176 -0.5638  0.0831
 2816TIP3    H129939   6.606   5.464  14.280  0.1821 -0.3017  0.3323
 2816TIP3    H229940   6.592   5.593  14.203  0.3315  0.6092  1.7855
 2817TIP3   OH229941   2.276   3.098  10.774 -0.1167  0.0033  0.4005
 2817TIP3    H129942   2.227   3.016  10.774 -0.2496  0.0378 -1.4513
 2817TIP3    H229943   2.367   3.071  10.763 -0.1416  0.0982 -0.0389
 2818TIP3   OH229944   2.190   4.240   6.106 -0.3682  0.3005  0.1176
 2818TIP3    H129945   2.174   4.211   6.195  1.7030 -0.9668  0.1353
 2818TIP3    H229946   2.284   4.227   6.092 -0.0827  3.0600 -1.3439
 2819TIP3   OH229947   1.044   3.534  16.943  0.0176  0.1506  0.1501
 2819TIP3    H129948   1.042   3.616  16.993 -0.1936 -0.0882  0.5454
 2819TIP3    H229949   1.035   3.560  16.852 -2.9394  0.4457  0.4106
 2820TIP3   OH229950   3.073   5.905  11.140 -0.0563 -0.2024  0.0563
 2820TIP3    H129951   3.159   5.863  11.129 -0.9914 -2.3350  0.4763
 2820TIP3    H229952   3.044   5.922  11.050 -0.2432 -1.7713 -0.2060
 2821TIP3   OH229953   0.697   4.435  11.965  0.6588 -1.0584  0.4932
 2821TIP3    H129954   0.626   4.487  11.927 -0.7492 -2.6346  0.8777
 2821TIP3    H229955   0.767   4.499  11.981 -0.9218  0.6925  0.7823
 2822TIP3   OH229956   5.411   2.791   3.777 -0.1722 -0.5063  0.2023
 2822TIP3    H129957   5.403   2.699   3.804  1.4142 -0.7203  0.0338
 2822TIP3    H229958   5.321   2.824   3.780 -0.7332 -1.9592  0.6147
 2823TIP3   OH229959   6.806   6.798  12.076 -0.3496 -0.7061 -0.1013
 2823TIP3    H129960   6.745   6.800  12.150  0.4011 -2.2153  0.5820
 2823TIP3    H229961   6.890   6.826  12.113 -0.5979  1.6191 -1.0940
 2824TIP3   OH229962   2.354   1.737  12.769 -0.2892  0.4066 -0.6149
 2824TIP3    H129963   2.333   1.741  12.863 -0.0256  0.3412 -0.5537
 2824TIP3    H229964   2.285   1.681  12.732 -0.6938  0.8505 -0.5463
 2825TIP3   OH229965   2.992   1.564   3.431  0.1665  0.5233  0.4985
 2825TIP3    H129966   2.943   1.581   3.351 -0.5323  2.1658  1.2300
 2825TIP3    H229967   2.992   1.468   3.440  0.3198  0.3151 -1.4656
 2826TIP3   OH229968   2.957   6.795   0.768  0.1306  0.2676  0.2017
 2826TIP3    H129969   3.020   6.735   0.808 -0.9930 -1.8517 -0.9970
 2826TIP3    H229970   3.010   6.863   0.727  1.5187 -0.3095  0.9947
 2827TIP3   OH229971   5.520   1.712   1.979  0.0448 -0.0317 -0.4025
 2827TIP3    H129972   5.427   1.702   1.999 -0.0101 -0.5543 -0.8866
 2827TIP3    H229973   5.563   1.641   2.028  0.2760  0.6387  0.3833
 2828TIP3   OH229974   2.217   0.031   1.509 -0.0562 -0.9689  0.3632
 2828TIP3    H129975   2.313   0.034   1.513 -0.0922 -0.6953  1.1816
 2828TIP3    H229976   2.191   0.123   1.507 -0.3353 -1.0312  1.1106
 2829TIP3   OH229977   1.849   6.347  11.016  0.3072  0.3055 -0.1683
 2829TIP3    H129978   1.934   6.366  10.976 -0.6070  0.1727 -2.3212
 2829TIP3    H229979   1.820   6.266  10.975 -0.4485 -0.1854  1.2606
 2830TIP3   OH229980   6.589   5.146   3.767 -0.4332 -0.1188 -0.1998
 2830TIP3    H129981   6.653   5.201   3.721 -1.8662  1.6874 -0.1565
 2830TIP3    H229982   6.505   5.168   3.727 -1.0826 -2.3853 -0.2168
 2831TIP3   OH229983   1.326   4.189  11.809 -0.2092 -0.3430  0.6829
 2831TIP3    H129984   1.360   4.276  11.787 -0.7660  0.2350  2.0045
 2831TIP3    H229985   1.325   4.142  11.726  1.2842  0.4923  0.1555
 2832TIP3   OH229986   6.308   4.372  14.418 -0.2024  0.1934  0.4097
 2832TIP3    H129987   6.289   4.302  14.480 -1.1594 -0.0849 -0.1604
 2832TIP3    H229988   6.237   4.435  14.432  0.1451  0.6076  0.2977
 2833TIP3   OH229989   6.850   2.180   1.200  0.0080  0.2136 -0.1217
 2833TIP3    H129990   6.788   2.150   1.267 -1.8502  3.2726 -0.3030
 2833TIP3    H229991   6.797   2.189   1.121  1.8131 -1.7084 -1.6539
 2834TIP3   OH229992   5.423   3.830  16.887 -0.0455 -0.3233  0.2000
 2834TIP3    H129993   5.369   3.762  16.929 -1.6125 -0.2897 -1.6206
 2834TIP3    H229994   5.385   3.912  16.918 -1.8660 -0.2849 -1.9204
 2835TIP3   OH229995   4.196   3.094   5.663 -0.4219 -0.0381  0.3918
 2835TIP3    H129996   4.203   3.021   5.724  0.4683 -1.0557 -0.8759
 2835TIP3    H229997   4.285   3.109   5.632 -1.1370 -1.3263 -2.6127
 2836TIP3   OH229998   2.413   0.019  16.062  0.4145 -0.6113  0.4433
 2836TIP3    H129999   2.414   0.109  16.095  0.9293 -1.2842  2.4262
 2836TIP3    H230000   2.387   0.027  15.971  2.5995  1.7697 -0.0872
 2837TIP3   OH230001   2.597   1.115  13.639 -1.0925 -0.2347 -0.5267
 2837TIP3    H130002   2.608   1.047  13.706 -0.7155 -0.0355 -0.3842
 2837TIP3    H230003   2.649   1.189  13.671 -1.0608 -0.0728 -0.9497
 2838TIP3   OH230004   5.586   3.339   2.827  0.1305 -0.5747  0.1957
 2838TIP3    H130005   5.585   3.339   2.732 -1.7404  1.4550  0.1359
 2838TIP3    H230006   5.541   3.258   2.852  0.8476 -1.2353 -0.6204
 2839TIP3   OH230007   3.091   0.137  15.412  0.5027  0.0022  0.0633
 2839TIP3    H130008   3.178   0.172  15.432 -0.2790  1.6786  0.7083
 2839TIP3    H230009   3.032   0.190  15.465 -1.0666  0.0087 -1.6092
 2840TIP3   OH230010   2.458   1.987   1.362 -0.2772  0.4482  0.0869
 2840TIP3    H130011   2.366   2.006   1.345 -0.4992  1.1630  1.8966
 2840TIP3    H230012   2.466   1.892   1.352 -0.4196  0.6543 -3.4066
 2841TIP3   OH230013   4.767   6.569   1.169  0.6335 -0.3007  0.1764
 2841TIP3    H130014   4.831   6.564   1.098  3.0311 -0.6792  2.2516
 2841TIP3    H230015   4.793   6.646   1.219 -1.1116  0.0483  0.6294
 2842TIP3   OH230016   6.523   3.572  11.721  0.4395  0.5641  0.3959
 2842TIP3    H130017   6.529   3.478  11.741  2.3761  0.3751 -0.8429
 2842TIP3    H230018   6.474   3.609  11.795 -1.7610 -1.6185  0.1842
 2843TIP3   OH230019   4.755   1.424   4.856 -0.0209  0.0163  1.1982
 2843TIP3    H130020   4.750   1.401   4.763  0.9595  0.3858  1.0424
 2843TIP3    H230021   4.665   1.418   4.887 -0.0275 -2.8424  0.8980
 2844TIP3   OH230022   4.649   1.749   6.345  0.0832  0.3448  0.2056
 2844TIP3    H130023   4.678   1.841   6.344 -2.1031  1.1303  1.0457
 2844TIP3    H230024   4.642   1.728   6.438  2.4682 -1.4168  0.0762
 2845TIP3   OH230025   3.622   3.353  12.600 -0.2291  0.0447 -0.2147
 2845TIP3    H130026   3.637   3.372  12.507  0.6393 -0.6214 -0.2342
 2845TIP3    H230027   3.595   3.436  12.638 -2.2129 -0.0090 -1.3581
 2846TIP3   OH230028   4.745   5.817   1.600  0.4348 -0.2322  0.1145
 2846TIP3    H130029   4.709   5.874   1.668 -2.0160 -2.5659  0.9227
 2846TIP3    H230030   4.672   5.803   1.539  1.4920 -1.1372 -0.9948
 2847TIP3   OH230031   6.850   2.580  11.665  0.6125 -0.4575 -0.0186
 2847TIP3    H130032   6.782   2.647  11.671  0.5282 -0.5490  0.0372
 2847TIP3    H230033   6.819   2.520  11.597  1.0652 -0.0038 -0.6459
 2848TIP3   OH230034   3.394   6.423  13.547 -0.6184  0.4276 -0.3092
 2848TIP3    H130035   3.434   6.340  13.520 -1.6642 -0.0648 -0.4311
 2848TIP3    H230036   3.458   6.464  13.604 -0.2121 -0.6232  0.0080
 2849TIP3   OH230037   2.453   3.183   3.208  0.3708  0.2338  0.1208
 2849TIP3    H130038   2.373   3.232   3.192  1.6333  2.2705 -0.3765
 2849TIP3    H230039   2.447   3.157   3.300  0.9816  4.2109  1.4904
 2850TIP3   OH230040   4.647   1.557   3.678 -0.0859 -0.6481  0.0312
 2850TIP3    H130041   4.712   1.547   3.608 -1.8324 -1.1547 -1.5977
 2850TIP3    H230042   4.659   1.646   3.710  0.9626 -0.5219 -0.6881
 2851TIP3   OH230043   3.322   2.067   0.570 -0.4105 -0.2584  0.0253
 2851TIP3    H130044   3.357   2.001   0.630 -3.4850 -0.4648  1.7980
 2851TIP3    H230045   3.305   2.143   0.626  1.2193  1.4462 -1.6204
 2852TIP3   OH230046   6.740   3.116   4.718 -0.5260  0.5963  0.0159
 2852TIP3    H130047   6.753   3.129   4.624 -1.8951  0.9315 -0.1451
 2852TIP3    H230048   6.787   3.189   4.759  1.7371 -0.6043 -0.2555
 2853TIP3   OH230049   5.811   1.517   1.484 -0.0965  0.0050  0.0175
 2853TIP3    H130050   5.753   1.481   1.552  1.1927 -1.6028  0.3322
 2853TIP3    H230051   5.804   1.456   1.411  1.4139 -0.4249  0.1918
 2854TIP3   OH230052   5.787   0.059  11.901 -0.0573  0.8001  0.2580
 2854TIP3    H130053   5.723   0.026  11.839 -0.4515 -0.0668  1.1082
 2854TIP3    H230054   5.735   0.094  11.973  0.4026  1.2026  0.3972
 2855TIP3   OH230055   6.389   6.331  15.262 -0.0675  0.6670  0.3639
 2855TIP3    H130056   6.341   6.405  15.225 -1.5543 -1.1163 -1.5411
 2855TIP3    H230057   6.368   6.258  15.204  1.9169 -1.1001  1.7338
 2856TIP3   OH230058   3.086   1.913  11.702 -0.5960  0.1624  0.2980
 2856TIP3    H130059   2.999   1.927  11.739 -0.2598  0.5552  0.9626
 2856TIP3    H230060   3.111   1.998  11.665 -0.2670  0.2079  0.6164
 2857TIP3   OH230061   5.962   0.574  14.675  0.6200  0.0681  0.3293
 2857TIP3    H130062   5.930   0.556  14.587 -2.1626  2.0510  0.8315
 2857TIP3    H230063   5.990   0.488  14.708  0.3733 -0.9475 -1.9376
 2858TIP3   OH230064   3.860   2.882  15.006 -0.1606  0.0345 -0.2030
 2858TIP3    H130065   3.812   2.869  14.925  1.4523 -0.7511 -1.0905
 2858TIP3    H230066   3.888   2.794  15.031 -0.7856  0.2402  1.3241
 2859TIP3   OH230067   4.182   6.175  15.750  0.0493  0.3125 -0.0651
 2859TIP3    H130068   4.251   6.115  15.776  0.7759  1.2203  0.1763
 2859TIP3    H230069   4.190   6.180  15.654  0.4165  0.5040 -0.0302
 2860TIP3   OH230070   4.058   5.618  16.498  0.4407 -0.6850  0.7306
 2860TIP3    H130071   4.130   5.555  16.493  2.2897  1.3562 -0.1368
 2860TIP3    H230072   4.033   5.633  16.407  0.2056  0.0311  0.9090
 2861TIP3   OH230073   6.815   1.776  14.752  0.3511  0.4251 -0.4930
 2861TIP3    H130074   6.727   1.801  14.782  1.0830  0.7884  1.4835
 2861TIP3    H230075   6.853   1.857  14.718  0.2999  0.4815 -0.4155
 2862TIP3   OH230076   0.504   6.490  11.092  0.6203 -0.2319  0.1940
 2862TIP3    H130077   0.419   6.535  11.087  1.3672  1.5716  2.1576
 2862TIP3    H230078   0.496   6.435  11.170  1.0225 -0.6043 -0.0253
 2863TIP3   OH230079   4.186   4.151   4.318  0.2069  0.3584  0.2076
 2863TIP3    H130080   4.250   4.117   4.381  0.6411  1.0901  0.1687
 2863TIP3    H230081   4.141   4.073   4.285  0.1463 -0.0531  1.2313
 2864TIP3   OH230082   6.856   2.497  13.763 -0.1742 -0.5313 -0.3564
 2864TIP3    H130083   6.789   2.562  13.784 -1.5988 -1.5273 -1.6168
 2864TIP3    H230084   6.896   2.476  13.848 -0.4852  1.1039  0.2344
 2865TIP3   OH230085   3.118   6.263   1.554 -0.4156  0.4122 -0.0845
 2865TIP3    H130086   3.088   6.172   1.551 -1.0288  0.5206  1.6127
 2865TIP3    H230087   3.114   6.293   1.463 -0.1630 -1.2604 -0.6767
 2866TIP3   OH230088   1.190   5.646   2.695 -0.0693 -0.4963 -0.0954
 2866TIP3    H130089   1.097   5.650   2.672 -0.1457 -1.3555  0.0307
 2866TIP3    H230090   1.212   5.553   2.692  0.9327 -0.2586 -0.6849
 2867TIP3   OH230091   4.449   5.774  13.215  0.0252 -0.2907  0.3728
 2867TIP3    H130092   4.367   5.738  13.250  0.1049 -0.9408 -0.1005
 2867TIP3    H230093   4.425   5.809  13.130 -0.1099  1.0455  0.9398
 2868TIP3   OH230094   2.662   2.781   4.897 -0.7810  0.0317  0.5133
 2868TIP3    H130095   2.745   2.809   4.937 -1.2530  1.5460  0.5128
 2868TIP3    H230096   2.634   2.707   4.951  0.4997 -0.4233  0.5919
 2869TIP3   OH230097   2.336   2.989  16.650 -0.4506  0.1136 -0.2327
 2869TIP3    H130098   2.292   2.973  16.567 -0.2327  1.1183 -0.5558
 2869TIP3    H230099   2.403   2.920  16.656  0.0235  0.4628 -1.2474
 2870TIP3   OH230100   2.047   0.071   0.153  0.7462  0.0364  0.1701
 2870TIP3    H130101   2.044   0.024   0.070  2.0746  1.6400 -0.8208
 2870TIP3    H230102   2.001   0.153   0.136  1.2353  0.4828  0.9467
 2871TIP3   OH230103   1.782   3.552  15.233  0.3566  0.1680  0.5446
 2871TIP3    H130104   1.745   3.570  15.147 -1.0476 -1.3339  0.7726
 2871TIP3    H230105   1.873   3.581  15.227  0.9299 -1.7418 -2.1331
 2872TIP3   OH230106   1.246   6.601  16.139  0.1891 -0.2031  0.5090
 2872TIP3    H130107   1.172   6.577  16.083 -0.7076 -0.4125  1.7500
 2872TIP3    H230108   1.279   6.518  16.174  1.5209 -0.1899 -0.6109
 2873TIP3   OH230109   3.605   3.129   3.311 -0.5755 -1.1125 -0.1070
 2873TIP3    H130110   3.560   3.078   3.379  0.0879  0.4631  1.5917
 2873TIP3    H230111   3.545   3.201   3.291 -0.7787 -1.5807 -1.2675
 2874TIP3   OH230112   3.487   4.446  16.172 -0.5565 -0.2354  0.2699
 2874TIP3    H130113   3.465   4.537  16.189  2.0202  0.4120  0.5827
 2874TIP3    H230114   3.407   4.397  16.192 -1.7952  1.8702  0.7119
 2875TIP3   OH230115   2.423   0.012  15.093 -0.1516 -0.9718 -0.0258
 2875TIP3    H130116   2.506   0.009  15.139  0.6177 -0.3599 -1.3264
 2875TIP3    H230117   2.394  -0.079  15.090  0.7064 -1.2509  0.0123
 2876TIP3   OH230118   1.150   6.486  15.645  0.3478  0.4037 -0.6124
 2876TIP3    H130119   1.144   6.448  15.558 -0.9836  0.0627 -0.3861
 2876TIP3    H230120   1.162   6.410  15.703  1.9351  0.6720 -0.5301
 2877TIP3   OH230121   0.508   4.988   1.008 -0.3782 -0.0695 -0.0336
 2877TIP3    H130122   0.413   4.979   1.017 -0.5386  1.2532 -0.1329
 2877TIP3    H230123   0.543   4.901   1.027 -1.6284 -0.6473 -0.2899
 2878TIP3   OH230124   0.961   0.350   4.901 -0.4444  0.1817 -1.0486
 2878TIP3    H130125   0.930   0.433   4.938 -1.3419  1.5595 -4.5070
 2878TIP3    H230126   0.933   0.284   4.964 -1.3408  2.3167  0.9390
 2879TIP3   OH230127   2.720   1.415  11.878  0.1635 -0.1951  0.3722
 2879TIP3    H130128   2.688   1.335  11.835  0.7127  0.3339 -1.0815
 2879TIP3    H230129   2.815   1.410  11.869  0.2354  0.2982  0.8629
 2880TIP3   OH230130   0.515   0.951   5.911  0.1018 -0.0503  0.3104
 2880TIP3    H130131   0.538   1.043   5.922  1.4198 -0.3760  0.4433
 2880TIP3    H230132   0.595   0.909   5.881 -1.0621 -0.7673 -2.1292
 2881TIP3   OH230133   2.224   5.303   0.276  0.1508  0.0352  0.1584
 2881TIP3    H130134   2.183   5.389   0.284 -0.6011 -0.3757  1.0420
 2881TIP3    H230135   2.312   5.320   0.243 -0.6342  0.9770 -1.5273
 2882TIP3   OH230136   5.994   0.866  12.860 -0.3538  0.3632  0.5480
 2882TIP3    H130137   5.978   0.950  12.904 -0.1453  0.2647  0.8141
 2882TIP3    H230138   5.908   0.839  12.828 -0.3385  0.9292  0.0064
 2883TIP3   OH230139   1.730   1.356   3.396  0.0528 -0.4885 -0.3939
 2883TIP3    H130140   1.791   1.283   3.396  0.9742  0.2247 -1.8796
 2883TIP3    H230141   1.760   1.413   3.466 -1.2229 -1.9048  1.3997
 2884TIP3   OH230142   2.227   3.775   3.778  0.0382 -0.3382 -0.6495
 2884TIP3    H130143   2.216   3.692   3.823 -0.1588 -0.1363 -0.3207
 2884TIP3    H230144   2.205   3.841   3.844 -2.1478 -0.0802 -1.5610
 2885TIP3   OH230145   6.837   1.989  13.287 -0.3604 -0.2657  0.0062
 2885TIP3    H130146   6.887   1.977  13.207  2.4007 -0.0075  1.5620
 2885TIP3    H230147   6.782   1.910  13.293  0.2738 -0.8607 -1.4991
 2886TIP3   OH230148   4.450   3.693  12.903  0.5105 -0.3094  0.2834
 2886TIP3    H130149   4.421   3.658  12.819  1.3094  1.3570 -0.7354
 2886TIP3    H230150   4.460   3.616  12.959  0.0302 -1.4667 -1.1644
 2887TIP3   OH230151   4.439   5.825  13.885 -0.8338 -0.5413 -0.2780
 2887TIP3    H130152   4.362   5.881  13.871  0.0361  0.6683 -0.4498
 2887TIP3    H230153   4.501   5.882  13.929 -0.6789 -2.0473  1.5505
 2888TIP3   OH230154   0.175   1.089   3.576  0.2598 -0.3611  0.3712
 2888TIP3    H130155   0.141   1.173   3.544 -1.1272 -0.6759  0.9508
 2888TIP3    H230156   0.270   1.099   3.573  0.2297  2.5169  3.6563
 2889TIP3   OH230157   3.236   6.458  12.256  0.2804 -0.2610  0.2926
 2889TIP3    H130158   3.195   6.464  12.342 -1.0066  1.3478 -0.3756
 2889TIP3    H230159   3.306   6.522  12.258 -0.7675  0.9441 -0.3436
 2890TIP3   OH230160   3.262   1.425   5.087 -0.1285  0.0017 -0.7731
 2890TIP3    H130161   3.222   1.458   5.007  0.6712  0.2631 -1.0740
 2890TIP3    H230162   3.346   1.471   5.093 -0.3179  0.2271  0.3813
 2891TIP3   OH230163   0.329   2.062  14.476  0.0850 -0.0681 -0.3527
 2891TIP3    H130164   0.238   2.050  14.447  0.4905 -0.3692 -1.5779
 2891TIP3    H230165   0.331   2.152  14.508 -0.4638  0.2347 -1.1047
 2892TIP3   OH230166   0.371   4.444  15.390 -0.0721 -0.2242  0.2622
 2892TIP3    H130167   0.338   4.400  15.312  0.3895 -1.3986  0.7107
 2892TIP3    H230168   0.310   4.516  15.405 -1.6576 -1.5178  0.2912
 2893TIP3   OH230169   5.020   1.544  16.092  0.2371 -0.0111 -0.0396
 2893TIP3    H130170   5.116   1.546  16.095  0.2483 -0.1277 -0.3008
 2893TIP3    H230171   4.999   1.455  16.065  0.0766  0.2452 -0.7759
 2894TIP3   OH230172   2.535   6.200  16.133 -0.0269  0.6423 -0.2074
 2894TIP3    H130173   2.563   6.242  16.214 -0.7902  0.2146  0.2918
 2894TIP3    H230174   2.507   6.112  16.160 -0.4988  0.5714 -0.9016
 2895TIP3   OH230175   1.702   3.939  14.191 -0.3157  0.1970 -0.0474
 2895TIP3    H130176   1.631   3.916  14.251 -1.0360 -0.4200 -1.1211
 2895TIP3    H230177   1.716   3.860  14.139  1.4970  0.1416  0.4577
 2896TIP3   OH230178   0.835   3.228   5.693 -0.1082 -0.2866 -0.0492
 2896TIP3    H130179   0.822   3.315   5.730 -0.1836 -0.4453  0.2977
 2896TIP3    H230180   0.864   3.174   5.766  0.9423 -0.3187 -0.4748
 2897TIP3   OH230181   4.473   0.359  15.750 -0.2460 -0.4261  0.1834
 2897TIP3    H130182   4.470   0.329  15.659  0.3658  0.7118 -0.2243
 2897TIP3    H230183   4.507   0.448  15.745 -3.7309  1.1252  1.1807
 2898TIP3   OH230184   0.690   0.482   4.944 -0.3466  0.5409  0.4655
 2898TIP3    H130185   0.732   0.567   4.955 -2.0558  1.4098  0.5923
 2898TIP3    H230186   0.620   0.497   4.880  0.5088 -1.2300 -0.9893
 2899TIP3   OH230187   1.808   5.760  15.147  0.1914  0.7276 -0.2060
 2899TIP3    H130188   1.777   5.769  15.237 -1.1480  0.1366 -0.5808
 2899TIP3    H230189   1.837   5.669  15.140  0.3959  0.8027 -0.3360
 2900TIP3   OH230190   4.340   2.368  12.444  0.1895 -0.3096  0.1956
 2900TIP3    H130191   4.428   2.377  12.480  0.0693 -0.6341  0.5682
 2900TIP3    H230192   4.352   2.314  12.366  0.1611 -1.3546  0.8984
 2901TIP3   OH230193   0.686   5.399  15.447 -0.3125  0.2791  0.4802
 2901TIP3    H130194   0.731   5.380  15.364  1.2482  2.8612  0.6179
 2901TIP3    H230195   0.596   5.370  15.433  0.4779 -1.6011 -1.2046
 2902TIP3   OH230196   3.427   0.659   0.463 -0.2067 -0.1952 -0.2783
 2902TIP3    H130197   3.335   0.634   0.468 -0.2255  0.0047  0.3730
 2902TIP3    H230198   3.475   0.576   0.469 -0.3634 -0.4701 -2.1157
 2903TIP3   OH230199   2.141   1.728   5.769 -0.3451  0.3254  0.1706
 2903TIP3    H130200   2.147   1.633   5.756  0.2348  0.3093  0.4832
 2903TIP3    H230201   2.232   1.756   5.780 -0.2265  1.3399 -2.6757
 2904TIP3   OH230202   1.040   0.868   5.521  0.4656  0.2327 -0.6565
 2904TIP3    H130203   1.112   0.931   5.523  0.4896  0.2020 -0.5172
 2904TIP3    H230204   1.054   0.818   5.441 -1.2519  2.3623 -2.3988
 2905TIP3   OH230205   5.664   2.511   1.424 -0.6713  0.2101  0.4009
 2905TIP3    H130206   5.576   2.482   1.398 -1.3313  0.3708  2.3247
 2905TIP3    H230207   5.649   2.591   1.474  0.4995 -0.1272  1.3283
 2906TIP3   OH230208   1.886   5.546  10.281 -0.3027 -0.0886  0.2908
 2906TIP3    H130209   1.807   5.568  10.331 -0.1096 -1.5174  1.2723
 2906TIP3    H230210   1.921   5.468  10.324  1.3834  0.2254 -0.4386
 2907TIP3   OH230211   0.352   1.050   3.019  0.0166 -0.2144 -0.3560
 2907TIP3    H130212   0.334   0.963   3.055  0.0710  0.0205  0.2429
 2907TIP3    H230213   0.296   1.055   2.941  0.1449 -0.8516 -0.4966
 2908TIP3   OH230214   6.699   2.575   0.357  0.0672 -0.2208 -0.2107
 2908TIP3    H130215   6.632   2.614   0.413  0.2710  1.2242 -0.9092
 2908TIP3    H230216   6.698   2.629   0.278  0.8058 -1.2976 -0.9930
 2909TIP3   OH230217   1.668   1.525  11.471 -0.0640  0.0624 -0.5122
 2909TIP3    H130218   1.725   1.461  11.514  0.2659  0.4837 -0.3091
 2909TIP3    H230219   1.725   1.568  11.407 -0.7523 -1.1153 -1.9684
 2910TIP3   OH230220   6.854   2.398  15.837 -0.0472  0.0157  0.5908
 2910TIP3    H130221   6.821   2.487  15.827 -0.0569  0.1663  1.8625
 2910TIP3    H230222   6.925   2.391  15.773  0.3024  1.1128  0.8486
 2911TIP3   OH230223   5.140   2.691   2.856  0.0254 -0.1021  0.3294
 2911TIP3    H130224   5.105   2.674   2.769  0.1031  0.6523  0.1446
 2911TIP3    H230225   5.146   2.605   2.897  0.9967 -0.5779 -0.7888
 2912TIP3   OH230226   5.000   1.454   0.996  0.5124 -0.3571  0.1597
 2912TIP3    H130227   4.989   1.362   0.971 -1.4722 -0.9438  2.8090
 2912TIP3    H230228   4.912   1.485   1.013  1.2272  1.8352  0.1525
 2913TIP3   OH230229   0.053   3.401  14.799  0.1219 -0.2725 -0.3097
 2913TIP3    H130230   0.031   3.315  14.765 -0.2062 -0.0396 -0.6881
 2913TIP3    H230231   0.001   3.462  14.747  2.4160  0.3935 -1.9996
 2914TIP3   OH230232   2.774   2.214   1.146 -0.1251 -0.2430 -0.0678
 2914TIP3    H130233   2.680   2.228   1.151 -0.2022 -1.0375  1.2868
 2914TIP3    H230234   2.795   2.162   1.224  1.2127 -1.2984 -1.0677
 2915TIP3   OH230235   2.414   5.191  13.591  0.0868 -0.5574 -0.5366
 2915TIP3    H130236   2.462   5.261  13.634  2.5023 -0.9625 -2.3432
 2915TIP3    H230237   2.397   5.224  13.503 -0.6112 -1.4392 -0.7431
 2916TIP3   OH230238   6.133   2.352  16.112  0.2387  0.1058 -0.5215
 2916TIP3    H130239   6.154   2.377  16.022 -1.7447  1.7702 -0.6026
 2916TIP3    H230240   6.193   2.404  16.166 -0.3415  1.1407 -0.8461
 2917TIP3   OH230241   0.088   3.631  16.346  0.2728  0.0710 -0.3656
 2917TIP3    H130242   0.015   3.663  16.398  1.5775  0.4361  1.3304
 2917TIP3    H230243   0.048   3.572  16.282 -1.3371 -1.1896  1.6824
 2918TIP3   OH230244   0.807   6.297   5.940  0.4098 -0.5439 -0.1212
 2918TIP3    H130245   0.868   6.297   6.014  0.1367  0.3215  0.1161
 2918TIP3    H230246   0.848   6.356   5.876 -0.7873  1.1207  0.5794
 2919TIP3   OH230247   5.324   6.473  12.264 -0.0646  0.0005  0.1142
 2919TIP3    H130248   5.259   6.425  12.316 -0.8187  1.2966  0.4180
 2919TIP3    H230249   5.301   6.454  12.173 -0.8926  0.4429  0.2196
 2920TIP3   OH230250   0.840   3.680  11.104 -0.6107 -0.1874  0.3545
 2920TIP3    H130251   0.807   3.721  11.024  3.1064  0.5069 -1.0211
 2920TIP3    H230252   0.876   3.752  11.155  1.3776 -1.0910  0.3219
 2921TIP3   OH230253   4.806   2.777  15.903  0.0205 -0.0954  0.3853
 2921TIP3    H130254   4.845   2.847  15.955  0.2980  0.4658 -0.5632
 2921TIP3    H230255   4.744   2.735  15.963  1.8246 -0.8209  1.8338
 2922TIP3   OH230256   0.563   2.934  15.215  0.1422  0.3897 -0.1015
 2922TIP3    H130257   0.646   2.932  15.261  0.7033  0.2243 -1.0856
 2922TIP3    H230258   0.534   2.843  15.213  1.2723  0.0179 -2.0483
 2923TIP3   OH230259   1.559   3.961  10.596  0.2795  0.0847 -0.0952
 2923TIP3    H130260   1.476   3.918  10.617 -0.1836  1.3982  0.8930
 2923TIP3    H230261   1.581   3.931  10.508 -2.0191  0.8666 -0.9887
 2924TIP3   OH230262   4.356   3.094   6.306 -0.4389  1.4239 -1.1530
 2924TIP3    H130263   4.292   3.028   6.333 -0.3954  2.0243  0.6020
 2924TIP3    H230264   4.429   3.082   6.367  0.9451  1.0495 -2.8352
 2925TIP3   OH230265   2.773   0.297   3.769 -0.3187 -0.2499 -0.5149
 2925TIP3    H130266   2.755   0.387   3.796  0.0297  0.4052 -2.3146
 2925TIP3    H230267   2.857   0.301   3.723 -0.5895 -1.3663 -1.1634
 2926TIP3   OH230268   2.666   2.948   3.327 -0.0703 -0.6433 -0.4739
 2926TIP3    H130269   2.661   2.940   3.232 -0.3803  0.6139 -0.5768
 2926TIP3    H230270   2.702   3.035   3.342  2.6846 -1.8109  0.5481
 2927TIP3   OH230271   1.691   3.010  12.085 -1.1016  0.1634  0.4136
 2927TIP3    H130272   1.692   3.100  12.117 -0.5380  0.3701 -0.1519
 2927TIP3    H230273   1.598   2.991  12.068 -1.4270  0.0114  2.2040
 2928TIP3   OH230274   0.269   5.617   2.897  1.1682  0.0205  0.3476
 2928TIP3    H130275   0.325   5.628   2.974  2.4401  0.7335 -0.6366
 2928TIP3    H230276   0.238   5.705   2.877  0.6440 -0.1959  0.2002
 2929TIP3   OH230277   1.531   4.953  14.566  0.5678  0.2921 -0.4841
 2929TIP3    H130278   1.623   4.939  14.546  0.1370 -0.7427 -1.9503
 2929TIP3    H230279   1.498   5.005  14.493 -0.0273  0.5887 -0.0137
 2930TIP3   OH230280   5.002   1.135   1.158  0.2681 -0.1498 -0.8996
 2930TIP3    H130281   5.089   1.152   1.195 -0.0200  0.4852 -0.4961
 2930TIP3    H230282   4.982   1.045   1.183  1.3530 -0.7630 -2.1131
 2931TIP3   OH230283   4.188   6.536   0.780  0.1783 -0.2738 -0.3577
 2931TIP3    H130284   4.190   6.627   0.749 -1.9416  0.1829  0.5977
 2931TIP3    H230285   4.243   6.537   0.858  1.6295 -0.2761 -1.3494
 2932TIP3   OH230286   5.758   4.126   2.618  0.4781 -0.1663  0.7162
 2932TIP3    H130287   5.671   4.138   2.654  0.6854 -1.6891  1.8361
 2932TIP3    H230288   5.798   4.058   2.673  2.0054 -0.2205 -0.3803
 2933TIP3   OH230289   2.285   2.403   4.846 -0.2181  0.4193  0.8518
 2933TIP3    H130290   2.361   2.359   4.883 -0.3143 -2.0827 -1.5778
 2933TIP3    H230291   2.282   2.373   4.755 -3.0542  1.8991  0.3315
 2934TIP3   OH230292   1.166   6.393   3.401 -0.1342  0.6129  0.0671
 2934TIP3    H130293   1.161   6.355   3.313 -0.8715  0.9282 -0.0406
 2934TIP3    H230294   1.081   6.374   3.440 -0.0822  1.1126  0.4386
 2935TIP3   OH230295   0.777   6.855   3.154 -0.6118 -0.4937 -0.4827
 2935TIP3    H130296   0.738   6.776   3.116  1.3046 -1.6431 -0.1762
 2935TIP3    H230297   0.777   6.919   3.083 -2.1405 -0.7616 -0.7546
 2936TIP3   OH230298   2.483   4.361   4.028  0.4616 -0.1685 -0.1388
 2936TIP3    H130299   2.520   4.317   3.952  0.5751  1.6588 -1.2172
 2936TIP3    H230300   2.498   4.454   4.012  0.3710  0.3015  2.0771
 2937TIP3   OH230301   1.522   3.456   1.939  0.9054  0.9499 -0.1601
 2937TIP3    H130302   1.456   3.477   1.873 -1.2628 -1.6771  0.9758
 2937TIP3    H230303   1.539   3.540   1.982 -1.4284  1.8454 -0.7724
 2938TIP3   OH230304   0.640   2.370  14.368  0.2175  0.0554 -0.0133
 2938TIP3    H130305   0.672   2.448  14.322  1.4510 -0.4754 -0.0963
 2938TIP3    H230306   0.631   2.397  14.459  1.1832  0.1568  0.0623
 2939TIP3   OH230307   4.857   5.046  13.814  0.0742 -0.7663  0.1543
 2939TIP3    H130308   4.949   5.049  13.790  0.0136 -0.7175 -0.0711
 2939TIP3    H230309   4.855   5.081  13.904  0.1450  0.2825 -0.2330
 2940TIP3   OH230310   2.057   0.578  11.573 -0.7029 -0.2791  0.2185
 2940TIP3    H130311   2.122   0.524  11.528 -0.8540 -1.1713  1.0208
 2940TIP3    H230312   2.020   0.634  11.504 -0.5671 -1.2337 -0.6661
 2941TIP3   OH230313   1.560   2.427   3.794 -0.3580 -0.3310  0.1180
 2941TIP3    H130314   1.558   2.501   3.734  1.9613  0.3773  0.7939
 2941TIP3    H230315   1.558   2.350   3.738  0.3651  0.2989 -0.8078
 2942TIP3   OH230316   2.748   6.631  10.904 -0.0611  0.2008  0.8507
 2942TIP3    H130317   2.730   6.646  10.811  0.2652  0.1070  0.7691
 2942TIP3    H230318   2.759   6.719  10.941  1.9717  0.2249  0.3474
 2943TIP3   OH230319   3.645   3.874   5.023  0.4629  0.2058  0.3357
 2943TIP3    H130320   3.614   3.960   4.996  0.5118 -0.1835 -1.0391
 2943TIP3    H230321   3.738   3.874   4.999  0.6194  0.0104  0.9405
 2944TIP3   OH230322   2.569   2.286   6.153  0.2723 -0.0267  0.0623
 2944TIP3    H130323   2.568   2.246   6.241 -0.2831  1.1491  0.6133
 2944TIP3    H230324   2.638   2.352   6.158 -0.0365  0.3221 -0.2482
 2945TIP3   OH230325   6.790   0.378   4.427  0.3530  0.0211  0.0878
 2945TIP3    H130326   6.733   0.448   4.395 -0.2832 -0.3054  0.4863
 2945TIP3    H230327   6.809   0.325   4.349 -2.1157 -1.4360  0.3476
 2946TIP3   OH230328   2.952   4.857   2.467  0.4762  0.0350 -0.0281
 2946TIP3    H130329   2.879   4.899   2.421 -1.1231 -0.0459  2.2525
 2946TIP3    H230330   3.013   4.929   2.487 -1.4473  1.1718  2.3937
 2947TIP3   OH230331   5.522   5.098  16.877 -0.3141  0.4076  0.6665
 2947TIP3    H130332   5.563   5.176  16.914 -0.5145  1.3609 -0.9785
 2947TIP3    H230333   5.428   5.112  16.889 -0.2986 -0.6631  2.3338
 2948TIP3   OH230334   2.820   6.567  15.579 -0.5093  0.2821  0.1092
 2948TIP3    H130335   2.881   6.639  15.597  0.9029 -0.8965  0.2312
 2948TIP3    H230336   2.753   6.575  15.647  0.2715  0.7736  0.8444
 2949TIP3   OH230337   0.802   0.026  12.638 -0.0405  0.2180  0.5845
 2949TIP3    H130338   0.714   0.012  12.601 -0.3726  0.8487  1.1313
 2949TIP3    H230339   0.797  -0.011  12.726  0.7900 -1.3907 -0.0005
 2950TIP3   OH230340   0.151   2.604  16.857 -0.2657 -0.4751 -0.7475
 2950TIP3    H130341   0.093   2.658  16.803 -0.4727  1.2252  1.0839
 2950TIP3    H230342   0.224   2.662  16.880  0.2219 -1.4084  0.1352
 2951TIP3   OH230343   1.977   2.152  11.805 -0.4351  0.0544  0.1112
 2951TIP3    H130344   1.958   2.245  11.821  2.5696  0.6117  1.1037
 2951TIP3    H230345   2.011   2.150  11.716  1.4773  0.3343  0.7894
 2952TIP3   OH230346   6.304   6.171   0.307  0.5296  0.6052 -0.1078
 2952TIP3    H130347   6.344   6.229   0.371 -0.0872  0.6049  0.2868
 2952TIP3    H230348   6.279   6.093   0.358  0.7677  0.2642 -0.5056
 2953TIP3   OH230349   3.322   1.930   0.341 -0.1036  0.3460  0.4042
 2953TIP3    H130350   3.265   1.853   0.349  0.1342  0.1706  0.4387
 2953TIP3    H230351   3.306   1.979   0.422  0.8679 -0.4477  1.1034
 2954TIP3   OH230352   6.175   5.197  15.075 -0.8066 -0.3783 -0.0165
 2954TIP3    H130353   6.124   5.207  15.155 -0.6836  2.0100 -0.1851
 2954TIP3    H230354   6.229   5.119  15.091 -3.6024 -2.3430  0.5930
 2955TIP3   OH230355   1.434   6.777  15.446  0.0541 -0.0269 -0.0170
 2955TIP3    H130356   1.484   6.757  15.525 -0.6933 -0.6832  0.3037
 2955TIP3    H230357   1.499   6.806  15.382  0.6535  0.5971  0.8699
 2956TIP3   OH230358   0.456   5.091  13.746  0.9292 -0.4911 -0.1019
 2956TIP3    H130359   0.489   5.033  13.814  0.6230 -0.8745 -0.2714
 2956TIP3    H230360   0.398   5.035  13.694 -0.2958  0.2461  0.4201
 2957TIP3   OH230361   0.462   3.899   1.078  0.7476 -0.0575 -0.2984
 2957TIP3    H130362   0.406   3.874   1.152 -0.0557 -2.5971 -1.6737
 2957TIP3    H230363   0.420   3.978   1.043  0.3772  0.4091  1.1064
 2958TIP3   OH230364   5.907   2.186   6.042  0.3639  0.3649  0.1569
 2958TIP3    H130365   5.820   2.207   6.075  0.2303  1.2276 -0.6749
 2958TIP3    H230366   5.901   2.201   5.948  1.5393  0.9502  0.1463
 2959TIP3   OH230367   2.915   4.519  12.710  0.5586  0.0464 -0.5838
 2959TIP3    H130368   2.998   4.471  12.707  1.5494  1.6220 -0.0950
 2959TIP3    H230369   2.848   4.454  12.690  1.9341 -1.2322 -1.2288
 2960TIP3   OH230370   6.848   4.467  12.368 -0.5673 -0.0775 -0.0698
 2960TIP3    H130371   6.854   4.511  12.283 -0.2285  1.4638  0.7336
 2960TIP3    H230372   6.907   4.392  12.360  0.4048  0.7426 -0.7792
 2961TIP3   OH230373   4.843   0.300  13.994 -0.1628 -0.3081  0.3051
 2961TIP3    H130374   4.905   0.232  14.019 -1.6464 -1.7357  0.3000
 2961TIP3    H230375   4.880   0.339  13.915  0.1219 -2.0353 -0.4634
 2962TIP3   OH230376   1.160   3.928  15.797  0.4071  0.3438 -0.1195
 2962TIP3    H130377   1.246   3.900  15.765  0.4524 -0.4217  0.6315
 2962TIP3    H230378   1.147   3.879  15.878 -1.7382 -1.3598 -1.3673
 2963TIP3   OH230379   3.590   0.454   4.319  0.6049 -0.4173  0.0845
 2963TIP3    H130380   3.584   0.455   4.224 -0.0403  0.8421  0.1166
 2963TIP3    H230381   3.511   0.408   4.348  0.4519 -0.1973  0.0201
 2964TIP3   OH230382   0.810   5.651  12.430  0.0784  0.6991  0.0658
 2964TIP3    H130383   0.847   5.666  12.343  0.3230  0.4879  0.1340
 2964TIP3    H230384   0.837   5.728  12.481  0.0829  0.7387  0.0043
 2965TIP3   OH230385   0.622   2.137  10.294  0.1428  0.2205  0.4121
 2965TIP3    H130386   0.624   2.158  10.201 -0.4547  0.5652  0.4680
 2965TIP3    H230387   0.633   2.042  10.298  1.2697  0.3159  0.0567
 2966TIP3   OH230388   3.083   3.929   2.949  0.0658 -0.0595 -0.0437
 2966TIP3    H130389   3.053   3.855   2.896 -3.3737  1.1041  0.0324
 2966TIP3    H230390   3.018   3.937   3.019  2.0991  1.1232  1.8485
 2967TIP3   OH230391   6.856   4.568  13.136  0.1412 -0.5776 -0.2265
 2967TIP3    H130392   6.888   4.608  13.054  1.3655 -0.1996  0.4029
 2967TIP3    H230393   6.761   4.562  13.124  0.0889  1.0517 -1.0079
 2968TIP3   OH230394   2.656   2.605  14.477 -0.1041 -0.1895 -0.0636
 2968TIP3    H130395   2.700   2.521  14.460  0.4579 -0.3896  2.1091
 2968TIP3    H230396   2.727   2.667  14.491 -0.5138  0.2147  0.2361
 2969TIP3   OH230397   2.756   4.007  17.081  0.0324  0.4070 -0.1244
 2969TIP3    H130398   2.807   3.938  17.123  1.4148  1.4454 -0.0401
 2969TIP3    H230399   2.770   3.993  16.987  0.7805  0.9048 -0.0918
 2970TIP3   OH230400   0.794   5.215  15.661  0.1513  0.5372 -0.0466
 2970TIP3    H130401   0.766   5.254  15.578 -0.2402 -0.6259 -0.4684
 2970TIP3    H230402   0.738   5.256  15.727  0.3742  1.3643 -0.3561
 2971TIP3   OH230403   6.063   0.618  12.178 -0.0098  0.0205  0.1374
 2971TIP3    H130404   6.028   0.706  12.162 -0.5236 -0.3552 -0.8950
 2971TIP3    H230405   6.111   0.597  12.098 -2.1645 -1.7013 -0.7934
 2972TIP3   OH230406   6.054   4.304  15.386 -0.0733 -0.8654 -0.2784
 2972TIP3    H130407   6.149   4.301  15.398 -0.2734 -2.0767  1.5051
 2972TIP3    H230408   6.040   4.374  15.323  1.9025  0.4061  0.5835
 2973TIP3   OH230409   4.328   2.245   0.955 -0.8671 -0.2216 -0.3081
 2973TIP3    H130410   4.362   2.219   0.870 -0.4912 -0.4483 -0.0866
 2973TIP3    H230411   4.361   2.180   1.016 -0.1239  0.6239  0.2124
 2974TIP3   OH230412   3.306   1.423   4.682  0.5545  0.4344  0.3010
 2974TIP3    H130413   3.315   1.329   4.663 -2.8499  0.0354 -0.0826
 2974TIP3    H230414   3.320   1.466   4.598 -2.1914 -0.2388 -0.6206
 2975TIP3   OH230415   1.325   3.216   0.572  0.0813  0.1101 -0.1999
 2975TIP3    H130416   1.283   3.171   0.499 -0.9264 -0.7961  0.9079
 2975TIP3    H230417   1.333   3.307   0.542 -2.0843  0.1850 -0.7322
 2976TIP3   OH230418   1.365   4.967  15.998  0.1771  0.5935 -0.1892
 2976TIP3    H130419   1.406   5.053  15.982  1.6767  0.2163  1.3630
 2976TIP3    H230420   1.367   4.957  16.093  3.0655 -2.5303 -0.3941
 2977TIP3   OH230421   6.032   4.028  16.239  0.0747  0.6069 -0.3292
 2977TIP3    H130422   6.081   4.100  16.278 -1.2911  1.3544  0.0685
 2977TIP3    H230423   5.972   4.070  16.178 -1.0263 -0.1341  0.2108
 2978TIP3   OH230424   4.431   4.173   2.335 -0.6448  0.3311  0.0162
 2978TIP3    H130425   4.375   4.096   2.342  0.4075 -0.7178 -2.1603
 2978TIP3    H230426   4.485   4.156   2.258  1.3622  2.1365  0.9372
 2979TIP3   OH230427   6.840   3.794  12.060  0.3663 -0.0949 -0.9719
 2979TIP3    H130428   6.918   3.739  12.059  0.3381 -0.5074  3.3659
 2979TIP3    H230429   6.767   3.732  12.050  0.4439 -0.5811  1.1279
 2980TIP3   OH230430   0.674   1.387   5.292 -0.3680  0.7443 -0.0568
 2980TIP3    H130431   0.697   1.309   5.343  1.0962  1.1305 -0.0766
 2980TIP3    H230432   0.599   1.425   5.338 -0.4391 -0.1065  0.5518
 2981TIP3   OH230433   3.920   1.062  12.634  0.2667 -0.0587 -0.1315
 2981TIP3    H130434   3.842   1.055  12.689 -0.3344  2.4797 -0.5378
 2981TIP3    H230435   3.914   1.149  12.594  3.8239  0.6700  0.5693
 2982TIP3   OH230436   5.654   4.548   0.968  0.4117 -0.4476  0.4111
 2982TIP3    H130437   5.569   4.557   1.012  0.6683  0.4931  0.7403
 2982TIP3    H230438   5.638   4.579   0.879  0.2743 -0.8212  0.3044
 2983TIP3   OH230439   5.884   5.337  12.309  0.3680 -0.1199  0.1533
 2983TIP3    H130440   5.947   5.332  12.237 -0.2383 -2.7178 -0.2958
 2983TIP3    H230441   5.799   5.336  12.266 -0.0047 -1.6874  0.8523
 2984TIP3   OH230442   0.974   1.797   5.461  0.3373  0.2747  0.3484
 2984TIP3    H130443   0.894   1.805   5.408 -0.0117 -0.6595  0.7250
 2984TIP3    H230444   0.949   1.832   5.547  0.0390 -0.8946  0.7518
 2985TIP3   OH230445   1.362   1.365  15.209  0.2005  0.1547  0.5142
 2985TIP3    H130446   1.372   1.424  15.284 -0.1011  0.8698 -0.0036
 2985TIP3    H230447   1.290   1.402  15.158  0.1814 -0.5121  0.0402
 2986TIP3   OH230448   1.703   1.975  11.117 -0.1485 -0.0779  0.4749
 2986TIP3    H130449   1.776   1.933  11.162 -1.1575 -1.6234  0.7395
 2986TIP3    H230450   1.697   1.930  11.033 -1.7226 -1.0455  1.0706
 2987TIP3   OH230451   2.304   2.345  14.431 -0.1697  0.2187  0.7229
 2987TIP3    H130452   2.341   2.416  14.378  1.1492  0.6292  2.0985
 2987TIP3    H230453   2.376   2.319  14.489 -1.0002 -1.4488  1.0637
 2988TIP3   OH230454   2.141   3.646   2.364  0.3450 -0.4924  0.0239
 2988TIP3    H130455   2.148   3.584   2.437 -0.3940  0.2792  0.7784
 2988TIP3    H230456   2.229   3.683   2.355  0.3109 -0.1770  0.9135
 2989TIP3   OH230457   6.491   5.880  10.950  0.8239 -0.0364  0.3100
 2989TIP3    H130458   6.565   5.888  11.010  0.5233  1.0885  0.5416
 2989TIP3    H230459   6.524   5.912  10.866  1.0325 -0.9476  0.0304
 2990TIP3   OH230460   6.179   1.802   4.951 -0.0383  0.0928  0.1020
 2990TIP3    H130461   6.111   1.814   5.017 -1.7897  0.0480 -1.6146
 2990TIP3    H230462   6.252   1.762   4.999 -1.5049 -0.6409  1.8404
 2991TIP3   OH230463   6.357   3.130  11.289  0.2873 -0.2007 -0.5095
 2991TIP3    H130464   6.381   3.183  11.212  2.3741  0.6159  0.6196
 2991TIP3    H230465   6.434   3.075  11.304 -0.6394 -1.3385  0.2124
 2992TIP3   OH230466   0.461   1.353   4.443  0.2805  0.1652  0.3191
 2992TIP3    H130467   0.401   1.322   4.375 -0.5969  1.0438  0.6568
 2992TIP3    H230468   0.536   1.294   4.439 -0.1752 -0.3559 -0.7849
 2993TIP3   OH230469   4.971   4.161   6.067  0.2760 -0.3658 -0.0339
 2993TIP3    H130470   5.058   4.157   6.029  0.3111 -1.5911  0.1447
 2993TIP3    H230471   4.977   4.229   6.134  1.5167 -1.4617  1.0034
 2994TIP3   OH230472   1.338   2.234  13.500  0.2279 -0.2781 -0.2691
 2994TIP3    H130473   1.304   2.300  13.439 -2.1473 -1.9337 -0.8967
 2994TIP3    H230474   1.358   2.159  13.444 -1.4558 -1.6299  0.8466
 2995TIP3   OH230475   2.097   3.326   2.148  0.0592 -0.0964  0.0280
 2995TIP3    H130476   2.025   3.291   2.200 -0.3574 -3.7958 -2.6421
 2995TIP3    H230477   2.176   3.294   2.193 -0.0843  0.5113  0.7358
 2996TIP3   OH230478   0.085   6.548   3.006  0.0874  0.2338 -0.5232
 2996TIP3    H130479   0.007   6.587   2.966 -0.9977 -0.5940  0.6677
 2996TIP3    H230480   0.158   6.588   2.961 -1.0302 -0.6609 -3.3284
 2997TIP3   OH230481   1.639   3.843  13.253  0.3434  0.3905 -0.2902
 2997TIP3    H130482   1.610   3.762  13.211  0.2969  0.3241 -0.1311
 2997TIP3    H230483   1.567   3.905  13.238  0.2486  0.3140 -0.1562
 2998TIP3   OH230484   6.761   2.453  11.897  0.1301 -0.5641 -0.2276
 2998TIP3    H130485   6.740   2.488  11.810  1.3472  1.7011  0.3137
 2998TIP3    H230486   6.707   2.504  11.957  0.8952 -0.6011  0.5064
 2999TIP3   OH230487   0.454   0.502   5.224 -0.0087  0.0179 -0.5808
 2999TIP3    H130488   0.486   0.432   5.168  0.0042  0.1569 -0.7496
 2999TIP3    H230489   0.395   0.553   5.168  0.9515  0.8737 -0.8461
 3000TIP3   OH230490   2.262   1.591   4.885  0.2742 -0.2314 -0.3112
 3000TIP3    H130491   2.220   1.525   4.940  1.0431  1.2281  2.2036
 3000TIP3    H230492   2.231   1.674   4.921  2.1264  0.8178 -1.0069
 3001TIP3   OH230493   0.099   4.657  12.565  0.5347  0.8620  0.3516
 3001TIP3    H130494   0.146   4.589  12.614 -2.4659  0.7506  3.4355
 3001TIP3    H230495   0.044   4.609  12.504 -0.1531  0.5724  1.1759
 3002TIP3   OH230496   6.625   1.365  14.864  0.4189 -0.0628 -0.3467
 3002TIP3    H130497   6.553   1.339  14.921 -0.3527 -0.3260 -1.4230
 3002TIP3    H230498   6.698   1.381  14.924  0.5875 -3.3941  0.5382
 3003TIP3   OH230499   0.932   0.461  12.742  0.4374 -0.2540 -0.4258
 3003TIP3    H130500   0.970   0.548  12.752  0.0130  0.3973 -3.5097
 3003TIP3    H230501   1.005   0.407  12.711  0.5147 -0.8328  0.7290
 3004TIP3   OH230502   2.718   6.683   1.692 -0.1788 -0.6075  0.0107
 3004TIP3    H130503   2.709   6.775   1.720 -0.1889 -0.9725  1.2610
 3004TIP3    H230504   2.719   6.688   1.597 -1.6774  0.5652  0.0074
 3005TIP3   OH230505   6.021   3.499   2.085  0.4492  0.1516 -0.2392
 3005TIP3    H130506   5.935   3.539   2.072  0.5680  0.0805 -1.4127
 3005TIP3    H230507   6.077   3.543   2.021  1.5696  0.9740  1.2612
 3006TIP3   OH230508   3.713   5.454   0.074 -0.3341 -0.5335 -0.3153
 3006TIP3    H130509   3.660   5.505   0.012 -0.3373 -1.1861 -0.8524
 3006TIP3    H230510   3.678   5.478   0.160 -0.1625  0.5763 -0.5346
 3007TIP3   OH230511   2.028   6.350   2.364  0.3249 -0.0412  0.0215
 3007TIP3    H130512   2.111   6.365   2.410  1.3148  0.1522 -1.7319
 3007TIP3    H230513   2.054   6.322   2.276 -1.4899 -0.4971 -0.4169
 3008TIP3   OH230514   1.243   4.035  15.154 -0.5790  0.1470 -0.1292
 3008TIP3    H130515   1.195   4.082  15.222 -0.0872  1.8159 -0.8987
 3008TIP3    H230516   1.332   4.028  15.187 -0.8032 -0.9219  0.2955
 3009TIP3   OH230517   3.847   2.160   3.264  0.7800  0.1182 -0.3456
 3009TIP3    H130518   3.843   2.187   3.173  0.4374  1.8626  0.1571
 3009TIP3    H230519   3.775   2.205   3.307  1.9234  0.6717  1.1059
 3010TIP3   OH230520   6.391   4.468   0.326 -0.7726  0.3297  0.0699
 3010TIP3    H130521   6.339   4.533   0.279 -3.5293 -2.0631 -0.5270
 3010TIP3    H230522   6.328   4.426   0.385  1.0788 -1.1603  1.0986
 3011TIP3   OH230523   4.631   4.595   3.052  0.2695  0.2065 -0.0926
 3011TIP3    H130524   4.635   4.509   3.011 -1.6237 -1.0173  2.1204
 3011TIP3    H230525   4.552   4.635   3.016  2.7737  2.6066 -3.6876
 3012TIP3   OH230526   6.576   1.416   4.128  0.1985  0.2775 -0.5771
 3012TIP3    H130527   6.494   1.465   4.126 -0.0018 -0.0697 -0.9146
 3012TIP3    H230528   6.580   1.381   4.217  0.5700  1.2787 -0.1857
 3013TIP3   OH230529   3.754   2.724   2.894  0.4546 -0.3612  0.1743
 3013TIP3    H130530   3.696   2.749   2.822  0.3242  0.6342  0.6009
 3013TIP3    H230531   3.750   2.798   2.955  2.3636 -0.1517  0.1105
 3014TIP3   OH230532   0.426   1.228   1.081  0.2660  0.1367  0.1772
 3014TIP3    H130533   0.419   1.151   1.024  0.5220 -0.2468  0.6574
 3014TIP3    H230534   0.430   1.302   1.020 -0.0034 -0.2255 -0.2889
 3015TIP3   OH230535   0.971   6.180   4.545  0.3273  0.3634  0.4150
 3015TIP3    H130536   0.968   6.198   4.451 -0.6731 -2.0286 -0.0782
 3015TIP3    H230537   1.058   6.143   4.559 -0.8497 -3.1760 -0.4968
 3016TIP3   OH230538   5.481   4.412  16.999 -0.2890 -0.4288  0.3646
 3016TIP3    H130539   5.561   4.380  16.957 -0.5393 -0.6804  0.0680
 3016TIP3    H230540   5.446   4.477  16.938  0.8461  1.3296  1.5167
 3017TIP3   OH230541   1.006   5.234  13.173  0.3525  0.6284 -0.0461
 3017TIP3    H130542   0.967   5.310  13.131 -0.2177  0.9473  1.0351
 3017TIP3    H230543   1.042   5.267  13.255  0.3504 -0.2051  0.3032
 3018TIP3   OH230544   0.593   3.806   4.058  0.5324  0.2278  0.5496
 3018TIP3    H130545   0.582   3.842   4.146  0.6507 -0.7776  0.9958
 3018TIP3    H230546   0.684   3.775   4.055  0.3067 -0.4514  0.3599
 3019TIP3   OH230547   4.134   3.273   6.078  0.4383  0.1562  0.0635
 3019TIP3    H130548   4.110   3.254   6.168 -1.1335 -0.1861 -0.3979
 3019TIP3    H230549   4.195   3.204   6.054  2.2336  1.1959  1.3582
 3020TIP3   OH230550   3.578   1.674  12.798 -0.2598  0.9200 -0.0756
 3020TIP3    H130551   3.626   1.699  12.719  0.0667 -1.2508 -0.6456
 3020TIP3    H230552   3.647   1.663  12.864  0.1183 -1.8365 -0.7974
 3021TIP3   OH230553   3.922   1.304  14.921 -0.5697  0.2466 -0.1627
 3021TIP3    H130554   3.872   1.364  14.977 -2.4724 -1.2387 -0.1622
 3021TIP3    H230555   4.007   1.298  14.964 -1.6570 -0.1265  2.1213
 3022TIP3   OH230556   6.178   5.936   5.024  0.2675 -0.3424 -0.0706
 3022TIP3    H130557   6.099   5.990   5.011  0.2940 -0.5478 -1.1732
 3022TIP3    H230558   6.223   5.938   4.939  1.6230  0.0232  0.6259
 3023TIP3   OH230559   1.772   2.326   0.975 -0.0980  0.1542  0.7674
 3023TIP3    H130560   1.695   2.352   0.923 -0.6929 -0.4408  1.3351
 3023TIP3    H230561   1.837   2.394   0.956 -0.3543  0.0486 -0.6242
 3024TIP3   OH230562   4.016   2.036  16.629  0.6275 -0.0626  0.5002
 3024TIP3    H130563   3.997   2.125  16.599  1.3233 -0.1369 -0.2280
 3024TIP3    H230564   3.931   1.995  16.642  0.2547  0.0012 -1.3906
 3025TIP3   OH230565   6.651   6.694  13.795 -0.3306  0.0764  0.1673
 3025TIP3    H130566   6.690   6.608  13.778 -0.9552 -0.0790 -0.5002
 3025TIP3    H230567   6.653   6.738  13.711  0.2325  0.8330  0.5647
 3026TIP3   OH230568   5.178   0.724  10.585 -0.4626  0.4135 -0.2684
 3026TIP3    H130569   5.131   0.714  10.502 -0.5605  0.1135 -0.1748
 3026TIP3    H230570   5.265   0.689  10.567 -1.0320 -1.3438  0.2789
 3027TIP3   OH230571   0.070   1.610  13.840  0.3643 -0.1087  0.1487
 3027TIP3    H130572  -0.014   1.575  13.809  0.2758 -0.7316  1.0525
 3027TIP3    H230573   0.081   1.572  13.927  1.7682 -0.3443 -0.1034
 3028TIP3   OH230574   5.769   4.475  11.172 -0.3093 -0.0797 -0.0790
 3028TIP3    H130575   5.764   4.386  11.206 -0.0080 -0.5797 -1.2925
 3028TIP3    H230576   5.771   4.465  11.077 -1.4818  1.2860 -0.2899
 3029TIP3   OH230577   5.133   6.189   3.942 -0.1513  0.1262 -0.4959
 3029TIP3    H130578   5.093   6.116   3.989  0.0868 -0.0124 -0.5089
 3029TIP3    H230579   5.226   6.168   3.938 -0.0924  0.3893 -0.5741
 3030TIP3   OH230580   3.967   4.015  16.610 -0.2457 -0.3763  0.6582
 3030TIP3    H130581   3.934   3.930  16.579 -2.6497  1.2952 -1.9148
 3030TIP3    H230582   4.040   4.035  16.552 -2.0376  0.8234 -1.3706
 3031TIP3   OH230583   2.967   0.742   1.545 -0.1703  0.0611 -0.5339
 3031TIP3    H130584   2.873   0.759   1.541 -0.2793 -0.4142 -0.0553
 3031TIP3    H230585   3.002   0.815   1.596 -0.3287  0.0449 -0.4004
 3032TIP3   OH230586   1.112   2.595   1.914 -0.3347  0.0898 -0.4741
 3032TIP3    H130587   1.168   2.667   1.945  1.5830 -0.9036 -1.4906
 3032TIP3    H230588   1.120   2.597   1.819 -0.3743 -1.3553 -0.5335
 3033TIP3   OH230589   3.152   2.256   4.177  0.2167  0.3902  0.0736
 3033TIP3    H130590   3.149   2.183   4.116 -0.9987  1.3186 -1.0360
 3033TIP3    H230591   3.176   2.331   4.124  1.4443  0.8270  1.1943
 3034TIP3   OH230592   1.842   0.730  16.524  0.1117 -0.2077 -0.8287
 3034TIP3    H130593   1.752   0.698  16.515 -0.7544  1.9831 -0.7082
 3034TIP3    H230594   1.897   0.654  16.506 -1.7180 -2.6364  2.6158
 3035TIP3   OH230595   3.352   1.765  13.183 -0.4080 -0.1809  0.0292
 3035TIP3    H130596   3.411   1.823  13.134 -0.4733 -0.8389 -0.8608
 3035TIP3    H230597   3.342   1.807  13.268  0.0413  0.7889 -0.3793
 3036TIP3   OH230598   1.932   6.333  13.272  0.1471  0.1616  0.2998
 3036TIP3    H130599   2.012   6.374  13.304 -0.2445  1.2785 -0.1164
 3036TIP3    H230600   1.938   6.242  13.302  1.2916  0.3768  0.7635
 3037TIP3   OH230601   3.837   2.859   4.978 -0.0316  0.7898  0.7796
 3037TIP3    H130602   3.799   2.938   5.018 -1.7482 -0.4413  1.7351
 3037TIP3    H230603   3.930   2.863   4.999 -0.7950  0.2030  5.1420
 3038TIP3   OH230604   0.975   0.857  14.322 -0.8606  0.1517 -1.1639
 3038TIP3    H130605   0.890   0.814  14.313 -1.3157  0.3580  1.4648
 3038TIP3    H230606   0.957   0.937  14.372  1.2144 -1.5088  2.7010
 3039TIP3   OH230607   4.585   3.561  13.479 -0.5323  0.0312  0.2673
 3039TIP3    H130608   4.638   3.560  13.559 -0.0416  3.4326  0.1385
 3039TIP3    H230609   4.498   3.587  13.509 -0.7871 -0.3275 -0.1510
 3040TIP3   OH230610   1.825   5.276  12.920  0.4167  0.3096  0.0129
 3040TIP3    H130611   1.736   5.257  12.890  0.1962  1.4545 -0.1024
 3040TIP3    H230612   1.831   5.372  12.920  1.9542  0.2563 -0.8729
 3041TIP3   OH230613   5.642   2.844   2.205 -0.3269  0.2211 -0.4309
 3041TIP3    H130614   5.666   2.896   2.129  0.2288 -1.7966 -1.7117
 3041TIP3    H230615   5.725   2.808   2.236 -0.6274  0.5290  0.7865
 3042TIP3   OH230616   3.007   2.149   3.201  0.1344  0.2589  0.4207
 3042TIP3    H130617   2.930   2.152   3.258 -0.7132  1.4145 -0.7184
 3042TIP3    H230618   3.064   2.220   3.233  1.1860 -1.1542  1.8191
 3043TIP3   OH230619   5.124   1.400   4.663  1.0093 -0.3885 -0.6732
 3043TIP3    H130620   5.163   1.468   4.607  1.1658  0.3164  0.2608
 3043TIP3    H230621   5.101   1.330   4.603 -3.2070  2.1793 -2.4985
 3044TIP3   OH230622   1.288   6.690   4.741 -0.5153 -0.1721 -0.5752
 3044TIP3    H130623   1.291   6.785   4.728 -2.3604 -0.0494 -0.4538
 3044TIP3    H230624   1.325   6.677   4.828  1.4382  0.2089 -1.2980
 3045TIP3   OH230625   5.153   6.117   5.350 -0.2065 -0.3736 -0.1590
 3045TIP3    H130626   5.068   6.157   5.332 -0.8634 -1.3081  0.7415
 3045TIP3    H230627   5.217   6.187   5.334 -1.1508  0.3888 -0.6900
 3046TIP3   OH230628   5.990   3.898  13.511  0.1185  0.0482 -0.2640
 3046TIP3    H130629   6.012   3.914  13.603 -0.7787  2.0855 -0.3572
 3046TIP3    H230630   5.896   3.878  13.512  0.1448 -0.1177 -0.7395
 3047TIP3   OH230631   5.706   3.393  16.500 -0.8490 -0.4212  0.3809
 3047TIP3    H130632   5.672   3.318  16.451 -0.9389 -0.2858  0.2326
 3047TIP3    H230633   5.747   3.355  16.578 -2.8877 -0.5299  1.5071
 3048TIP3   OH230634   2.152   1.683   2.666 -0.0022 -0.2197  0.0762
 3048TIP3    H130635   2.148   1.755   2.602 -3.4383 -0.8391 -0.6171
 3048TIP3    H230636   2.089   1.708   2.733  0.5204 -1.5097  1.0706
 3049TIP3   OH230637   1.993   0.187  11.491  0.0178  0.6774  0.4970
 3049TIP3    H130638   2.054   0.257  11.469  2.1226 -1.0385  0.4455
 3049TIP3    H230639   2.021   0.157  11.578 -1.1502  0.2292  0.7379
 3050TIP3   OH230640   6.099   2.706   6.852  0.5110 -0.3561  0.1973
 3050TIP3    H130641   6.017   2.667   6.881 -1.0991  2.6492  0.1618
 3050TIP3    H230642   6.095   2.702   6.757  0.8132 -0.9725  0.2111
 3051TIP3   OH230643   4.262   6.749   1.591 -0.2428  0.0935  0.4032
 3051TIP3    H130644   4.335   6.688   1.580 -0.6430 -0.7656  2.0994
 3051TIP3    H230645   4.205   6.706   1.655 -1.2411  1.6429  0.6051
 3052TIP3   OH230646   6.576   6.687   5.786  0.3966  0.3926 -0.4055
 3052TIP3    H130647   6.618   6.773   5.784  0.8433  0.1901 -0.0834
 3052TIP3    H230648   6.616   6.643   5.862 -0.5787  0.2838  0.0656
 3053TIP3   OH230649   2.854   4.476  14.122 -0.4576  0.5945  0.0985
 3053TIP3    H130650   2.930   4.440  14.168 -0.1218 -2.5111 -2.5578
 3053TIP3    H230651   2.778   4.446  14.173 -0.0499  1.4355  1.2640
 3054TIP3   OH230652   2.831   6.844  11.286  0.2399 -0.4524 -0.1419
 3054TIP3    H130653   2.762   6.799  11.336  0.5677  0.7167  1.4332
 3054TIP3    H230654   2.793   6.929  11.265  0.8099 -0.2097 -0.2037
 3055TIP3   OH230655   2.609   6.732   4.412  0.2843  0.0022 -0.1928
 3055TIP3    H130656   2.647   6.706   4.496  0.5736 -0.9637 -0.6126
 3055TIP3    H230657   2.636   6.663   4.351 -0.4395  0.3724 -0.9445
 3056TIP3   OH230658   1.683   6.766   5.209  0.2446 -0.0845  0.1525
 3056TIP3    H130659   1.671   6.841   5.268 -0.9507 -1.0169  1.1474
 3056TIP3    H230660   1.764   6.725   5.239 -1.0039 -1.2904  2.0460
 3057TIP3   OH230661   0.292   6.742   2.218 -0.1678  0.1106 -0.0882
 3057TIP3    H130662   0.292   6.823   2.269 -1.9021  0.7882 -1.0831
 3057TIP3    H230663   0.273   6.771   2.128  0.6059 -1.2701 -0.7263
 3058TIP3   OH230664   0.154   0.244  10.618 -0.0742 -0.3396  0.1862
 3058TIP3    H130665   0.080   0.305  10.608 -0.8970 -0.7735  2.7399
 3058TIP3    H230666   0.113   0.160  10.637  1.0835 -1.3810 -1.6721
 3059TIP3   OH230667   4.321   1.890   2.015  0.0794 -0.0615 -0.0108
 3059TIP3    H130668   4.260   1.946   1.968 -1.1659 -1.3958 -0.0374
 3059TIP3    H230669   4.382   1.858   1.948 -1.4002 -1.5780 -0.7192
 3060TIP3   OH230670   0.488   4.602   2.850  0.4831  0.0694  0.0090
 3060TIP3    H130671   0.466   4.528   2.793 -1.5070  0.8874 -0.3583
 3060TIP3    H230672   0.489   4.565   2.938  1.1506 -0.7002 -0.3024
 3061TIP3   OH230673   0.983   6.503  11.445 -0.0895 -0.4389 -0.5007
 3061TIP3    H130674   0.910   6.550  11.484  0.3101  0.2046 -0.5275
 3061TIP3    H230675   0.986   6.533  11.354  2.1313  1.9555  0.2455
 3062TIP3   OH230676   4.697   6.436   1.429 -0.1661 -0.5292 -0.2570
 3062TIP3    H130677   4.700   6.466   1.338  0.8008 -1.2778 -0.4857
 3062TIP3    H230678   4.738   6.506   1.479 -1.0513  0.0621 -0.3310
 3063TIP3   OH230679   6.254   4.243   3.426  0.1732 -0.6982 -0.3924
 3063TIP3    H130680   6.310   4.282   3.494  1.1807 -0.1099 -1.5311
 3063TIP3    H230681   6.225   4.318   3.374  0.5205 -1.2757 -1.4252
 3064TIP3   OH230682   4.333   5.861   2.503  0.0791 -0.3359 -0.4822
 3064TIP3    H130683   4.408   5.906   2.542  1.4651 -2.3434 -0.7075
 3064TIP3    H230684   4.311   5.793   2.567 -0.4565 -0.8513 -1.2069
 3065TIP3   OH230685   3.293   0.098  16.911  0.2430 -0.0032  0.2261
 3065TIP3    H130686   3.366   0.115  16.852 -0.1561 -0.7663 -0.5021
 3065TIP3    H230687   3.250   0.183  16.922  1.1536  0.4228  0.5627
 3066TIP3   OH230688   4.331   5.984  16.227 -0.5237 -0.1188  0.1161
 3066TIP3    H130689   4.322   5.913  16.291 -3.8440 -0.3485 -0.4426
 3066TIP3    H230690   4.351   5.939  16.145  0.0571 -0.1488  0.2702
 3067TIP3   OH230691   1.098   5.528   3.485  0.1437  0.1311  0.1194
 3067TIP3    H130692   1.087   5.521   3.390 -1.8499  0.0073  0.3290
 3067TIP3    H230693   1.116   5.621   3.500  0.6697  0.1188 -0.3728
 3068TIP3   OH230694   6.680   6.197  14.423  0.1425  0.1379  0.1387
 3068TIP3    H130695   6.667   6.154  14.508  1.9617 -0.5832  0.0936
 3068TIP3    H230696   6.765   6.164  14.392 -0.4966  0.3548 -1.9910
 3069TIP3   OH230697   3.479   6.819  14.451  0.7424  0.0339  0.0433
 3069TIP3    H130698   3.506   6.741  14.500 -1.1993 -0.1184  0.9343
 3069TIP3    H230699   3.428   6.871  14.513 -1.8584 -0.1918 -1.7575
 3070TIP3   OH230700   6.399   6.227   4.327  0.0030 -0.5216 -0.1464
 3070TIP3    H130701   6.360   6.221   4.239 -0.0205  0.5542 -0.2255
 3070TIP3    H230702   6.448   6.309   4.325 -0.3617 -0.2691  0.9944
 3071TIP3   OH230703   1.374   1.582   0.082 -0.0929 -0.5650 -0.1048
 3071TIP3    H130704   1.366   1.537  -0.002 -0.0003 -1.8555  0.5481
 3071TIP3    H230705   1.304   1.648   0.081  0.6005  0.1969 -1.6145
 3072TIP3   OH230706   3.091   0.192  14.828 -0.0460  0.2375 -0.1829
 3072TIP3    H130707   3.167   0.246  14.851 -0.8204  1.3243 -0.0917
 3072TIP3    H230708   3.086   0.127  14.898  0.6128  0.3503 -0.0258
 3073TIP3   OH230709   6.072   3.941  11.703  0.1169  0.2566  0.3032
 3073TIP3    H130710   6.013   3.984  11.765  0.3441  0.8459  0.1218
 3073TIP3    H230711   6.154   3.932  11.750 -0.0916 -0.4983  0.5319
 3074TIP3   OH230712   2.557   5.516  12.971 -0.2092  0.8682  0.2537
 3074TIP3    H130713   2.606   5.519  13.053 -0.7377 -0.1292  0.6275
 3074TIP3    H230714   2.530   5.607  12.956  0.6239  1.2098  0.7177
 3075TIP3   OH230715   3.129   0.115  12.541  0.0095  0.4258  0.0902
 3075TIP3    H130716   3.065   0.045  12.556 -0.5977  1.2483  1.6111
 3075TIP3    H230717   3.104   0.183  12.604  0.9360  1.7686 -0.9432
 3076TIP3   OH230718   4.495   6.833  10.946 -0.0811 -0.5366  0.5552
 3076TIP3    H130719   4.543   6.906  10.984  0.7211 -1.3386  1.1070
 3076TIP3    H230720   4.465   6.781  11.021  0.9231 -1.7558  0.1458
 3077TIP3   OH230721   2.235   2.141  13.667  0.0363  0.1986  0.2920
 3077TIP3    H130722   2.176   2.068  13.687  0.9582 -0.4399  0.7616
 3077TIP3    H230723   2.268   2.121  13.579  0.3135  0.0235  0.4334
 3078TIP3   OH230724   4.564   0.382  11.208 -0.4513 -0.4320 -0.0918
 3078TIP3    H130725   4.626   0.449  11.238 -1.1532 -0.7666  2.3257
 3078TIP3    H230726   4.479   0.426  11.210 -0.7672 -1.0511  0.3800
 3079TIP3   OH230727   3.389   2.894   2.640 -0.2678 -0.1379  0.5414
 3079TIP3    H130728   3.330   2.831   2.682 -1.0764 -0.3891 -0.9150
 3079TIP3    H230729   3.477   2.863   2.663 -0.6753 -0.8462  1.1917
 3080TIP3   OH230730   0.257   5.404   1.555  0.2716 -0.3019  0.5785
 3080TIP3    H130731   0.256   5.328   1.498  0.4581  0.0493  0.1062
 3080TIP3    H230732   0.349   5.429   1.560  0.3543 -0.7160  1.5598
 3081TIP3   OH230733   3.752   5.070  12.234  0.1498  1.0053  0.2532
 3081TIP3    H130734   3.825   5.128  12.212 -1.2702  3.4738  1.5581
 3081TIP3    H230735   3.770   5.043  12.324  0.9239 -0.9348 -0.4172
 3082TIP3   OH230736   1.676   4.970   0.151 -0.2982  0.0101 -0.2133
 3082TIP3    H130737   1.754   4.924   0.181 -1.5515 -2.4726 -0.4301
 3082TIP3    H230738   1.617   4.970   0.227 -0.7413  0.2268 -0.5485
 3083TIP3   OH230739   3.988   2.611   5.538  0.3266 -0.5245 -0.3793
 3083TIP3    H130740   3.980   2.621   5.633 -0.5223  0.5090 -0.5365
 3083TIP3    H230741   3.998   2.700   5.506 -1.4053 -0.6511 -1.4031
 3084TIP3   OH230742   1.034   6.214  14.200 -0.1333  0.3648 -0.1494
 3084TIP3    H130743   1.014   6.284  14.138 -2.2195 -1.3037 -1.5198
 3084TIP3    H230744   0.983   6.236  14.279  0.7286  1.3226  0.1585
 3085TIP3   OH230745   3.157   0.062   3.594 -0.0849  0.3408  0.1847
 3085TIP3    H130746   3.090   0.006   3.555 -0.7202  2.1636 -1.5374
 3085TIP3    H230747   3.206   0.005   3.653 -1.8111 -1.5455 -0.1208
 3086TIP3   OH230748   3.435   1.628  15.781 -0.2950  0.3510 -0.2715
 3086TIP3    H130749   3.526   1.599  15.773  0.3783  2.2568 -0.0218
 3086TIP3    H230750   3.419   1.680  15.702 -1.9800 -1.8928 -1.4988
 3087TIP3   OH230751   6.334   4.036   1.105  0.0760  0.0577  0.0958
 3087TIP3    H130752   6.240   4.031   1.121 -0.1567  2.2920 -0.1976
 3087TIP3    H230753   6.352   3.966   1.042 -1.4770 -0.0972 -0.2049
 3088TIP3   OH230754   6.576   1.263   1.330 -0.1576  0.6743 -0.0266
 3088TIP3    H130755   6.535   1.301   1.253  0.3398  1.6429  0.1734
 3088TIP3    H230756   6.502   1.240   1.387 -0.5036  0.3890 -0.5777
 3089TIP3   OH230757   1.707   0.838  12.206  0.3153  0.0227  0.2778
 3089TIP3    H130758   1.772   0.769  12.195 -0.8443 -0.9519 -0.8338
 3089TIP3    H230759   1.691   0.870  12.117 -0.7151  0.2242  0.5198
 3090TIP3   OH230760   0.972   2.756  13.139  0.2908  0.0436  0.0671
 3090TIP3    H130761   0.977   2.720  13.050  1.0719 -0.9518  0.4845
 3090TIP3    H230762   1.058   2.796  13.154  0.3631 -0.2758  0.5538
 3091TIP3   OH230763   4.624   3.523   5.889  0.8054 -0.6073 -0.2647
 3091TIP3    H130764   4.633   3.594   5.953  3.9578 -1.3849  0.3011
 3091TIP3    H230765   4.559   3.464   5.927  0.0670  0.6575  0.4937
 3092TIP3   OH230766   2.039   0.622  13.122  0.3379  0.1229 -0.3251
 3092TIP3    H130767   2.124   0.666  13.129  0.4502 -0.2759  1.1281
 3092TIP3    H230768   2.031   0.571  13.202 -1.6832  0.8708  0.0236
 3093TIP3   OH230769   5.364   4.074   1.556 -0.0504 -0.4085 -0.6781
 3093TIP3    H130770   5.312   4.015   1.610  1.5115 -0.9856  0.2693
 3093TIP3    H230771   5.306   4.148   1.538 -1.0196 -0.7813  0.7847
 3094TIP3   OH230772   3.603   2.099   1.678 -0.3185  0.1070 -0.2210
 3094TIP3    H130773   3.526   2.138   1.637  0.2718  0.7042 -0.7682
 3094TIP3    H230774   3.660   2.076   1.605 -0.8823 -2.3624  0.0048
 3095TIP3   OH230775   3.035   2.555   2.045 -0.2116 -0.0716  0.4111
 3095TIP3    H130776   3.063   2.603   2.123 -0.9593 -0.6483  1.0505
 3095TIP3    H230777   3.067   2.607   1.971  0.2577  0.6292  1.1044
 3096TIP3   OH230778   2.825   2.491  12.338  0.3215 -0.2386  0.0064
 3096TIP3    H130779   2.824   2.574  12.386 -1.1117 -0.1715 -0.0889
 3096TIP3    H230780   2.866   2.429  12.398  1.5095  0.5469  0.0391
 3097TIP3   OH230781   6.753   4.145  14.193 -0.1767 -0.2359 -0.3127
 3097TIP3    H130782   6.665   4.146  14.231  0.3311  1.3754  0.9544
 3097TIP3    H230783   6.754   4.220  14.134  0.5088  0.1411  0.1591
 3098TIP3   OH230784   1.513   6.851  16.788  0.2335  0.7812  0.1711
 3098TIP3    H130785   1.475   6.939  16.796 -1.4522  0.2779 -1.6785
 3098TIP3    H230786   1.441   6.792  16.806  0.6130 -0.2097 -1.3759
 3099TIP3   OH230787   2.932   4.403  15.961  0.3879 -0.0707  0.0723
 3099TIP3    H130788   2.956   4.310  15.959  2.2790  0.2658  2.5806
 3099TIP3    H230789   2.995   4.444  15.901  1.0104 -0.1616  0.6515
 3100TIP3   OH230790   5.777   6.264  16.490 -0.5587 -0.0629 -0.3663
 3100TIP3    H130791   5.721   6.232  16.420 -2.3064  0.4816  0.6924
 3100TIP3    H230792   5.754   6.209  16.565  0.7578 -0.1816 -0.0407
 3101TIP3   OH230793   2.354   6.600   0.725 -0.6200  0.3179  0.4008
 3101TIP3    H130794   2.333   6.514   0.761  1.5869 -0.3853  0.1445
 3101TIP3    H230795   2.352   6.587   0.630  2.7854 -0.3960  0.2967
 3102TIP3   OH230796   0.898   2.632   2.304 -0.0511 -0.1529 -0.5297
 3102TIP3    H130797   0.900   2.638   2.209  1.1258 -0.2145 -0.5256
 3102TIP3    H230798   0.907   2.722   2.334 -0.5982 -0.1158 -0.4776
 3103TIP3   OH230799   2.172   3.954   0.080  0.1685 -0.2343  0.3492
 3103TIP3    H130800   2.190   4.006   0.158 -1.1094 -0.3784  0.7690
 3103TIP3    H230801   2.199   3.865   0.103 -1.2011 -0.5018  1.0685
 3104TIP3   OH230802   0.954   5.553   4.041 -0.1520 -0.2828 -0.6690
 3104TIP3    H130803   0.971   5.493   3.969  1.5481  0.1796 -0.6988
 3104TIP3    H230804   0.955   5.498   4.119 -0.1104 -0.5223 -0.8382
 3105TIP3   OH230805   5.987   1.849   1.754 -0.0680 -0.3320 -0.7461
 3105TIP3    H130806   5.987   1.886   1.842 -0.0081  2.0037 -1.6543
 3105TIP3    H230807   5.900   1.809   1.744 -0.5218  0.4508 -0.0415
 3106TIP3   OH230808   2.809   3.870  14.730 -0.4430 -0.3016  0.0627
 3106TIP3    H130809   2.893   3.872  14.683  1.3203  0.1706  2.9604
 3106TIP3    H230810   2.814   3.791  14.785 -2.9227 -1.4883 -1.2606
 3107TIP3   OH230811   1.275   3.919   3.024  0.0970 -0.1168 -0.2847
 3107TIP3    H130812   1.180   3.911   3.038  0.3439 -0.0648  1.6834
 3107TIP3    H230813   1.304   3.977   3.094  1.6006 -0.1777 -0.8386
 3108TIP3   OH230814   1.491   0.659   5.899 -0.2179 -0.7911 -0.0599
 3108TIP3    H130815   1.415   0.671   5.843  0.5824  0.4285 -0.9359
 3108TIP3    H230816   1.530   0.577   5.869  1.6195  1.0074 -3.1605
 3109TIP3   OH230817   3.686   5.751   5.178  0.0239  0.2744  0.0282
 3109TIP3    H130818   3.633   5.674   5.200  0.7434 -0.6873 -1.3968
 3109TIP3    H230819   3.747   5.719   5.111  0.4188  2.0696 -0.5185
 3110TIP3   OH230820   5.386   0.824  14.448  0.2024  0.1664 -0.5832
 3110TIP3    H130821   5.418   0.900  14.496  0.2507  0.3147 -0.8453
 3110TIP3    H230822   5.451   0.756  14.465  1.2047  0.7468 -1.8942
 3111TIP3   OH230823   1.270   0.224   0.775  0.1109  0.2087  0.2875
 3111TIP3    H130824   1.175   0.226   0.779  0.1429  0.0347  2.7296
 3111TIP3    H230825   1.298   0.228   0.867  2.4362 -0.6926 -0.3097
 3112TIP3   OH230826   0.838   4.218   1.147  0.0388 -0.4780  0.5630
 3112TIP3    H130827   0.757   4.168   1.159  0.0585 -0.2670  1.6975
 3112TIP3    H230828   0.878   4.180   1.069 -0.8537 -0.9914  0.3363
 3113TIP3   OH230829   4.166   0.022  16.621  0.5580 -0.9628 -0.1865
 3113TIP3    H130830   4.123   0.014  16.706 -0.8397 -3.5822 -1.0332
 3113TIP3    H230831   4.256   0.045  16.642  0.2810 -1.6592  2.0383
 3114TIP3   OH230832   0.582   1.198  12.465 -0.7405 -0.6229 -0.2931
 3114TIP3    H130833   0.555   1.227  12.552 -0.6654  3.5619 -1.4375
 3114TIP3    H230834   0.673   1.169  12.476 -0.0218  1.7911  0.8039
 3115TIP3   OH230835   1.825   1.190   3.085 -0.2447  0.1462  0.4795
 3115TIP3    H130836   1.825   1.106   3.040 -0.3767  0.6542 -0.5016
 3115TIP3    H230837   1.857   1.171   3.173  0.7601 -0.7582 -0.0658
 3116TIP3   OH230838   5.877   1.084  12.560  0.3977  0.0109 -0.0805
 3116TIP3    H130839   5.970   1.072  12.580  0.1112 -0.0392  1.3233
 3116TIP3    H230840   5.871   1.069  12.466  1.9084  0.6077 -0.3144
 3117TIP3   OH230841   1.149   0.448  11.848 -0.6687  0.1565  0.0714
 3117TIP3    H130842   1.124   0.434  11.939  0.2026 -0.7882  0.1905
 3117TIP3    H230843   1.074   0.417  11.798 -1.0882  0.5285  0.4572
 3118TIP3   OH230844   5.053   4.905  14.909  0.3910  0.6531  0.9736
 3118TIP3    H130845   4.984   4.904  14.975  0.6855  0.9848  1.2943
 3118TIP3    H230846   5.108   4.830  14.931  0.3079  0.5720  0.9066
 3119TIP3   OH230847   4.691   6.124   1.474  0.2374 -0.4215  0.2258
 3119TIP3    H130848   4.622   6.088   1.530  0.5051 -0.2941  0.6367
 3119TIP3    H230849   4.676   6.219   1.475 -1.7099 -0.5866 -2.4552
 3120TIP3   OH230850   0.948   2.378   1.153 -0.3444 -0.2443  0.3806
 3120TIP3    H130851   0.913   2.300   1.195 -0.0864 -1.8200 -2.1095
 3120TIP3    H230852   0.873   2.415   1.105  0.3017 -1.1032 -1.3758
 3121TIP3   OH230853   6.789   5.256  15.967  0.2532  0.3247  0.1247
 3121TIP3    H130854   6.842   5.318  16.017 -1.0761  0.6152  1.2023
 3121TIP3    H230855   6.720   5.309  15.927 -0.5930 -0.3661  0.6318
 3122TIP3   OH230856   0.473   4.590  14.124  0.0372 -0.9878  0.2175
 3122TIP3    H130857   0.420   4.551  14.194  1.2380 -2.0655  0.5625
 3122TIP3    H230858   0.436   4.553  14.044 -2.7050  1.8178 -0.0208
 3123TIP3   OH230859   2.826   4.579  16.817  0.0973 -0.0233 -0.3834
 3123TIP3    H130860   2.916   4.555  16.837 -0.3359 -0.0005  1.8842
 3123TIP3    H230861   2.811   4.660  16.866 -1.8654 -1.3678  1.3933
 3124TIP3   OH230862   1.935   1.753   0.786 -0.0593 -0.4210  0.2942
 3124TIP3    H130863   1.980   1.752   0.702 -0.9735  0.3685 -0.2156
 3124TIP3    H230864   1.984   1.817   0.838 -1.3536  1.4580 -0.7159
 3125TIP3   OH230865   1.375   2.180   5.617  0.3093 -0.4032 -0.1909
 3125TIP3    H130866   1.379   2.244   5.688  1.7099 -1.1566  0.4434
 3125TIP3    H230867   1.465   2.150   5.607 -0.3626 -2.5420 -0.2244
 3126TIP3   OH230868   3.074   2.178  11.640 -0.2421  0.1026 -0.3498
 3126TIP3    H130869   3.101   2.262  11.604 -0.7890 -0.1569 -1.4163
 3126TIP3    H230870   2.997   2.197  11.693 -1.1095  0.1268 -1.5835
 3127TIP3   OH230871   6.790   6.432  11.486  0.1847  0.5031 -0.3244
 3127TIP3    H130872   6.699   6.461  11.476  0.3427  0.2927 -3.6058
 3127TIP3    H230873   6.794   6.396  11.574 -2.5189  1.8025  0.4548
 3128TIP3   OH230874   5.373   0.924  12.066  0.4075  0.0779 -0.1364
 3128TIP3    H130875   5.312   0.893  12.000 -0.4163  0.8986  0.2153
 3128TIP3    H230876   5.440   0.856  12.071 -0.1071 -0.5092 -1.0202
 3129TIP3   OH230877   5.600   5.800   5.576 -0.5108 -0.4628  0.5320
 3129TIP3    H130878   5.583   5.740   5.648 -0.9767 -1.4335 -0.3546
 3129TIP3    H230879   5.522   5.795   5.521 -0.5869  1.0265  0.4594
 3130TIP3   OH230880   4.593   3.910   2.330  0.4882 -0.2266  0.0799
 3130TIP3    H130881   4.528   3.917   2.400  0.1089 -0.9012 -0.1962
 3130TIP3    H230882   4.546   3.870   2.257  0.7198  1.0327 -0.7856
 3131TIP3   OH230883   3.999   1.447   2.593  0.3847 -1.0963  0.3494
 3131TIP3    H130884   4.088   1.430   2.564  1.4664  0.1012  2.6105
 3131TIP3    H230885   3.960   1.360   2.606  2.2157 -1.7396  1.9739
 3132TIP3   OH230886   5.651   5.569   5.017  0.2227 -0.1683 -0.6282
 3132TIP3    H130887   5.685   5.482   5.038 -0.9435 -0.7206 -0.9268
 3132TIP3    H230888   5.598   5.593   5.093  0.2653  0.1361 -0.6924
 3133TIP3   OH230889   6.338   5.085   4.988  0.1846 -0.2498  0.0266
 3133TIP3    H130890   6.297   5.109   5.071  0.2598  0.7103 -0.2078
 3133TIP3    H230891   6.265   5.080   4.926  0.2526  0.0613 -0.0786
 3134TIP3   OH230892   6.590   5.921  11.324 -0.6345 -0.3011  0.2752
 3134TIP3    H130893   6.529   5.967  11.382 -1.3754 -0.6939 -0.1760
 3134TIP3    H230894   6.558   5.831  11.322 -1.6053  0.0144 -1.9782
 3135TIP3   OH230895   0.817   2.935  12.213  0.1144 -0.6243 -0.3564
 3135TIP3    H130896   0.760   2.963  12.284  1.2083 -0.4946  0.5117
 3135TIP3    H230897   0.768   2.953  12.133 -0.6858  0.3246  0.3239
 3136TIP3   OH230898   1.721   4.738  15.333  0.1677 -0.2183 -0.0079
 3136TIP3    H130899   1.742   4.822  15.372 -1.3045  0.2304 -0.1206
 3136TIP3    H230900   1.677   4.760  15.251  0.0066 -1.0946 -0.1705
 3137TIP3   OH230901   0.944   4.947  11.864  0.1367 -0.2338 -0.2018
 3137TIP3    H130902   0.951   5.042  11.879  1.5421 -0.4312  0.5234
 3137TIP3    H230903   0.914   4.939  11.774  2.7175  0.8958 -1.2471
 3138TIP3   OH230904   4.327   0.447   5.623 -0.5927  0.1091  0.0983
 3138TIP3    H130905   4.377   0.489   5.554 -0.2735 -0.2530  0.1067
 3138TIP3    H230906   4.392   0.403   5.677 -0.6535  1.7841  1.6319
 3139TIP3   OH230907   3.195   2.201  16.265  0.0149 -0.2377 -0.5132
 3139TIP3    H130908   3.238   2.175  16.347 -0.8998 -1.1363 -0.3089
 3139TIP3    H230909   3.266   2.203  16.201  0.6122 -0.2582  0.1325
 3140TIP3   OH230910   4.730   5.610   4.508  0.3042  0.1774 -0.1151
 3140TIP3    H130911   4.700   5.698   4.483  1.2133  1.0213  1.5827
 3140TIP3    H230912   4.659   5.552   4.481 -1.4629  1.7317  0.9355
 3141TIP3   OH230913   4.404   3.565   2.781  0.1842 -0.2289  0.2484
 3141TIP3    H130914   4.465   3.496   2.753 -1.1531 -2.0681  1.6089
 3141TIP3    H230915   4.460   3.630   2.823  1.3521 -1.2269  0.3021
 3142TIP3   OH230916   4.275   2.440   2.970  0.5406  0.3538 -0.0205
 3142TIP3    H130917   4.205   2.383   2.938 -0.0813  1.5624 -0.8899
 3142TIP3    H230918   4.304   2.489   2.894  1.5979  0.6670  0.5534
 3143TIP3   OH230919   3.893   1.885   6.190 -0.1430 -0.2188  0.1487
 3143TIP3    H130920   3.926   1.972   6.210 -0.3307 -0.2255  0.4974
 3143TIP3    H230921   3.966   1.826   6.210  0.3138 -0.0687 -0.9968
 3144TIP3   OH230922   5.070   0.304   2.897 -0.5159  0.2116 -0.4588
 3144TIP3    H130923   5.111   0.320   2.812  0.0464  1.0459 -0.0441
 3144TIP3    H230924   5.134   0.251   2.944 -0.2564  0.8382 -0.0990
 3145TIP3   OH230925   5.020   3.537   3.431  0.4692 -0.4723  0.1190
 3145TIP3    H130926   5.034   3.485   3.351 -0.1114  0.2576 -0.4740
 3145TIP3    H230927   5.098   3.591   3.438  0.6062 -0.6747  0.1426
 3146TIP3   OH230928   4.321   5.521   0.398  0.1725 -0.8629  0.3263
 3146TIP3    H130929   4.232   5.490   0.413  0.2997 -1.5231 -0.2075
 3146TIP3    H230930   4.357   5.460   0.333 -0.0605  1.2417 -1.9550
 3147TIP3   OH230931   0.511   3.585  12.236  0.1790 -0.5036 -0.0530
 3147TIP3    H130932   0.573   3.637  12.185  0.7129 -0.0414  1.0317
 3147TIP3    H230933   0.503   3.503  12.187  1.5251 -0.5089 -0.3117
 3148TIP3   OH230934   2.651   3.068  14.502  0.0486  0.5997  0.1094
 3148TIP3    H130935   2.664   2.987  14.454 -2.5975  0.4276 -0.4545
 3148TIP3    H230936   2.568   3.056  14.549 -0.8445  3.2357 -0.6050
 3149TIP3   OH230937   2.076   2.064   1.769  0.2032  0.1353  0.4021
 3149TIP3    H130938   2.100   2.123   1.840  1.1445 -1.2780  1.3222
 3149TIP3    H230939   2.092   1.976   1.804 -0.4297 -0.6531 -1.1574
 3150TIP3   OH230940   5.028   6.260  11.663 -0.4966  0.5877  0.2182
 3150TIP3    H130941   5.099   6.212  11.621 -1.1454  0.2968 -0.5572
 3150TIP3    H230942   5.002   6.326  11.599 -1.3922  0.2399  0.2080
 3151TIP3   OH230943   2.304   3.996   2.189 -0.2616  0.0616  0.2308
 3151TIP3    H130944   2.263   4.018   2.105 -0.0721 -0.7736 -0.0885
 3151TIP3    H230945   2.395   4.026   2.180  0.2733 -1.6868 -0.5828
 3152TIP3   OH230946   4.668   4.081  12.356 -0.5877  0.0057 -0.7291
 3152TIP3    H130947   4.749   4.036  12.330 -0.5074 -2.1541  2.6752
 3152TIP3    H230948   4.598   4.025  12.323 -0.6942  0.6566 -1.6616
 3153TIP3   OH230949   2.433   5.754   5.026 -0.2518 -0.1266 -0.5664
 3153TIP3    H130950   2.478   5.723   4.948 -0.0716 -2.0320  0.2490
 3153TIP3    H230951   2.394   5.838   4.999  1.0701  0.0135 -2.2166
 3154TIP3   OH230952   2.952   4.180   4.588  0.0354  0.2286  0.2437
 3154TIP3    H130953   2.982   4.152   4.675 -1.0475 -1.3817  0.1423
 3154TIP3    H230954   3.027   4.167   4.531  0.7026  1.1318  0.8902
 3155TIP3   OH230955   0.564   5.647  15.501 -0.0523  0.0086 -0.0328
 3155TIP3    H130956   0.594   5.556  15.500 -0.0781 -0.0193  0.8192
 3155TIP3    H230957   0.480   5.645  15.456  1.2227  0.1171 -2.6251
 3156TIP3   OH230958   1.384   0.478  15.041 -0.4527 -0.3349 -0.2623
 3156TIP3    H130959   1.435   0.559  15.045  0.6324 -1.0507  0.9596
 3156TIP3    H230960   1.428   0.425  14.974 -0.5789 -0.2973 -0.3753
 3157TIP3   OH230961   6.120   3.140   2.358  0.1864  0.0467  0.1272
 3157TIP3    H130962   6.160   3.194   2.426 -0.5828  0.3986  0.3108
 3157TIP3    H230963   6.157   3.173   2.277  1.9388 -1.0840  0.4239
 3158TIP3   OH230964   3.550   3.579  10.525  0.4093 -0.2463 -0.1593
 3158TIP3    H130965   3.507   3.499  10.496  2.3844 -1.2675 -0.4113
 3158TIP3    H230966   3.610   3.550  10.594  1.4715  0.9456 -0.5612
 3159TIP3   OH230967   0.147   1.331   3.361 -0.2419  0.6517 -0.1239
 3159TIP3    H130968   0.064   1.335   3.313 -0.0908 -0.8679 -0.5793
 3159TIP3    H230969   0.206   1.282   3.303  0.7153  0.9511  0.5657
 3160TIP3   OH230970   2.456   6.841   5.318  0.2879 -0.3406  0.0627
 3160TIP3    H130971   2.393   6.799   5.259 -0.0262  0.4561 -0.1790
 3160TIP3    H230972   2.454   6.786   5.397 -0.9057 -0.2089  0.1554
 3161TIP3   OH230973   1.067   2.033  12.939 -0.9634  0.2424 -0.3177
 3161TIP3    H130974   1.000   2.069  12.881 -1.2547  0.7296  0.3089
 3161TIP3    H230975   1.149   2.070  12.907 -1.2568  1.5232  0.3267
 3162TIP3   OH230976   6.193   6.689  16.469 -0.2250 -0.0483 -0.7026
 3162TIP3    H130977   6.280   6.677  16.432  0.1408  0.9208 -0.2008
 3162TIP3    H230978   6.136   6.635  16.415  0.6529 -0.5367 -1.1677
 3163TIP3   OH230979   2.621   6.069  12.133  0.1256  0.6457 -0.0910
 3163TIP3    H130980   2.690   6.056  12.199 -1.7219 -1.2791  1.6093
 3163TIP3    H230981   2.644   6.011  12.062 -0.3387 -0.9811  1.0349
 3164TIP3   OH230982   6.328   4.524   4.451  0.3190  0.3562 -0.0964
 3164TIP3    H130983   6.284   4.547   4.533 -1.1949  1.1329 -1.0669
 3164TIP3    H230984   6.305   4.432   4.437 -1.3610  0.8236 -0.7377
 3165TIP3   OH230985   2.334   4.922  13.856  0.2695 -0.1934  1.0332
 3165TIP3    H130986   2.243   4.895  13.860 -0.0812  0.7162 -0.2253
 3165TIP3    H230987   2.337   4.990  13.788  1.5335  1.1788  2.3530
 3166TIP3   OH230988   3.987   5.073  17.089 -0.0374 -0.1296  0.4708
 3166TIP3    H130989   4.041   5.139  17.045 -1.4610  0.1398 -0.9376
 3166TIP3    H230990   4.050   5.020  17.139  1.1893  1.9912  1.3047
 3167TIP3   OH230991   5.328   1.978   1.630 -0.2442  0.2128  0.5100
 3167TIP3    H130992   5.385   2.045   1.667  0.1052  1.6936 -2.4410
 3167TIP3    H230993   5.381   1.935   1.563 -0.6365 -2.7658  1.9271
 3168TIP3   OH230994   5.248   3.586   2.432 -0.4684 -0.0250 -0.0771
 3168TIP3    H130995   5.330   3.634   2.435 -0.8520  0.5979  0.8036
 3168TIP3    H230996   5.197   3.630   2.364 -0.4448  0.2058  0.0535
 3169TIP3   OH230997   4.216   0.898  14.782  0.3348  0.4476  0.4465
 3169TIP3    H130998   4.237   0.877  14.873 -2.0798  0.4069  1.0483
 3169TIP3    H230999   4.146   0.838  14.758  1.6541 -0.3002 -1.8610
 3170TIP3   OH231000   3.553   5.774   6.019  0.3491 -0.2684  0.3902
 3170TIP3    H131001   3.613   5.835   6.061 -0.4356  0.8764 -0.0938
 3170TIP3    H231002   3.594   5.756   5.934 -0.8019  1.9460 -0.7118
 3171TIP3   OH231003   1.376   3.889   1.336  0.2412 -0.0816  0.0153
 3171TIP3    H131004   1.306   3.951   1.357  0.8063  0.3360  0.7220
 3171TIP3    H231005   1.356   3.859   1.247 -0.3713  0.6726 -0.1100
 3172TIP3   OH231006   4.097   6.088  11.977  0.1495 -0.0774  0.3072
 3172TIP3    H131007   4.070   6.163  11.923 -1.6607 -1.1866 -0.4387
 3172TIP3    H231008   4.171   6.050  11.930 -1.1434 -0.7841 -1.2663
 3173TIP3   OH231009   3.117   0.604  16.917 -0.3920  0.0206  0.1855
 3173TIP3    H131010   3.066   0.642  16.845 -0.6989 -0.1262  0.3250
 3173TIP3    H231011   3.134   0.679  16.975 -0.8312 -0.0135  0.3627
 3174TIP3   OH231012   5.378   4.585  16.309 -0.3665 -0.0392 -0.2538
 3174TIP3    H131013   5.307   4.589  16.245  0.0204 -1.3816 -0.7887
 3174TIP3    H231014   5.451   4.546  16.262  0.6931  1.1512  0.3436
 3175TIP3   OH231015   4.857   1.340   6.078  0.3279  0.1116 -0.2269
 3175TIP3    H131016   4.878   1.425   6.117  0.7481 -0.7786  1.5656
 3175TIP3    H231017   4.767   1.322   6.107  0.4891 -0.3636 -0.0119
 3176TIP3   OH231018   5.684   5.441   3.700  0.6660 -0.1890  0.3567
 3176TIP3    H131019   5.740   5.474   3.771  1.6043 -0.5337 -0.2030
 3176TIP3    H231020   5.654   5.519   3.655  1.6699 -0.0233 -0.0532
 3177TIP3   OH231021   4.050   0.926  12.844  0.2186  0.7585 -0.0755
 3177TIP3    H131022   4.050   0.999  12.906 -0.2147  2.3526 -1.8819
 3177TIP3    H231023   4.033   0.966  12.759  0.4617 -1.4006 -1.2094
 3178TIP3   OH231024   1.247   3.238  13.896  0.0252  0.1066  0.0329
 3178TIP3    H131025   1.270   3.158  13.944  0.0097  0.5663  0.8182
 3178TIP3    H231026   1.287   3.226  13.810  0.9233 -0.2944  0.4844
 3179TIP3   OH231027   3.023   3.804  14.024  0.4606 -0.2955  0.1809
 3179TIP3    H131028   2.970   3.798  14.104  0.9420  1.2895  0.6446
 3179TIP3    H231029   2.966   3.767  13.956 -0.6622 -0.0231  0.9312
 3180TIP3   OH231030   6.568   1.064  11.647  0.0967 -0.7348 -0.2016
 3180TIP3    H131031   6.493   1.071  11.589  0.1900 -1.2326 -0.3874
 3180TIP3    H231032   6.554   0.982  11.695  1.3435 -1.7430 -1.4532
 3181TIP3   OH231033   2.169   4.387   1.895  0.2480  0.5437  0.4399
 3181TIP3    H131034   2.255   4.362   1.860 -1.1369 -0.3809 -2.7390
 3181TIP3    H231035   2.155   4.476   1.863 -1.0491 -0.3205 -1.6480
 3182TIP3   OH231036   3.831   2.403   4.141 -0.1686  0.4759 -0.3325
 3182TIP3    H131037   3.756   2.411   4.082 -1.4671  0.3840  1.2035
 3182TIP3    H231038   3.907   2.406   4.085 -1.3640 -1.1417 -2.1613
 3183TIP3   OH231039   2.807   0.899  12.806 -0.4570  0.0962 -0.3986
 3183TIP3    H131040   2.806   0.989  12.775 -0.6109  0.5906  0.9685
 3183TIP3    H231041   2.762   0.849  12.738 -0.6066  1.0963 -1.0432
 3184TIP3   OH231042   6.634   4.176  16.416 -0.1045 -0.1833 -0.2904
 3184TIP3    H131043   6.589   4.259  16.400 -1.3260 -0.6589  0.5069
 3184TIP3    H231044   6.716   4.201  16.458 -0.2990  0.6430 -0.3826
 3185TIP3   OH231045   5.758   1.266  15.298  0.0081  0.2765  0.8566
 3185TIP3    H131046   5.786   1.176  15.281 -1.2500  0.4457 -2.8893
 3185TIP3    H231047   5.663   1.263  15.294 -0.0339  1.8248  0.1948
 3186TIP3   OH231048   1.018   5.551   5.999  0.3936  0.2991  0.3403
 3186TIP3    H131049   1.112   5.555   5.986  0.1909  1.6254 -1.1345
 3186TIP3    H231050   1.004   5.576   6.090  1.5935 -2.9276  1.5299
 3187TIP3   OH231051   4.459   3.868   6.660  0.5090 -0.3280 -0.3495
 3187TIP3    H131052   4.526   3.801   6.643 -0.7826 -1.7523 -0.0480
 3187TIP3    H231053   4.490   3.945   6.612  1.4657 -1.4905 -1.6779
 3188TIP3   OH231054   4.559   2.069  15.921  0.1004  0.4854 -0.0785
 3188TIP3    H131055   4.587   2.123  15.994  1.7506 -1.3907  0.7585
 3188TIP3    H231056   4.640   2.045  15.876 -0.5923 -0.9890 -0.6006
 3189TIP3   OH231057   0.283   3.515   5.031  0.5156 -0.0437 -0.5187
 3189TIP3    H131058   0.284   3.425   5.064  1.4189 -0.0763 -0.6008
 3189TIP3    H231059   0.234   3.564   5.096  1.1360 -0.3577  0.2107
 3190TIP3   OH231060   3.384   2.503  12.387  0.1012 -0.1198  0.1321
 3190TIP3    H131061   3.342   2.450  12.320  2.0172 -1.3513 -0.1860
 3190TIP3    H231062   3.364   2.593  12.363 -1.1825 -0.6184 -0.7421
 3191TIP3   OH231063   1.650   5.730  15.395 -0.1836  0.3515 -0.5058
 3191TIP3    H131064   1.723   5.685  15.438  0.0168 -0.0121 -1.2048
 3191TIP3    H231065   1.627   5.801  15.455  1.7609  1.4584 -0.9659
 3192TIP3   OH231066   5.023   3.559   4.750  0.2918 -0.7365 -0.6427
 3192TIP3    H131067   5.075   3.486   4.784  1.7550  0.2920 -0.5640
 3192TIP3    H231068   5.060   3.637   4.794 -2.6938 -0.1159  1.0180
 3193TIP3   OH231069   6.156   0.062  16.132 -0.3179 -0.3902 -0.2643
 3193TIP3    H131070   6.150  -0.033  16.125 -0.5824 -0.4781  0.8958
 3193TIP3    H231071   6.214   0.088  16.061 -1.4481 -1.2587 -1.5481
 3194TIP3   OH231072   1.699   3.332  16.561  0.2653 -0.4782  0.2550
 3194TIP3    H131073   1.708   3.364  16.472  1.3261 -0.7721  0.2379
 3194TIP3    H231074   1.776   3.367  16.607 -0.1780 -0.4646  1.0104
 3195TIP3   OH231075   5.597   2.793  14.750  0.8408 -0.2993  0.7179
 3195TIP3    H131076   5.517   2.778  14.700  1.9349 -0.8795 -0.9102
 3195TIP3    H231077   5.620   2.884  14.732 -0.1794  0.3268  2.3352
 3196TIP3   OH231078   6.326   5.339   1.907 -0.0071 -0.3650 -0.2042
 3196TIP3    H131079   6.262   5.271   1.886  0.9588 -1.1480 -0.7652
 3196TIP3    H231080   6.343   5.329   2.000  0.7425 -1.4732 -0.4441
 3197TIP3   OH231081   6.017   4.207  13.983  0.3389 -0.8089  0.2497
 3197TIP3    H131082   6.083   4.215  14.052  0.6817 -0.0577 -0.1513
 3197TIP3    H231083   5.948   4.153  14.021  1.0412 -1.3304  0.7869
 3198TIP3   OH231084   5.659   4.922  12.412  0.0274  0.5746 -0.3951
 3198TIP3    H131085   5.707   4.972  12.346  1.5919 -1.9389 -1.3113
 3198TIP3    H231086   5.725   4.898  12.476 -0.1776 -1.8379 -0.9801
 3199TIP3   OH231087   0.479   0.794   2.478  0.2070 -0.1360  0.0636
 3199TIP3    H131088   0.409   0.757   2.533 -0.2552 -3.2337 -2.3572
 3199TIP3    H231089   0.560   0.770   2.524 -0.1973 -0.9423  0.3731
 3200TIP3   OH231090   2.074   5.818  10.780  0.8882 -0.2571 -0.0220
 3200TIP3    H131091   2.017   5.773  10.717  1.9826 -0.4112 -0.9586
 3200TIP3    H231092   2.135   5.868  10.725  0.8834  0.8798  0.9688
 3201TIP3   OH231093   6.169   4.672   5.219 -0.9060  0.0925  0.3960
 3201TIP3    H131094   6.080   4.704   5.207 -0.3355  1.0144 -1.8227
 3201TIP3    H231095   6.170   4.586   5.176 -0.2582  0.9784 -1.4617
 3202TIP3   OH231096   6.573   6.613  17.064 -0.1597  0.4369  0.1834
 3202TIP3    H131097   6.653   6.644  17.021 -0.8721 -0.5536 -1.9555
 3202TIP3    H231098   6.504   6.670  17.032 -0.7214 -0.3646 -0.0627
 3203TIP3   OH231099   1.295   0.495   2.896 -0.0683  0.1319 -0.0587
 3203TIP3    H131100   1.327   0.585   2.898  1.6909 -0.4244 -0.6228
 3203TIP3    H231101   1.223   0.493   2.958  0.7542  1.6011  0.9995
 3204TIP3   OH231102   0.092   5.957  13.830 -1.0403 -0.5811 -0.3588
 3204TIP3    H131103   0.004   5.983  13.857  0.2513  2.4367  1.4581
 3204TIP3    H231104   0.115   5.885  13.889 -2.0395 -0.9965 -0.4574
 3205TIP3   OH231105   1.312   5.636   5.005  0.1150  0.5141 -0.2435
 3205TIP3    H131106   1.249   5.639   4.933  2.5799 -2.4133 -2.7910
 3205TIP3    H231107   1.385   5.691   4.975  1.6263 -1.5739 -0.6213
 3206TIP3   OH231108   6.659   1.277  14.616  0.2637 -0.2009 -0.5421
 3206TIP3    H131109   6.656   1.300  14.709  1.5902 -1.2218 -0.2153
 3206TIP3    H231110   6.567   1.272  14.589 -0.1229  0.7438  0.5357
 3207TIP3   OH231111   1.854   6.548  13.112 -0.0687  0.6743 -0.5516
 3207TIP3    H131112   1.920   6.490  13.152 -0.0846  0.5452 -0.7125
 3207TIP3    H231113   1.846   6.517  13.022 -1.7702 -0.5770 -0.0257
 3208TIP3   OH231114   6.390   4.474  13.419  0.1263  0.0769 -0.4917
 3208TIP3    H131115   6.392   4.441  13.509  1.1922 -0.4397 -0.6797
 3208TIP3    H231116   6.380   4.395  13.365  1.8964  0.0831 -0.9104
 3209TIP3   OH231117   2.702   2.726   3.908  0.2842  0.2253  0.4519
 3209TIP3    H131118   2.628   2.730   3.847  1.0586  1.6528 -0.4527
 3209TIP3    H231119   2.693   2.641   3.951 -0.8513 -0.3985 -0.9288
 3210TIP3   OH231120   6.737   5.665  11.124  0.6267  0.0919  0.1601
 3210TIP3    H131121   6.768   5.586  11.168 -0.0512 -0.8005 -0.9371
 3210TIP3    H231122   6.651   5.641  11.089 -0.5909  1.9798  1.6617
 3211TIP3   OH231123   4.268   5.524   4.919 -0.4932 -0.4779  0.7017
 3211TIP3    H131124   4.361   5.536   4.901 -0.7465  1.9266  0.7178
 3211TIP3    H231125   4.224   5.542   4.836 -0.9712 -1.1972  0.7903
 3212TIP3   OH231126   0.397   3.156   3.783  0.0635  0.2923 -0.1308
 3212TIP3    H131127   0.482   3.186   3.750 -0.1917 -0.3031 -1.3673
 3212TIP3    H231128   0.348   3.237   3.798 -0.0545  0.5754 -1.9040
 3213TIP3   OH231129   6.848   3.750   0.712 -0.0486  0.1595 -0.1989
 3213TIP3    H131130   6.900   3.766   0.633 -0.0750  0.9160 -0.0715
 3213TIP3    H231131   6.827   3.837   0.744 -0.7423 -0.1502  0.1888
 3214TIP3   OH231132   5.623   3.688   4.987  0.1734  0.0245 -0.0695
 3214TIP3    H131133   5.696   3.745   5.011 -0.5098  0.8251  0.1431
 3214TIP3    H231134   5.549   3.720   5.038 -0.0749 -1.5020  0.5878
 3215TIP3   OH231135   5.183   2.067   3.801  0.2401 -0.0598  0.3715
 3215TIP3    H131136   5.215   2.123   3.872 -1.9990  1.1069  0.5770
 3215TIP3    H231137   5.093   2.046   3.827 -0.1552 -0.7840 -1.4535
 3216TIP3   OH231138   0.264   1.783   0.267 -0.2719  0.6553  0.3833
 3216TIP3    H131139   0.350   1.821   0.283 -0.2057  0.9214 -0.5635
 3216TIP3    H231140   0.218   1.847   0.212 -1.0097  0.4348  0.7227
 3217TIP3   OH231141   1.471   3.821  14.854  0.2220 -0.6138 -0.2806
 3217TIP3    H131142   1.382   3.847  14.877  0.7045  0.0280  0.9842
 3217TIP3    H231143   1.497   3.879  14.783 -0.6228 -1.3174 -1.1863
 3218TIP3   OH231144   6.475   5.801   2.918 -0.4990 -0.5158  0.1315
 3218TIP3    H131145   6.531   5.741   2.967 -0.4813 -0.2662  0.4166
 3218TIP3    H231146   6.390   5.795   2.962 -0.6717 -0.8221 -0.2411
 3219TIP3   OH231147   3.058   5.917   1.717  0.3390 -0.3103  0.1706
 3219TIP3    H131148   3.038   5.827   1.742 -4.0481  0.3709 -0.1624
 3219TIP3    H231149   3.012   5.930   1.634  0.5946  2.3214  0.3628
 3220TIP3   OH231150   5.721   0.435  12.768  0.6396  0.2041  0.0474
 3220TIP3    H131151   5.698   0.528  12.774 -1.5582 -0.0529 -2.4158
 3220TIP3    H231152   5.652   0.390  12.817  1.7716 -0.1819  1.3448
 3221TIP3   OH231153   4.191   4.891   0.078 -0.0533  0.2737  0.1846
 3221TIP3    H131154   4.173   4.861  -0.011  1.3888  2.2601 -0.8414
 3221TIP3    H231155   4.249   4.824   0.114  1.6540  0.8185 -1.4143
 3222TIP3   OH231156   5.506   1.137  13.460 -0.9858  0.0705  0.0480
 3222TIP3    H131157   5.535   1.215  13.507 -1.3347  0.0503  0.3011
 3222TIP3    H231158   5.411   1.134  13.474 -1.0618 -0.0663 -0.4583
 3223TIP3   OH231159   6.608   0.795   4.000 -0.2758 -0.0859 -0.5202
 3223TIP3    H131160   6.516   0.821   4.002 -0.3710  0.0098 -2.9570
 3223TIP3    H231161   6.656   0.876   3.982  0.0544 -0.4432 -1.3363
 3224TIP3   OH231162   6.743   2.904  10.686 -0.4811 -0.0226  0.1135
 3224TIP3    H131163   6.830   2.864  10.688  0.0632  1.0784  2.4008
 3224TIP3    H231164   6.755   2.982  10.631 -0.5251 -0.8178 -1.0603
 3225TIP3   OH231165   4.555   2.407  12.801 -0.4503  0.1488  0.0610
 3225TIP3    H131166   4.482   2.346  12.813  0.1192 -0.5309  0.1380
 3225TIP3    H231167   4.513   2.492  12.792 -1.2215 -0.1290  0.8416
 3226TIP3   OH231168   0.774   1.882   3.554 -0.0607 -0.0600 -0.2900
 3226TIP3    H131169   0.785   1.789   3.575  1.4736  0.2882  0.5947
 3226TIP3    H231170   0.701   1.911   3.609 -1.0212 -0.8849 -1.0980
 3227TIP3   OH231171   3.980   6.740   0.931  0.4815  0.0718 -0.5637
 3227TIP3    H131172   4.039   6.737   0.856  0.8862  0.7801 -0.2848
 3227TIP3    H231173   4.037   6.726   1.007  0.3089  0.7973 -0.2892
 3228TIP3   OH231174   2.120   4.890  15.961  0.2872 -0.1616 -0.0799
 3228TIP3    H131175   2.060   4.953  15.921  1.5308  0.6564 -0.7023
 3228TIP3    H231176   2.099   4.807  15.918 -0.2216  0.1710 -0.4830
 3229TIP3   OH231177   1.223   6.858  16.828 -0.0053  0.3397  0.7894
 3229TIP3    H131178   1.127   6.855  16.825 -0.0726 -0.6477  2.6789
 3229TIP3    H231179   1.245   6.937  16.779 -1.6452 -0.4350 -1.3863
 3230TIP3   OH231180   5.701   0.364   0.491 -0.1358 -0.2004  0.2082
 3230TIP3    H131181   5.698   0.419   0.569  0.0034 -1.6263  1.2618
 3230TIP3    H231182   5.774   0.398   0.440  0.1024  0.4222  0.9484
 3231TIP3   OH231183   3.486   1.579  15.149 -0.1370 -0.6065  0.0241
 3231TIP3    H131184   3.464   1.626  15.069  2.6285 -2.6534 -2.1194
 3231TIP3    H231185   3.430   1.501  15.147  0.2380 -0.8724 -0.1531
 3232TIP3   OH231186   0.433   2.268   5.696  0.6627 -0.6941  0.2244
 3232TIP3    H131187   0.484   2.217   5.633  1.4751  0.7104 -0.3138
 3232TIP3    H231188   0.486   2.267   5.776  1.4813  0.5467 -0.2570
 3233TIP3   OH231189   0.284   4.722   3.448  0.5078  0.0916 -0.2983
 3233TIP3    H131190   0.218   4.671   3.494  0.2931  0.7756  0.1673
 3233TIP3    H231191   0.253   4.813   3.453  1.7096  0.4885  0.3563
 3234TIP3   OH231192   3.230   6.496  10.731 -0.3432 -0.2102  0.2484
 3234TIP3    H131193   3.221   6.513  10.825 -0.6268 -0.5520  0.2856
 3234TIP3    H231194   3.238   6.401  10.724 -1.7669 -0.3171 -0.1760
 3235TIP3   OH231195   6.235   6.264  16.620 -0.1411 -0.3251  0.5580
 3235TIP3    H131196   6.261   6.243  16.710  2.0197  0.7157  0.2434
 3235TIP3    H231197   6.251   6.183  16.571  1.4661 -0.0859  0.6215
 3236TIP3   OH231198   1.348   6.237   1.375 -0.1431  0.3862 -0.0977
 3236TIP3    H131199   1.315   6.172   1.313  0.1399  1.4474 -1.4008
 3236TIP3    H231200   1.277   6.300   1.383 -0.4722 -0.1388  1.2713
 3237TIP3   OH231201   5.103   4.452  13.253  0.1851 -0.3257  0.4892
 3237TIP3    H131202   5.161   4.527  13.265 -0.2448  0.2254 -0.7774
 3237TIP3    H231203   5.114   4.427  13.161 -0.8466 -0.8374  0.4914
 3238TIP3   OH231204   2.801   4.593  15.324  0.6270  0.2939  0.0252
 3238TIP3    H131205   2.821   4.664  15.263  0.4960  1.3478  1.1682
 3238TIP3    H231206   2.780   4.637  15.406 -0.8872 -1.0182  0.3782
 3239TIP3   OH231207   2.869   6.147   3.812 -0.3659  0.3993 -0.3635
 3239TIP3    H131208   2.860   6.145   3.908  3.4126  1.2562  0.1814
 3239TIP3    H231209   2.913   6.230   3.794  1.7410 -1.0486 -2.4543
 3240TIP3   OH231210   0.295   5.693   0.464 -0.5125  0.2351  0.5870
 3240TIP3    H131211   0.335   5.741   0.393 -1.2503 -1.2410 -0.9086
 3240TIP3    H231212   0.210   5.736   0.478 -0.7472 -0.0065 -0.0595
 3241TIP3   OH231213   3.529   2.750  11.425  1.1432  0.1594  0.2476
 3241TIP3    H131214   3.541   2.684  11.493 -0.4654 -1.7800 -1.2317
 3241TIP3    H231215   3.610   2.748  11.374  2.1768  1.3084  1.7534
 3242TIP3   OH231216   0.412   4.620   1.447  0.0993 -0.0420 -0.4078
 3242TIP3    H131217   0.463   4.675   1.507  1.0645  0.8567 -1.9990
 3242TIP3    H231218   0.341   4.677   1.417 -2.4265 -1.4787  2.3174
 3243TIP3   OH231219   2.281   1.236   2.027 -0.0344  0.1508  0.1396
 3243TIP3    H131220   2.274   1.183   2.106  0.6417  1.0195  0.7958
 3243TIP3    H231221   2.318   1.319   2.056 -0.0287  0.5877 -1.0459
 3244TIP3   OH231222   6.568   2.237   1.709  0.0719  0.3082 -0.3311
 3244TIP3    H131223   6.502   2.228   1.778  1.1136 -0.9880  0.5493
 3244TIP3    H231224   6.647   2.197   1.746  0.5697 -0.7728 -2.3986
 3245TIP3   OH231225   0.612   2.192  10.034 -0.0782  0.6702 -0.0501
 3245TIP3    H131226   0.652   2.266   9.989 -0.2809  0.2846 -0.8946
 3245TIP3    H231227   0.574   2.140   9.963 -0.8360  0.3033  0.6230
 3246TIP3   OH231228   1.987   5.926  15.027 -0.2915  0.2857  0.0767
 3246TIP3    H131229   1.935   5.969  14.959  0.3406  0.6364 -0.1989
 3246TIP3    H231230   1.927   5.866  15.070 -0.7829  0.2954 -0.5883
 3247TIP3   OH231231   6.202   6.691   1.071  0.0862 -0.2983 -0.0497
 3247TIP3    H131232   6.258   6.697   0.994  1.4767  0.6009  0.9810
 3247TIP3    H231233   6.121   6.736   1.046  1.0682  1.2659 -0.5239
 3248TIP3   OH231234   6.125   0.469   2.324 -0.6333  0.5514  0.7409
 3248TIP3    H131235   6.113   0.564   2.318  1.3069  0.7837 -0.3256
 3248TIP3    H231236   6.131   0.440   2.232  1.5004 -0.1795  1.0656
 3249TIP3   OH231237   3.031   0.048   5.647  0.3149  1.0770 -0.4443
 3249TIP3    H131238   2.970   0.030   5.576 -0.0292  0.0120  0.1021
 3249TIP3    H231239   3.106  -0.009   5.630  0.1718  0.7121  0.1145
 3250TIP3   OH231240   2.960   1.422  16.169 -0.2891  0.5112  0.3425
 3250TIP3    H131241   3.011   1.375  16.104 -0.6592 -0.1552  0.5307
 3250TIP3    H231242   3.018   1.493  16.198  1.3457 -1.4142  2.0459
 3251TIP3   OH231243   1.935   6.514  14.220 -0.4015 -0.3904  0.3703
 3251TIP3    H131244   1.900   6.450  14.157  0.4422  0.9758 -1.5695
 3251TIP3    H231245   1.857   6.555  14.257 -0.9111 -0.9044 -0.1066
 3252TIP3   OH231246   6.044   1.400   3.999  0.4287  0.4264  0.1612
 3252TIP3    H131247   6.110   1.469   3.987  0.4116  0.3447 -0.4790
 3252TIP3    H231248   6.020   1.375   3.909 -1.1032  1.0623  0.3561
 3253TIP3   OH231249   3.661   4.100  12.587  0.4436  0.1957  0.3533
 3253TIP3    H131250   3.647   4.007  12.603  0.5130  0.0559 -0.3394
 3253TIP3    H231251   3.690   4.135  12.671 -0.2937 -0.2632  0.8041
 3254TIP3   OH231252   3.084   2.748   0.906  0.4039 -0.2072  0.0128
 3254TIP3    H131253   2.992   2.724   0.909 -0.3361  2.0785 -1.4937
 3254TIP3    H231254   3.084   2.842   0.887  3.0480 -0.2853 -0.8349
 3255TIP3   OH231255   6.372   2.678   0.763 -0.5334  0.2185  0.1426
 3255TIP3    H131256   6.317   2.757   0.764  0.5126  0.9702  1.6406
 3255TIP3    H231257   6.428   2.687   0.840  1.7827 -0.4384 -1.3701
 3256TIP3   OH231258   2.855   5.969  15.035  0.5100  0.0973  0.1097
 3256TIP3    H131259   2.818   5.959  14.948 -1.2448  0.1455  0.8114
 3256TIP3    H231260   2.901   6.053  15.033 -0.5156  0.6570 -0.4416
 3257TIP3   OH231261   1.331   3.834   1.829 -0.5377 -0.1694  0.0060
 3257TIP3    H131262   1.270   3.797   1.892  0.1555  1.0137  1.4363
 3257TIP3    H231263   1.323   3.928   1.840  0.7087  0.0272 -0.5925
 3258TIP3   OH231264   4.706   6.841   4.395  0.0219 -0.2454 -0.2891
 3258TIP3    H131265   4.622   6.802   4.373 -0.6566  0.7533  0.4292
 3258TIP3    H231266   4.769   6.797   4.339 -0.7871 -1.9183  0.0695
 3259TIP3   OH231267   5.368   5.708   3.845 -0.4386  0.6412  0.0999
 3259TIP3    H131268   5.430   5.687   3.915  0.3610  1.3608 -0.3818
 3259TIP3    H231269   5.422   5.714   3.766 -1.1967  0.8025 -0.4117
 3260TIP3   OH231270   3.767   2.134   4.999 -0.0414 -0.3333 -0.1001
 3260TIP3    H131271   3.706   2.083   4.945 -0.2109 -0.2524  0.0155
 3260TIP3    H231272   3.711   2.195   5.046 -0.1881 -1.9412  1.9554
 3261TIP3   OH231273   2.101   6.226  14.939  0.6052  0.1515  0.1460
 3261TIP3    H131274   2.043   6.173  14.884  0.5344  1.8327 -1.5092
 3261TIP3    H231275   2.043   6.291  14.979  0.7823 -0.5784  1.6687
 3262TIP3   OH231276   5.589   2.166   0.720 -0.4956 -0.2631  0.3269
 3262TIP3    H131277   5.520   2.128   0.774 -1.0890  0.8639  0.3953
 3262TIP3    H231278   5.544   2.230   0.665  0.4136  0.0945 -0.0181
 3263TIP3   OH231279   5.575   2.200   4.376 -0.8786 -0.4012 -0.2648
 3263TIP3    H131280   5.537   2.265   4.434 -0.6910 -0.4044 -0.1385
 3263TIP3    H231281   5.540   2.222   4.289  0.0642  0.5709 -0.4246
 3264TIP3   OH231282   3.912   0.794  17.037 -0.3409 -0.5698  0.3335
 3264TIP3    H131283   3.867   0.860  17.090 -0.2874 -0.1081 -0.1925
 3264TIP3    H231284   3.983   0.841  16.994  0.6452 -1.2899  1.1304
 3265TIP3   OH231285   2.758   1.893  13.751  0.5615 -0.4994  0.0643
 3265TIP3    H131286   2.785   1.817  13.802  0.0698 -1.3310 -0.9001
 3265TIP3    H231287   2.750   1.963  13.815  0.6050 -1.3581  1.0242
 3266TIP3   OH231288   4.169   0.358  13.697  0.0504  0.1226  0.3486
 3266TIP3    H131289   4.214   0.398  13.771 -2.1163 -0.4885  2.1392
 3266TIP3    H231290   4.111   0.426  13.664  0.5702  0.2014 -0.4304
 3267TIP3   OH231291   6.434   5.417  11.658 -0.1005 -0.1551 -0.3972
 3267TIP3    H131292   6.374   5.464  11.600 -0.2925 -0.5320 -0.5079
 3267TIP3    H231293   6.427   5.462  11.742  0.8087  0.9296 -0.8660
 3268TIP3   OH231294   1.617   2.361  12.681  0.4810 -0.8625 -0.5151
 3268TIP3    H131295   1.525   2.388  12.681  0.3107 -1.4207  0.5971
 3268TIP3    H231296   1.644   2.366  12.772  1.8258  0.1349 -0.9285
 3269TIP3   OH231297   6.585   3.825   3.030  0.2912 -0.0624 -0.2066
 3269TIP3    H131298   6.520   3.889   3.001  1.0330 -0.0211 -1.8500
 3269TIP3    H231299   6.537   3.743   3.034 -0.5730  0.4617  1.5448
 3270TIP3   OH231300   0.156   3.559  11.634 -0.1286  0.3237 -0.4326
 3270TIP3    H131301   0.109   3.495  11.688 -0.8267  1.3010  0.1434
 3270TIP3    H231302   0.244   3.523  11.626 -0.8000 -1.2957 -1.0996
 3271TIP3   OH231303   3.358   3.328  12.458  0.3374  0.1858  0.0533
 3271TIP3    H131304   3.423   3.260  12.439  0.6327  0.0859  1.3066
 3271TIP3    H231305   3.398   3.380  12.527 -1.1061 -0.1994  1.2286
 3272TIP3   OH231306   4.633   1.843   5.143 -0.3716  0.2161 -0.1760
 3272TIP3    H131307   4.590   1.857   5.059  1.0490 -0.8173 -1.1314
 3272TIP3    H231308   4.611   1.920   5.195 -0.7251  1.1994 -1.7246
 3273TIP3   OH231309   1.846   5.668   4.867  0.4829 -0.0844  0.6971
 3273TIP3    H131310   1.830   5.622   4.784 -0.6274  0.2896  0.6853
 3273TIP3    H231311   1.932   5.637   4.895 -0.3845 -2.5385  0.9158
 3274TIP3   OH231312   4.286   5.768  16.038 -0.0281  0.5988 -0.0862
 3274TIP3    H131313   4.370   5.747  15.997 -0.0410  1.6119 -0.6594
 3274TIP3    H231314   4.228   5.786  15.964 -0.1657  2.0553  0.3557
 3275TIP3   OH231315   5.474   6.119  14.193  0.3226  0.3900  0.8949
 3275TIP3    H131316   5.498   6.032  14.225  1.0066  0.4378  0.5295
 3275TIP3    H231317   5.555   6.154  14.157 -0.4358  0.2387 -1.1007
 3276TIP3   OH231318   0.251   1.979   2.274 -0.1433 -0.3515  0.2645
 3276TIP3    H131319   0.281   2.057   2.320  1.5562 -1.9692  2.0670
 3276TIP3    H231320   0.324   1.954   2.217 -0.6544 -0.6436 -0.2784
 3277TIP3   OH231321   4.408   6.764  13.731  0.2795  1.1478 -0.7085
 3277TIP3    H131322   4.360   6.773  13.814 -2.1116  1.0265 -1.9815
 3277TIP3    H231323   4.404   6.852  13.692 -3.2899  0.2129 -2.9582
 3278TIP3   OH231324   4.407   1.684  13.674 -0.3073 -0.4319 -0.2088
 3278TIP3    H131325   4.440   1.608  13.625  0.0051  0.8563 -2.0912
 3278TIP3    H231326   4.485   1.725  13.710 -0.2299  0.2515 -1.1207
 3279TIP3   OH231327   5.386   2.515   3.594 -0.0311  1.4827  0.1859
 3279TIP3    H131328   5.400   2.547   3.505 -1.0274 -1.0925 -1.0140
 3279TIP3    H231329   5.291   2.517   3.605 -0.1058 -0.5282  0.2011
 3280TIP3   OH231330   5.293   3.679  13.965  0.4814  0.9626 -0.2540
 3280TIP3    H131331   5.330   3.693  14.053 -2.2709 -0.9975  1.3670
 3280TIP3    H231332   5.290   3.584  13.955 -0.1126  1.1479 -2.1205
 3281TIP3   OH231333   3.729   5.444  16.849  0.3971  0.4305 -0.1962
 3281TIP3    H131334   3.799   5.444  16.915 -0.0379  0.2640  0.2779
 3281TIP3    H231335   3.654   5.482  16.895  0.0221  0.0901 -0.5230
 3282TIP3   OH231336   5.883   0.087  13.530  0.0251 -0.1685 -0.1969
 3282TIP3    H131337   5.974   0.058  13.533  0.2434  0.4856 -0.4458
 3282TIP3    H231338   5.887   0.180  13.508 -0.6751  0.0390  0.5013
 3283TIP3   OH231339   6.337   4.248  13.256  0.1069  0.2694 -0.2969
 3283TIP3    H131340   6.346   4.284  13.168 -0.4391  0.4827 -0.2643
 3283TIP3    H231341   6.284   4.169  13.244  0.0221  0.3053 -0.1555
 3284TIP3   OH231342   1.801   1.330  11.676  0.2474  0.2661  0.1839
 3284TIP3    H131343   1.754   1.325  11.759 -0.5567  0.5266 -0.2521
 3284TIP3    H231344   1.878   1.383  11.696  0.5980 -0.5120  0.9991
 3285TIP3   OH231345   0.557   3.263   4.159  0.5138  0.4894 -0.6972
 3285TIP3    H131346   0.521   3.285   4.245 -0.9606 -2.6481 -0.3893
 3285TIP3    H231347   0.557   3.347   4.112 -1.1792  1.8304  1.4421
 3286TIP3   OH231348   3.847   2.823  13.161 -0.0157 -0.2918 -0.0826
 3286TIP3    H131349   3.808   2.736  13.156 -0.4674 -0.0564 -0.9004
 3286TIP3    H231350   3.859   2.839  13.255 -0.3734 -1.0379  0.0965
 3287TIP3   OH231351   6.108   6.224   3.314  0.3777 -0.1210  0.2581
 3287TIP3    H131352   6.064   6.141   3.294  0.0148 -0.3792  1.9784
 3287TIP3    H231353   6.201   6.204   3.308  0.3291  0.0744 -2.0203
 3288TIP3   OH231354   3.052   2.136   0.480  0.1253 -0.4793  0.3729
 3288TIP3    H131355   3.077   2.217   0.435 -1.5930 -0.5591 -0.8268
 3288TIP3    H231356   3.047   2.161   0.572 -2.5287  1.4745 -0.1692
 3289TIP3   OH231357   0.467   0.700  12.342  0.6431  0.7273  0.4231
 3289TIP3    H131358   0.524   0.755  12.395  0.8233  1.0861 -0.1435
 3289TIP3    H231359   0.493   0.610  12.364  1.3919  0.8868  0.2029
 3290TIP3   OH231360   0.092   2.332  14.774 -0.2800 -0.3690  0.0551
 3290TIP3    H131361   0.142   2.262  14.732  0.5813 -0.2896  0.9213
 3290TIP3    H231362   0.001   2.310  14.756 -0.2117 -3.1965  2.4881
 3291TIP3   OH231363   3.919   1.907   5.622  0.1995  0.0064 -0.0835
 3291TIP3    H131364   4.000   1.872   5.587 -1.5549 -1.4321 -3.1377
 3291TIP3    H231365   3.893   1.846   5.691  0.4986 -0.9665 -0.8153
 3292TIP3   OH231366   5.519   6.409  15.170 -0.2312 -0.3457  0.0998
 3292TIP3    H131367   5.435   6.450  15.189 -0.5000 -0.7267 -0.2512
 3292TIP3    H231368   5.585   6.472  15.202 -0.6493 -0.4955  1.3294
 3293TIP3   OH231369   3.363   2.413   0.136 -0.1824 -0.3215  0.4328
 3293TIP3    H131370   3.355   2.367   0.219 -1.1843 -0.5920  0.1996
 3293TIP3    H231371   3.377   2.505   0.161  0.3402 -0.5209  0.8918
 3294TIP3   OH231372   0.592   2.099   5.526  0.6498 -0.3212  0.0641
 3294TIP3    H131373   0.687   2.085   5.535  0.3680 -2.1343  0.6186
 3294TIP3    H231374   0.562   2.022   5.478 -0.3438  1.0255 -1.5645
 3295TIP3   OH231375   3.565   0.779   2.789 -0.3414  0.5518  0.7656
 3295TIP3    H131376   3.649   0.794   2.748 -1.5806  2.0521 -1.3984
 3295TIP3    H231377   3.524   0.865   2.794 -1.9702 -0.2060  1.2660
 3296TIP3   OH231378   0.938   4.038  16.969 -0.3216  0.4322  0.3012
 3296TIP3    H131379   0.863   4.064  16.915  0.1686 -0.6173 -0.9236
 3296TIP3    H231380   0.922   4.080  17.054  0.2577  4.5020 -1.3828
 3297TIP3   OH231381   6.698   1.420   4.601 -0.0549 -0.1440  0.0873
 3297TIP3    H131382   6.694   1.512   4.574  1.1616  0.2433  1.0999
 3297TIP3    H231383   6.607   1.391   4.602 -0.4498  1.0170 -0.3601
 3298TIP3   OH231384   3.960   6.414   1.052 -0.5145  0.3251 -0.0053
 3298TIP3    H131385   4.023   6.358   1.097 -0.5967 -0.6427 -1.0538
 3298TIP3    H231386   4.012   6.487   1.017 -0.3264  0.6483  0.9263
 3299TIP3   OH231387   4.533   1.674  13.972  0.4054 -0.3793 -0.7580
 3299TIP3    H131388   4.564   1.609  14.036  0.5802 -0.4676 -0.9302
 3299TIP3    H231389   4.440   1.652  13.959 -0.2834  1.1084  1.2424
 3300TIP3   OH231390   2.717   4.128   5.073 -0.1477  0.4842 -0.0561
 3300TIP3    H131391   2.643   4.164   5.123 -0.7181 -0.1344 -0.4531
 3300TIP3    H231392   2.793   4.141   5.131 -0.6078  0.8489  0.4758
 3301TIP3   OH231393   6.546   4.127   0.349  0.6818  0.0539 -0.3185
 3301TIP3    H131394   6.545   4.214   0.389  0.0685 -0.2039  0.2335
 3301TIP3    H231395   6.638   4.101   0.353  0.6645  0.0912  0.8190
 3302TIP3   OH231396   2.155   2.972   2.740 -0.0146  0.2685 -0.6653
 3302TIP3    H131397   2.218   2.977   2.812  1.1316 -1.4741 -1.4752
 3302TIP3    H231398   2.070   2.967   2.783  0.7569 -4.0715  0.8784
 3303TIP3   OH231399   1.410   5.143  10.454  0.3175 -0.3191  0.5537
 3303TIP3    H131400   1.440   5.169  10.541 -1.1956 -0.2119  1.0731
 3303TIP3    H231401   1.336   5.200  10.436 -0.3520 -1.3787 -0.1469
 3304TIP3   OH231402   2.605   0.643   2.324  0.3689 -0.1460 -0.5523
 3304TIP3    H131403   2.667   0.657   2.253  0.1175 -0.8497 -0.9130
 3304TIP3    H231404   2.520   0.662   2.286  0.4574  2.5465  0.4020
 3305TIP3   OH231405   3.785   0.365  15.453 -0.0832 -0.3444  0.2203
 3305TIP3    H131406   3.778   0.429  15.524 -0.3336 -1.6118  1.3588
 3305TIP3    H231407   3.828   0.413  15.382  0.9551  0.6993  1.5212
 3306TIP3   OH231408   0.001   2.845  17.037 -0.1506 -0.0036 -0.1869
 3306TIP3    H131409   0.055   2.776  17.076 -0.7922  0.4784  1.6924
 3306TIP3    H231410   0.063   2.898  16.986  0.8855 -0.3583  0.6478
 3307TIP3   OH231411   2.008   1.627  10.818  0.0762 -0.3269 -0.0141
 3307TIP3    H131412   1.945   1.698  10.819 -0.7463 -1.0331  1.3547
 3307TIP3    H231413   1.959   1.551  10.786  0.2975 -0.7974  0.7184
 3308TIP3   OH231414   5.839   5.286   0.298 -0.0238 -0.1632 -0.1620
 3308TIP3    H131415   5.902   5.247   0.360  1.0902  1.0542 -0.4971
 3308TIP3    H231416   5.756   5.284   0.345  0.8683  1.0927  1.5805
 3309TIP3   OH231417   2.720   1.947   1.318 -0.0879 -0.3216  0.3138
 3309TIP3    H131418   2.688   1.857   1.322 -2.1694  0.2646 -1.3134
 3309TIP3    H231419   2.641   2.001   1.312  1.1314  1.4596 -0.9286
 3310TIP3   OH231420   2.545   4.593   2.969 -0.2988  0.4140  0.5619
 3310TIP3    H131421   2.537   4.627   3.058  0.0888 -1.2678  1.2672
 3310TIP3    H231422   2.494   4.513   2.969  0.1136  0.1303 -0.5881
 3311TIP3   OH231423   2.524   1.603   5.118 -0.3505  0.2743 -0.4392
 3311TIP3    H131424   2.504   1.510   5.125 -0.1283  0.3368  4.1337
 3311TIP3    H231425   2.439   1.644   5.100 -1.4275 -0.5796  2.2623
 3312TIP3   OH231426   3.256   4.492   6.453  0.0055  0.2618 -0.2758
 3312TIP3    H131427   3.211   4.570   6.422 -0.4711 -0.4756 -1.5005
 3312TIP3    H231428   3.208   4.419   6.414  2.5283 -0.5695 -2.0757
 3313TIP3   OH231429   4.170   5.019   2.945  1.0327  0.0117 -0.3692
 3313TIP3    H131430   4.097   5.016   3.006  1.0714 -2.8069 -0.3265
 3313TIP3    H231431   4.141   4.966   2.871  2.8035 -0.7388 -0.5788
 3314TIP3   OH231432   1.006   4.153  14.867  0.2499 -0.1608 -0.0909
 3314TIP3    H131433   0.914   4.125  14.872 -0.0534  0.6590 -0.8249
 3314TIP3    H231434   1.028   4.175  14.957  0.3340 -2.1543  0.4293
 3315TIP3   OH231435   6.552   1.247  11.032 -0.2978  0.5101  0.2402
 3315TIP3    H131436   6.582   1.304  10.962  0.1304  1.1675  0.9459
 3315TIP3    H231437   6.555   1.159  10.995  0.7462  0.7580 -0.2853
 3316TIP3   OH231438   2.706   1.898   2.818 -0.6521  0.1644 -0.1225
 3316TIP3    H131439   2.685   1.943   2.900 -2.2372 -0.4467 -0.1646
 3316TIP3    H231440   2.625   1.902   2.767  0.3770  0.7619 -1.7879
 3317TIP3   OH231441   2.005   5.422   1.818  0.1514  0.1772 -0.3159
 3317TIP3    H131442   1.966   5.335   1.808 -0.7731  0.4491  0.6751
 3317TIP3    H231443   1.931   5.478   1.842  0.4581  1.5553 -2.3778
 3318TIP3   OH231444   5.499   1.510   5.429  0.2679  0.1569 -0.5447
 3318TIP3    H131445   5.536   1.450   5.493 -0.5526  0.6339  0.3997
 3318TIP3    H231446   5.405   1.504   5.442  0.0926  0.3751 -1.6194
 3319TIP3   OH231447   4.017   4.269   2.617  0.1552  0.1579  0.4101
 3319TIP3    H131448   3.967   4.337   2.573 -0.8861 -0.1360  1.1213
 3319TIP3    H231449   4.054   4.216   2.546 -0.2524  0.5835 -0.1178
 3320TIP3   OH231450   1.183   6.236  13.541 -0.1534 -0.4305  0.5489
 3320TIP3    H131451   1.243   6.307  13.563 -2.2035  0.8010  2.7069
 3320TIP3    H231452   1.182   6.233  13.446  1.5462  1.0445  0.4412
 3321TIP3   OH231453   5.798   6.555  12.356 -0.3473  0.0137  0.7841
 3321TIP3    H131454   5.712   6.513  12.359  0.2934 -1.3310  2.1341
 3321TIP3    H231455   5.787   6.636  12.404 -1.3926  1.0293 -1.0741
 3322TIP3   OH231456   0.839   6.227   3.690  0.0318  0.4087 -0.2753
 3322TIP3    H131457   0.914   6.277   3.660  0.4071 -0.2784 -0.5096
 3322TIP3    H231458   0.763   6.273   3.654  0.3577  0.9290 -0.2993
 3323TIP3   OH231459   0.712   5.492  15.806  0.0602 -0.3679 -0.7094
 3323TIP3    H131460   0.621   5.492  15.778 -1.0915  3.3320  2.2198
 3323TIP3    H231461   0.759   5.539  15.736 -0.2214 -2.0472 -2.0925
 3324TIP3   OH231462   0.257   0.315   3.867 -0.6041 -0.4291 -0.0767
 3324TIP3    H131463   0.188   0.254   3.893 -1.4303  0.4497 -0.1281
 3324TIP3    H231464   0.213   0.400   3.864  1.0904  0.6857  2.7412
 3325TIP3   OH231465   0.586   3.452   1.495  0.1671  0.0754  0.4775
 3325TIP3    H131466   0.647   3.417   1.430 -0.9449  1.4253 -1.4071
 3325TIP3    H231467   0.639   3.465   1.573  1.8136 -0.6819 -0.4604
 3326TIP3   OH231468   0.765   6.774  16.033  0.2492  0.1365  0.2245
 3326TIP3    H131469   0.808   6.857  16.014  0.8470 -0.3826 -0.7657
 3326TIP3    H231470   0.687   6.773  15.977  0.2114  0.0563  0.2775
 3327TIP3   OH231471   6.261   0.558  16.195 -0.0233 -0.2214  0.5553
 3327TIP3    H131472   6.327   0.490  16.185 -2.2612 -2.3474 -0.8711
 3327TIP3    H231473   6.200   0.523  16.260 -1.0132  0.6039  0.0977
 3328TIP3   OH231474   4.500   3.421   4.768  1.0760  0.4053  0.0821
 3328TIP3    H131475   4.446   3.443   4.692 -0.0789 -1.2536  0.3712
 3328TIP3    H231476   4.576   3.478   4.760 -0.1027  1.9214 -1.0437
 3329TIP3   OH231477   5.728   2.844  16.071  0.4065 -0.1448  0.0881
 3329TIP3    H131478   5.815   2.827  16.034 -0.3075 -2.0370 -0.8255
 3329TIP3    H231479   5.683   2.760  16.068 -0.6984  0.2580  2.7380
 3330TIP3   OH231480   3.164   2.617   5.651 -0.7791 -0.6440  0.0821
 3330TIP3    H131481   3.194   2.527   5.639  0.2150 -0.2125 -0.7506
 3330TIP3    H231482   3.196   2.641   5.738 -0.2767 -0.7981 -0.0562
 3331TIP3   OH231483   0.922   5.599   1.766  0.0489 -0.4107  0.0121
 3331TIP3    H131484   0.842   5.648   1.784 -0.3632 -0.7769 -0.7714
 3331TIP3    H231485   0.906   5.512   1.803  0.0473 -0.5083 -0.2153
 3332TIP3   OH231486   4.292   6.792  12.743 -0.2854  0.4141  0.6080
 3332TIP3    H131487   4.198   6.776  12.735 -0.0464 -0.1319 -2.2696
 3332TIP3    H231488   4.321   6.728  12.808 -1.6938 -0.3880  0.5003
 3333TIP3   OH231489   4.444   2.933  11.284 -0.0401  0.4278  0.2794
 3333TIP3    H131490   4.378   2.991  11.321 -0.7077 -0.6628  0.8288
 3333TIP3    H231491   4.479   2.982  11.209  0.1265  1.9400  1.3140
 3334TIP3   OH231492   1.235   0.216   0.114 -0.3474 -0.1745 -0.1215
 3334TIP3    H131493   1.304   0.236   0.178 -1.4175  0.2502  0.9400
 3334TIP3    H231494   1.263   0.134   0.074  1.8871  1.0933 -1.3384
 3335TIP3   OH231495   4.036   5.972   0.021 -0.4381 -0.7127  0.7721
 3335TIP3    H131496   4.049   6.067   0.020 -1.2019 -0.5642  2.4518
 3335TIP3    H231497   4.103   5.939   0.081 -0.1153 -1.2634  0.1265
 3336TIP3   OH231498   3.791   6.050  13.542  0.4451 -0.1083  0.4113
 3336TIP3    H131499   3.747   5.987  13.599 -1.9587 -0.4306 -1.6510
 3336TIP3    H231500   3.838   5.996  13.478 -0.9144  0.1228 -0.8353
 3337TIP3   OH231501   5.430   3.066  15.702 -0.0817 -0.4451 -0.1447
 3337TIP3    H131502   5.371   3.037  15.772 -0.3871  0.9975  0.2267
 3337TIP3    H231503   5.518   3.041  15.733 -0.1987  0.3006  0.8259
 3338TIP3   OH231504   3.071   3.985   0.218 -0.0039  0.2906  0.0486
 3338TIP3    H131505   3.129   3.926   0.266 -0.3163  0.5688  0.7650
 3338TIP3    H231506   3.013   3.927   0.169  0.4047  0.0110 -0.1167
 3339TIP3   OH231507   0.351   2.594   0.588 -0.1495 -0.1513  0.0493
 3339TIP3    H131508   0.412   2.650   0.539  0.6688 -0.5739  0.5654
 3339TIP3    H231509   0.305   2.545   0.520  2.4163 -2.2645 -0.3456
 3340TIP3   OH231510   3.217   2.714  11.393  0.3174 -0.2115 -0.2565
 3340TIP3    H131511   3.298   2.662  11.387 -1.0301 -2.8989  2.3271
 3340TIP3    H231512   3.221   2.754  11.479  0.4030  2.6438 -1.4708
 3341TIP3   OH231513   2.854   0.891   1.997 -0.3350 -0.6308 -0.3668
 3341TIP3    H131514   2.852   0.955   2.068 -0.6472  0.4270 -1.3069
 3341TIP3    H231515   2.837   0.942   1.918  1.7590 -1.4659 -1.4477
 3342TIP3   OH231516   1.817   1.830  10.792  0.0965 -1.1262 -0.1615
 3342TIP3    H131517   1.749   1.895  10.812  1.2082 -0.3104  1.2030
 3342TIP3    H231518   1.899   1.881  10.792  1.0337 -2.5362  1.2109
 3343TIP3   OH231519   3.696   6.367   4.452 -0.4158  0.2974 -0.6164
 3343TIP3    H131520   3.639   6.441   4.433 -1.1795 -0.0998  0.0971
 3343TIP3    H231521   3.778   6.388   4.406 -1.0528  0.9641 -1.4795
 3344TIP3   OH231522   5.443   3.428  11.870 -0.3799 -0.3137 -0.4105
 3344TIP3    H131523   5.372   3.457  11.812 -1.6096 -1.5269  0.4388
 3344TIP3    H231524   5.482   3.354  11.824  0.1973  0.1905 -0.7536
 3345TIP3   OH231525   2.669   1.289   1.996 -0.1610  0.0379  0.0650
 3345TIP3    H131526   2.622   1.373   2.001 -0.1592  0.1528 -1.3011
 3345TIP3    H231527   2.758   1.311   2.024 -0.4869  0.1835  1.0353
 3346TIP3   OH231528   1.791   6.755  16.464 -0.2919  0.7674  0.3863
 3346TIP3    H131529   1.745   6.750  16.548 -0.6399  0.7493  0.1986
 3346TIP3    H231530   1.867   6.697  16.474 -0.6907  0.2521  0.4610
 3347TIP3   OH231531   3.579   2.045  16.531  0.2058  0.2109  0.0875
 3347TIP3    H131532   3.572   2.032  16.437 -2.1728  1.6561 -0.0051
 3347TIP3    H231533   3.538   1.967  16.569  2.7374 -1.2631  0.0915
 3348TIP3   OH231534   2.032   4.015   2.997 -0.0834 -0.0263 -0.0483
 3348TIP3    H131535   2.071   4.084   2.943 -3.9230  0.9171 -1.9202
 3348TIP3    H231536   1.996   4.061   3.073 -0.4178 -0.3933  0.0153
 3349TIP3   OH231537   0.980   1.031   5.809  0.0463 -0.8712 -0.2668
 3349TIP3    H131538   1.039   0.969   5.766 -1.0407 -1.1794 -1.3722
 3349TIP3    H231539   0.933   1.072   5.737 -0.3678  0.1088  0.5490
 3350TIP3   OH231540   1.372   5.312  12.596 -0.4707 -0.3608 -0.5426
 3350TIP3    H131541   1.343   5.373  12.663  1.3924 -1.6111  1.5331
 3350TIP3    H231542   1.296   5.257  12.578 -1.1881  0.4347  0.0209
 3351TIP3   OH231543   2.933   6.597  14.481 -0.9129 -0.3626  0.2985
 3351TIP3    H131544   2.844   6.630  14.493 -1.0508 -0.7238  0.2866
 3351TIP3    H231545   2.976   6.661  14.424 -1.6810 -1.0474 -1.1038
 3352TIP3   OH231546   3.785   5.356  12.327  0.3135  0.2159  0.6761
 3352TIP3    H131547   3.806   5.343  12.419  1.9696 -1.9682  0.0677
 3352TIP3    H231548   3.697   5.322  12.317  0.8710 -1.4125  1.1010
 3353TIP3   OH231549   0.322   0.480  16.740  0.1697 -0.2869  0.3031
 3353TIP3    H131550   0.322   0.556  16.681  1.1134  0.2492  0.9746
 3353TIP3    H231551   0.414   0.468  16.764 -0.0813 -1.1182  0.8799
 3354TIP3   OH231552   6.056   5.881   3.584 -0.2256  0.1143  0.3970
 3354TIP3    H131553   6.099   5.966   3.596 -0.2088  0.1392  0.1582
 3354TIP3    H231554   5.987   5.898   3.520 -0.6347  0.0871  0.8306
 3355TIP3   OH231555   0.581   3.838  12.447  0.4013  0.0936  0.3048
 3355TIP3    H131556   0.505   3.800  12.491  0.9914 -1.5152  0.0120
 3355TIP3    H231557   0.550   3.922  12.414 -0.7105  0.3149  1.7775
 3356TIP3   OH231558   2.224   5.700   4.270 -0.3852 -0.1552  0.0298
 3356TIP3    H131559   2.188   5.614   4.246 -0.0432  0.3349 -2.4371
 3356TIP3    H231560   2.159   5.763   4.241  0.3920  0.5258 -0.2718
 3357TIP3   OH231561   0.692   0.504   2.529 -0.4953 -0.0921  0.7124
 3357TIP3    H131562   0.697   0.599   2.542 -0.9929  0.4664 -2.5045
 3357TIP3    H231563   0.618   0.477   2.584  0.5824  1.0498  2.8632
 3358TIP3   OH231564   3.804   0.663  15.988 -0.1721  0.6044  0.6720
 3358TIP3    H131565   3.721   0.643  16.031 -0.5095 -1.6658 -0.8680
 3358TIP3    H231566   3.780   0.688  15.899  0.7804 -1.0040 -0.0925
 3359TIP3   OH231567   6.220   6.404   1.696  0.0224  0.5208  0.1884
 3359TIP3    H131568   6.130   6.380   1.675  0.7191  0.1504 -2.8416
 3359TIP3    H231569   6.248   6.339   1.761 -0.5098 -2.4501 -2.2914
 3360TIP3   OH231570   5.865   6.707  16.116 -0.1679 -0.0572  0.1791
 3360TIP3    H131571   5.820   6.778  16.070 -0.5862 -1.2191 -1.2474
 3360TIP3    H231572   5.859   6.732  16.209 -0.7018  1.5292 -0.2452
 3361TIP3   OH231573   4.879   4.853   2.723  0.0260 -0.0131  0.2825
 3361TIP3    H131574   4.843   4.850   2.635  1.1077  1.3764 -0.2356
 3361TIP3    H231575   4.803   4.865   2.780 -0.5682  0.1903 -0.5443
 3362TIP3   OH231576   4.986   6.270  14.205 -0.7329 -0.7399  0.3218
 3362TIP3    H131577   5.069   6.260  14.159 -1.8802  0.6673 -2.2880
 3362TIP3    H231578   4.946   6.348  14.167 -4.0071 -2.2795  0.1961
 3363TIP3   OH231579   4.559   1.451  16.553 -0.4957  0.2438  0.3855
 3363TIP3    H131580   4.495   1.403  16.500  1.5018 -0.8324 -1.2157
 3363TIP3    H231581   4.530   1.542  16.549 -2.3904 -0.3089  0.4707
 3364TIP3   OH231582   2.813   0.556  12.195  0.0955 -0.4632  0.2838
 3364TIP3    H131583   2.738   0.614  12.184  1.1478  0.9481  0.1889
 3364TIP3    H231584   2.837   0.530  12.106  1.1059  0.9761  0.1053
 3365TIP3   OH231585   3.332   0.390   0.284  0.2169 -0.3886  0.3972
 3365TIP3    H131586   3.240   0.365   0.295  0.5982 -1.9297  0.3749
 3365TIP3    H231587   3.329   0.465   0.224 -1.1235  0.8605  1.9419
 3366TIP3   OH231588   2.893   3.915   3.158  0.6550  0.0597 -0.2261
 3366TIP3    H131589   2.880   4.009   3.166  1.3055  0.1740 -0.4415
 3366TIP3    H231590   2.805   3.878   3.164  0.4269  0.6522  0.2007
 3367TIP3   OH231591   4.613   6.612  10.621 -0.0195  0.1707  0.4155
 3367TIP3    H131592   4.582   6.546  10.559 -0.7480  0.9223 -0.0607
 3367TIP3    H231593   4.556   6.603  10.697 -0.5369  0.6441  0.0964
 3368TIP3   OH231594   6.299   6.115   0.894  0.2726 -0.3093  0.7273
 3368TIP3    H131595   6.262   6.113   0.806  0.2993  0.5037  0.6892
 3368TIP3    H231596   6.228   6.086   0.951  0.3727 -1.2183  0.4115
 3369TIP3   OH231597   6.709   0.735  12.470 -0.0500  0.7051 -0.0959
 3369TIP3    H131598   6.785   0.741  12.411  1.0299 -0.6933  1.0828
 3369TIP3    H231599   6.643   0.688  12.419  0.7431 -0.1618 -0.3652
 3370TIP3   OH231600   5.212   4.692  15.012  0.0158 -0.1506  0.0615
 3370TIP3    H131601   5.252   4.672  15.097 -0.7467 -1.4596  0.1464
 3370TIP3    H231602   5.272   4.653  14.948  0.5389  0.7493 -0.0095
 3371TIP3   OH231603   3.052   0.895   1.771  0.0091 -0.2665 -0.1843
 3371TIP3    H131604   2.989   0.897   1.843  0.2779 -0.3861  0.0551
 3371TIP3    H231605   3.132   0.860   1.810  0.0964 -0.5253 -0.5862
 3372TIP3   OH231606   0.270   5.459   3.920  0.6370  0.4157 -0.5910
 3372TIP3    H131607   0.362   5.444   3.942 -0.2532 -1.8853  2.2362
 3372TIP3    H231608   0.242   5.378   3.878 -0.2544  0.8378 -0.8379
 3373TIP3   OH231609   3.427   1.116  16.604 -0.0295  0.0043  0.7060
 3373TIP3    H131610   3.387   1.123  16.517 -0.0319  0.2100  0.7242
 3373TIP3    H231611   3.516   1.149  16.592 -0.0683  0.1480  0.8075
 3374TIP3   OH231612   0.351   1.776   1.258  0.5685  0.0974  0.4023
 3374TIP3    H131613   0.273   1.824   1.284  0.8015 -0.1895  1.7548
 3374TIP3    H231614   0.322   1.719   1.187 -0.7108 -0.7130  1.5224
 3375TIP3   OH231615   4.524   5.028  13.208 -0.8065  0.2616 -0.1774
 3375TIP3    H131616   4.510   5.043  13.115  2.2190  1.3494 -0.5867
 3375TIP3    H231617   4.489   4.940  13.224 -0.7360 -0.2511 -2.5316
 3376TIP3   OH231618   6.082   1.392   3.368 -0.1940  0.6814  0.3133
 3376TIP3    H131619   6.089   1.403   3.273 -0.6565 -0.5212  0.1293
 3376TIP3    H231620   6.172   1.379   3.398 -0.2505 -1.6529 -0.3417
 3377TIP3   OH231621   0.839   1.845  17.006  0.2537 -0.1462 -0.3873
 3377TIP3    H131622   0.902   1.795  17.058 -1.2661 -2.2437 -0.4469
 3377TIP3    H231623   0.776   1.877  17.070  0.8228  1.1409 -0.4426
 3378TIP3   OH231624   1.450   5.843   4.958 -0.6823 -0.7308  0.8394
 3378TIP3    H131625   1.510   5.838   5.032  1.6620 -1.6069 -0.9949
 3378TIP3    H231626   1.493   5.903   4.897 -1.2194 -2.0338 -0.9002
 3379TIP3   OH231627   6.664   3.374   2.559  0.0505  0.0205  0.2936
 3379TIP3    H131628   6.638   3.304   2.618 -0.6632 -0.1624 -0.2231
 3379TIP3    H231629   6.705   3.330   2.485  1.0073  0.2534  0.6690
 3380TIP3   OH231630   1.274   0.610  13.496 -0.1981 -0.6196  0.4866
 3380TIP3    H131631   1.203   0.604  13.559  0.3258  1.9612  1.4248
 3380TIP3    H231632   1.326   0.530  13.510 -2.5933 -2.3434  0.0512
 3381TIP3   OH231633   4.504   3.967   4.201  0.0692  0.0376  0.0847
 3381TIP3    H131634   4.455   3.885   4.201 -0.4268  0.3263 -0.5418
 3381TIP3    H231635   4.589   3.945   4.239 -0.3810 -0.5692  0.7760
 3382TIP3   OH231636   6.340   1.138  12.069  0.8162 -0.2534 -0.5725
 3382TIP3    H131637   6.245   1.150  12.078  0.9353  0.7634 -0.5533
 3382TIP3    H231638   6.365   1.086  12.145  0.5801  1.2917  0.6027
 3383TIP3   OH231639   0.098   1.424  15.599 -0.2327 -0.0496  0.1052
 3383TIP3    H131640   0.023   1.377  15.633 -1.2118  0.9463 -0.5930
 3383TIP3    H231641   0.107   1.393  15.509 -0.5982  0.7146 -0.2102
 3384TIP3   OH231642   6.407   1.800   0.390 -0.3238 -0.4675  0.1039
 3384TIP3    H131643   6.391   1.848   0.309 -1.2081  0.0131  0.5523
 3384TIP3    H231644   6.391   1.708   0.367 -1.2671 -0.2621 -0.1005
 3385TIP3   OH231645   5.294   6.814  15.046  0.3005 -0.1050 -0.6634
 3385TIP3    H131646   5.287   6.909  15.031 -0.8792 -0.3048 -1.4872
 3385TIP3    H231647   5.325   6.780  14.962  1.4657 -0.3835 -0.1378
 3386TIP3   OH231648   6.609   3.974  15.167 -1.0020  0.3245  0.2949
 3386TIP3    H131649   6.656   4.034  15.110 -0.5452  0.7719  1.1270
 3386TIP3    H231650   6.658   3.891  15.160 -0.9073  0.3951  0.1035
 3387TIP3   OH231651   3.870   2.349  12.186 -0.0813  0.0488 -0.1922
 3387TIP3    H131652   3.873   2.363  12.281 -1.1050 -0.4903 -0.0714
 3387TIP3    H231653   3.875   2.436  12.148 -3.1249  0.6184  0.4584
 3388TIP3   OH231654   6.500   2.542  12.752 -0.6654 -0.3432  0.3205
 3388TIP3    H131655   6.430   2.558  12.688 -0.9875 -1.3734  0.4023
 3388TIP3    H231656   6.572   2.598  12.723 -0.7428 -0.9205 -1.0585
 3389TIP3   OH231657   5.810   5.026   3.132  0.3732  0.2495  0.2267
 3389TIP3    H131658   5.852   4.974   3.064  0.6985  1.1826 -0.3017
 3389TIP3    H231659   5.840   4.987   3.214  2.2608  0.8511 -0.1341
 3390TIP3   OH231660   5.424   4.050   1.968  0.0442  0.1639  0.4505
 3390TIP3    H131661   5.414   3.957   1.953 -1.5318  0.3225  0.3748
 3390TIP3    H231662   5.478   4.056   2.047 -1.4929 -0.8449  1.6151
 3391TIP3   OH231663   6.800   2.223   2.358  0.5431  0.5510 -1.0981
 3391TIP3    H131664   6.769   2.273   2.433  0.8821  0.5343 -0.9462
 3391TIP3    H231665   6.884   2.264   2.335  1.1487 -0.3624 -0.5619
 3392TIP3   OH231666   6.584   4.586   4.875  0.3768  0.3823  0.2493
 3392TIP3    H131667   6.523   4.660   4.870 -0.1958 -0.0332  0.8369
 3392TIP3    H231668   6.537   4.513   4.835  1.6155  0.7253 -1.9543
 3393TIP3   OH231669   5.071   4.251  15.922  0.2145 -0.5883  0.1051
 3393TIP3    H131670   5.109   4.246  15.835 -0.9351 -4.5131 -0.3929
 3393TIP3    H231671   5.146   4.250  15.981  1.0412 -2.2322 -0.8853
 3394TIP3   OH231672   0.923   6.400   1.575 -0.5009  0.1076  0.5485
 3394TIP3    H131673   0.944   6.492   1.558 -1.9296  0.6932  1.7498
 3394TIP3    H231674   0.956   6.353   1.498  0.2055  1.6169 -0.1080
 3395TIP3   OH231675   5.802   5.161  16.566 -0.8125 -0.3937 -0.3681
 3395TIP3    H131676   5.763   5.244  16.593 -0.0325  0.0179 -0.4543
 3395TIP3    H231677   5.747   5.094  16.606 -1.2486  0.1692 -0.0075
 3396TIP3   OH231678   5.389   2.625  10.913 -0.2225 -0.6145 -0.8102
 3396TIP3    H131679   5.331   2.571  10.966  0.3664  1.0444  1.7140
 3396TIP3    H231680   5.331   2.684  10.865 -0.7124 -0.4624 -0.0416
 3397TIP3   OH231681   4.424   0.867  14.631 -0.2897  0.1576  0.3301
 3397TIP3    H131682   4.344   0.868  14.683 -0.2567 -1.0181  0.4357
 3397TIP3    H231683   4.495   0.875  14.696 -0.1013 -3.8413  0.9227
 3398TIP3   OH231684   2.002   2.283  13.857  0.4992 -0.5172  0.0751
 3398TIP3    H131685   2.097   2.285  13.857  0.4863  0.2020 -0.0777
 3398TIP3    H231686   1.976   2.358  13.910  0.0139 -0.7653  0.1979
 3399TIP3   OH231687   1.467   1.747   2.206 -0.3451  0.1639  0.0355
 3399TIP3    H131688   1.396   1.805   2.180  0.2844 -0.0431 -2.3338
 3399TIP3    H231689   1.547   1.790   2.174  0.4336 -0.5740  0.8992
 3400TIP3   OH231690   1.878   5.164   1.782 -0.2481  0.2939 -0.2394
 3400TIP3    H131691   1.783   5.160   1.794 -0.1783  0.5008  0.4900
 3400TIP3    H231692   1.894   5.131   1.694 -1.0976  1.3831 -0.8197
 3401TIP3   OH231693   4.128   5.452   0.820 -0.0927  0.2447 -0.0926
 3401TIP3    H131694   4.187   5.393   0.868  0.4229 -0.7495 -1.8494
 3401TIP3    H231695   4.187   5.512   0.774 -0.5670  1.0606  0.3544
 3402TIP3   OH231696   5.064   1.425  13.604  0.0205  0.9342  0.2560
 3402TIP3    H131697   5.059   1.428  13.699 -2.1338 -1.0981  0.2979
 3402TIP3    H231698   5.042   1.513  13.575  0.0409  1.4070  1.6241
 3403TIP3   OH231699   4.212   6.682  16.898 -0.8264  0.1352  0.0505
 3403TIP3    H131700   4.301   6.708  16.875 -0.6592 -0.9914 -0.6553
 3403TIP3    H231701   4.186   6.743  16.967  0.6548  0.2141  0.5702
 3404TIP3   OH231702   4.713   1.897  15.693 -0.1137 -0.0131 -0.1750
 3404TIP3    H131703   4.715   1.992  15.684 -2.4743 -0.0939 -2.7136
 3404TIP3    H231704   4.624   1.877  15.721 -0.2498 -1.5395 -1.5564
 3405TIP3   OH231705   0.545   6.790  11.507  0.7629  0.5407  0.4772
 3405TIP3    H131706   0.511   6.878  11.493  0.0934 -0.0308 -2.0984
 3405TIP3    H231707   0.611   6.800  11.576 -0.3100  2.7582  1.2748
 3406TIP3   OH231708   6.135   5.152  12.643 -0.0153  0.0118  0.7515
 3406TIP3    H131709   6.189   5.091  12.593  0.7080  2.2222 -1.3017
 3406TIP3    H231710   6.163   5.139  12.734  2.8832 -0.0447 -0.0493
 3407TIP3   OH231711   2.919   3.041  16.231 -0.1870 -0.4652 -0.0623
 3407TIP3    H131712   2.921   3.134  16.207 -0.0559 -0.6066 -0.6351
 3407TIP3    H231713   3.009   3.020  16.253 -0.4405 -0.1413  1.3885
 3408TIP3   OH231714   3.139   2.261  12.639 -0.1798 -0.1382  0.2480
 3408TIP3    H131715   3.135   2.258  12.543 -0.6280  1.6564  0.1850
 3408TIP3    H231716   3.201   2.191  12.662  1.3038  0.5255 -1.4731
 3409TIP3   OH231717   2.001   1.177  14.200 -0.1623 -0.3943 -0.4599
 3409TIP3    H131718   2.074   1.194  14.260  0.0959 -0.9902 -0.5990
 3409TIP3    H231719   1.959   1.098  14.234 -0.0980 -0.6609 -0.9777
 3410TIP3   OH231720   1.681   4.935   5.110 -0.1569 -0.2058 -0.2897
 3410TIP3    H131721   1.633   4.854   5.096  0.6159 -0.9854  1.3328
 3410TIP3    H231722   1.671   4.954   5.203  2.9282 -0.6323  0.2311
 3411TIP3   OH231723   5.205   4.905  17.038 -0.6122  0.0530 -0.4288
 3411TIP3    H131724   5.260   4.898  17.116  0.6482  1.4243 -1.1614
 3411TIP3    H231725   5.247   4.848  16.973 -0.2137  0.8499 -0.8847
 3412TIP3   OH231726   2.170   6.841  17.016 -0.2507 -0.8907 -0.1281
 3412TIP3    H131727   2.186   6.923  16.969 -2.9043  0.3476  0.9639
 3412TIP3    H231728   2.234   6.841  17.087  2.1402 -1.5803 -2.1446
 3413TIP3   OH231729   5.715   3.740   0.793 -0.8120 -1.1123 -0.1524
 3413TIP3    H131730   5.701   3.766   0.884  0.2592  1.2603 -0.5715
 3413TIP3    H231731   5.709   3.822   0.744  0.8267 -1.9925 -1.9447
 3414TIP3   OH231732   5.977   5.791   2.889 -0.6754  0.2429 -0.4975
 3414TIP3    H131733   5.919   5.719   2.865 -0.3845 -0.6152  1.2614
 3414TIP3    H231734   6.061   5.750   2.908  0.6430  1.4646 -3.0322
 3415TIP3   OH231735   1.703   6.062   5.845 -0.0657 -0.1612  0.3678
 3415TIP3    H131736   1.700   6.076   5.940  1.1819 -1.1544  0.5800
 3415TIP3    H231737   1.613   6.040   5.821 -0.4524  0.3747  1.2628
 3416TIP3   OH231738   0.411   4.455   5.260 -0.4249  0.2618 -0.0019
 3416TIP3    H131739   0.470   4.383   5.280  0.5402  0.7613 -0.9182
 3416TIP3    H231740   0.430   4.521   5.326  0.8247  0.8396 -0.9060
 3417TIP3   OH231741   5.412   2.122   6.594  0.4846  0.7333  0.0762
 3417TIP3    H131742   5.459   2.073   6.527 -0.0543  0.3176 -0.0022
 3417TIP3    H231743   5.412   2.065   6.671 -0.9241  0.2018 -0.2847
 3418TIP3   OH231744   2.997   6.228  15.303  0.1782 -0.5241  0.5384
 3418TIP3    H131745   2.921   6.172  15.287  0.7110 -1.2095  0.4073
 3418TIP3    H231746   2.973   6.277  15.382  0.4713 -2.3246  1.7970
 3419TIP3   OH231747   5.485   0.274  16.166  0.0834  0.1024  0.3676
 3419TIP3    H131748   5.463   0.252  16.075  3.3556  2.2717 -1.1473
 3419TIP3    H231749   5.527   0.195  16.200  0.1144 -0.2875 -0.5321
 3420TIP3   OH231750   1.943   1.152   5.948  0.0248  0.2934  0.2764
 3420TIP3    H131751   1.878   1.102   5.995 -0.2677  1.9743  1.7685
 3420TIP3    H231752   2.006   1.179   6.015 -0.3208  2.6203 -0.2419
 3421TIP3   OH231753   2.105   0.112  14.322  0.3834  0.1338  0.7018
 3421TIP3    H131754   2.162   0.035  14.324  0.9997  0.5256 -0.7703
 3421TIP3    H231755   2.018   0.077  14.301  0.9562 -0.0562 -1.6370
 3422TIP3   OH231756   3.467   1.048   2.781 -0.1029 -0.6269 -0.0398
 3422TIP3    H131757   3.421   1.060   2.864  1.2450 -0.0475  0.6433
 3422TIP3    H231758   3.472   1.136   2.744 -0.3191 -0.8229 -0.5512
 3423TIP3   OH231759   0.400   5.672   1.242 -0.2387 -0.4950 -0.4087
 3423TIP3    H131760   0.397   5.699   1.150  0.4421 -0.0796 -0.3193
 3423TIP3    H231761   0.423   5.580   1.240 -0.7887 -0.6325 -0.6676
 3424TIP3   OH231762   2.783   1.922  11.716 -0.4228 -0.1914 -0.5913
 3424TIP3    H131763   2.744   1.959  11.795  1.0012  1.1201 -0.4462
 3424TIP3    H231764   2.775   1.828  11.727 -1.2630 -0.0053  0.5724
 3425TIP3   OH231765   3.387   2.971  10.546  0.0455  0.4084 -0.1074
 3425TIP3    H131766   3.369   2.926  10.463 -0.2917  0.9857 -0.3548
 3425TIP3    H231767   3.378   2.903  10.613 -3.7258  0.6887 -0.1177
 3426TIP3   OH231768   4.154   2.276   5.370 -0.2721  0.4948  0.6308
 3426TIP3    H131769   4.245   2.296   5.350 -1.0379  1.7404 -2.1203
 3426TIP3    H231770   4.126   2.347   5.428  0.1598  0.9076  0.3403
 3427TIP3   OH231771   2.259   2.352   1.604  0.2770  0.7261 -0.6862
 3427TIP3    H131772   2.340   2.361   1.554  0.4504 -0.9181 -0.7551
 3427TIP3    H231773   2.208   2.287   1.555 -0.2379  0.2826  0.4118
 3428TIP3   OH231774   4.161   6.070  14.108  0.2450 -0.3491 -0.4734
 3428TIP3    H131775   4.074   6.095  14.137  0.2787  0.4180 -1.0098
 3428TIP3    H231776   4.220   6.102  14.176  0.0857 -1.3037  0.1384
 3429TIP3   OH231777   6.846   0.415  12.814  0.0880 -0.3678  0.2822
 3429TIP3    H131778   6.887   0.463  12.887 -0.5361  0.3534  0.1728
 3429TIP3    H231779   6.804   0.483  12.761 -1.9201 -1.1187  0.8068
 3430TIP3   OH231780   5.414   3.302   6.095 -0.3285 -0.1778 -0.3041
 3430TIP3    H131781   5.354   3.239   6.134 -0.3802  0.6639  1.0751
 3430TIP3    H231782   5.470   3.330   6.168  0.0842  0.9068 -1.0028
 3431TIP3   OH231783   2.943   1.232  16.907  0.2178  0.3025 -0.5973
 3431TIP3    H131784   2.965   1.311  16.858  0.8257  0.3054 -0.3286
 3431TIP3    H231785   2.924   1.263  16.996 -0.4924  0.2513 -0.7238
 3432TIP3   OH231786   1.949   2.675   5.576  0.0156 -0.2967 -0.8198
 3432TIP3    H131787   1.872   2.726   5.550 -0.3780  1.6340  3.1942
 3432TIP3    H231788   2.019   2.706   5.519 -1.9670 -1.9837 -4.4788
 3433TIP3   OH231789   2.157   3.692   5.638  0.2181  0.4440  0.4135
 3433TIP3    H131790   2.203   3.776   5.644 -0.2643  0.6287  1.9161
 3433TIP3    H231791   2.226   3.629   5.617  0.5143  1.2521 -1.2096
 3434TIP3   OH231792   2.907   0.517  15.191  0.0455  0.1785 -0.2548
 3434TIP3    H131793   2.847   0.512  15.117 -2.8898  0.2130  1.9332
 3434TIP3    H231794   2.950   0.602  15.183  0.2406 -0.0689 -2.1619
 3435TIP3   OH231795   2.145   2.954   0.793  0.1410  0.1252  0.5614
 3435TIP3    H131796   2.211   2.952   0.724 -0.5369 -0.2899 -0.0907
 3435TIP3    H231797   2.062   2.960   0.746 -0.3472 -0.4610  1.3296
 3436TIP3   OH231798   1.015   4.711   4.319 -0.1944 -0.0406 -0.1677
 3436TIP3    H131799   0.941   4.669   4.361 -0.0549  0.2556  0.3785
 3436TIP3    H231800   1.011   4.802   4.348  1.7504 -0.5022  1.8064
 3437TIP3   OH231801   5.591   0.139  12.078 -0.3723  0.2871 -0.5975
 3437TIP3    H131802   5.506   0.111  12.043 -1.2398  2.7201 -0.6298
 3437TIP3    H231803   5.578   0.139  12.173  0.6525 -2.2963 -0.3762
 3438TIP3   OH231804   3.578   2.001   5.813 -0.5960  0.6215  0.1632
 3438TIP3    H131805   3.668   2.032   5.799 -1.1100  2.6521  0.9386
 3438TIP3    H231806   3.569   1.927   5.753  1.5158  0.4784 -0.0826
 3439TIP3   OH231807   5.697   0.073  13.324  0.2250  0.0991 -0.0028
 3439TIP3    H131808   5.768   0.052  13.385 -0.5697  2.8217  2.0907
 3439TIP3    H231809   5.619   0.076  13.380 -0.5897  2.4330 -1.1424
 3440TIP3   OH231810   2.518   4.494   0.638 -0.2745 -0.3313  0.1966
 3440TIP3    H131811   2.535   4.402   0.617  0.0920  0.2273 -2.1455
 3440TIP3    H231812   2.591   4.542   0.600 -0.9637  1.0394  0.5245
 3441TIP3   OH231813   3.960   6.362  12.041 -0.6406  0.4198  0.4199
 3441TIP3    H131814   4.014   6.331  11.969  0.3577  3.1266 -0.0811
 3441TIP3    H231815   3.952   6.456  12.027 -3.4893  0.4843  1.8475
 3442TIP3   OH231816   3.404   2.828  12.032  0.0776 -0.1145 -0.4925
 3442TIP3    H131817   3.449   2.744  12.028 -1.0851 -0.7620 -0.4706
 3442TIP3    H231818   3.449   2.878  12.100  0.8580 -0.6702 -0.6018
 3443TIP3   OH231819   3.550   2.858  13.787 -0.3892  0.5814  0.1074
 3443TIP3    H131820   3.572   2.792  13.852  0.2910 -1.9609 -2.4700
 3443TIP3    H231821   3.613   2.929  13.801  0.3762 -0.3433  1.5422
 3444TIP3   OH231822   1.042   5.887  15.463  0.2057  0.2084 -0.0960
 3444TIP3    H131823   0.986   5.963  15.476 -0.3747 -0.4985  2.0162
 3444TIP3    H231824   1.067   5.860  15.552  1.8841 -0.9874 -0.8654
 3445TIP3   OH231825   0.538   0.184  14.206 -0.2761 -0.0753 -0.1708
 3445TIP3    H131826   0.500   0.107  14.164  4.0727 -1.7235 -1.6056
 3445TIP3    H231827   0.525   0.254  14.142 -1.6390 -0.3323 -0.1944
 3446TIP3   OH231828   2.739   5.059  14.488  0.4669 -0.6641  0.2369
 3446TIP3    H131829   2.764   5.092  14.574 -0.4503  0.6959  0.0081
 3446TIP3    H231830   2.692   4.978  14.507 -1.7993  0.7883  1.2578
 3447TIP3   OH231831   4.047   0.079   6.465  0.1249 -0.0429 -0.4964
 3447TIP3    H131832   4.071   0.033   6.545  0.4857 -0.1790 -0.6809
 3447TIP3    H231833   3.963   0.040   6.439 -1.7045  2.1884  1.5615
 3448TIP3   OH231834   6.741   3.713  15.114  0.1989  0.4486 -0.2717
 3448TIP3    H131835   6.662   3.677  15.074  1.0772 -1.2088 -0.5929
 3448TIP3    H231836   6.766   3.650  15.181  0.1297  1.9821  1.2712
 3449TIP3   OH231837   1.153   2.435  14.434 -0.2928 -0.3158 -0.2287
 3449TIP3    H131838   1.142   2.366  14.368 -0.5389  0.0189 -0.5459
 3449TIP3    H231839   1.087   2.501  14.410 -1.7078 -1.0398  1.4705
 3450TIP3   OH231840   0.030   0.366   2.542  0.0070  0.1160 -0.2338
 3450TIP3    H131841   0.029   0.402   2.631  0.1105  1.2142 -0.6554
 3450TIP3    H231842  -0.057   0.326   2.531 -0.0181  0.0063  0.3450
 3451TIP3   OH231843   6.848   6.631  11.871 -0.5606  0.3193  0.1600
 3451TIP3    H131844   6.881   6.696  11.810  1.9585 -1.3099 -0.3416
 3451TIP3    H231845   6.817   6.683  11.946  1.1564  2.1130 -0.2851
 3452TIP3   OH231846   1.366   0.510   0.059 -0.3138 -0.1700  0.2306
 3452TIP3    H131847   1.380   0.530   0.152 -0.0003 -2.3470  0.6995
 3452TIP3    H231848   1.451   0.477   0.029 -0.4756  0.3096 -0.7853
 3453TIP3   OH231849   5.674   3.950   4.529  0.2836 -0.3223  0.0779
 3453TIP3    H131850   5.689   4.043   4.516  0.0504 -0.1846  0.7361
 3453TIP3    H231851   5.611   3.946   4.602 -0.6849 -0.9466 -0.7597
 3454TIP3   OH231852   6.440   0.468   2.259 -0.0300 -0.3899  0.0650
 3454TIP3    H131853   6.353   0.508   2.254  0.0279 -0.4095 -2.3130
 3454TIP3    H231854   6.478   0.482   2.172  2.3677 -0.3908  1.0264
 3455TIP3   OH231855   6.675   1.815   5.198 -0.3144  0.5251 -0.6831
 3455TIP3    H131856   6.594   1.863   5.181 -1.1674 -0.7031 -0.1707
 3455TIP3    H231857   6.651   1.745   5.258  1.1334  0.1390 -0.4950
 3456TIP3   OH231858   6.440   0.124  16.601  0.2145  0.3527  0.1283
 3456TIP3    H131859   6.465   0.032  16.594  0.7354  0.5630 -1.2102
 3456TIP3    H231860   6.393   0.131  16.684 -0.3492 -1.2330 -0.0357
 3457TIP3   OH231861   2.574   5.315  16.567 -0.0163 -0.2262 -0.6969
 3457TIP3    H131862   2.601   5.369  16.493  0.0521  1.3113  0.4207
 3457TIP3    H231863   2.638   5.244  16.570  0.1490 -0.1456 -1.9105
 3458TIP3   OH231864   4.759   1.104  14.644 -0.4669  0.5309  0.1986
 3458TIP3    H131865   4.774   1.013  14.616  1.4872  0.9891 -0.4272
 3458TIP3    H231866   4.735   1.096  14.736 -2.2694 -0.7141 -0.3255
 3459TIP3   OH231867   0.843   0.492  13.009 -1.0619 -0.3711 -0.3524
 3459TIP3    H131868   0.911   0.470  12.946 -1.3817  1.1269 -1.2838
 3459TIP3    H231869   0.855   0.429  13.081  0.1399 -1.2777 -1.3024
 3460TIP3   OH231870   0.070   5.638   6.441 -0.1831 -0.0959 -0.1009
 3460TIP3    H131871   0.102   5.722   6.409 -1.0292 -0.6126 -2.4630
 3460TIP3    H231872   0.149   5.588   6.462  0.5627 -0.1921 -2.7826
 3461TIP3   OH231873   3.842   3.095   5.140 -0.2736 -0.2303  0.2369
 3461TIP3    H131874   3.859   3.099   5.234  2.2127 -1.4944 -0.0741
 3461TIP3    H231875   3.867   3.182   5.108  0.3369 -0.2851  0.5554
 3462TIP3   OH231876   4.052   3.969   3.236 -0.2303 -0.3060 -0.0920
 3462TIP3    H131877   3.966   4.001   3.206  0.6717  1.0002 -1.4572
 3462TIP3    H231878   4.113   3.997   3.167  1.4647 -0.1939  1.3765
 3463TIP3   OH231879   4.976   2.568  15.749 -0.0620 -0.2914  0.1563
 3463TIP3    H131880   4.923   2.625  15.804  0.0400  0.6517 -0.6930
 3463TIP3    H231881   4.938   2.577  15.661  0.0319 -1.4477 -0.0256
 3464TIP3   OH231882   3.441   0.997  15.748  0.0871  0.1440  0.2418
 3464TIP3    H131883   3.374   1.064  15.761 -1.1244 -0.8207 -0.7674
 3464TIP3    H231884   3.448   0.989  15.653  1.3911 -0.0281  0.3362
 3465TIP3   OH231885   1.646   0.865   5.580  0.3821  0.0107  0.9299
 3465TIP3    H131886   1.645   0.922   5.658  1.8177  1.3239  0.0578
 3465TIP3    H231887   1.618   0.923   5.509  0.8942 -0.6564  0.1762
 3466TIP3   OH231888   0.365   4.675  13.538 -0.4064 -0.4555 -0.1153
 3466TIP3    H131889   0.368   4.671  13.443 -0.1558 -2.1168 -0.0749
 3466TIP3    H231890   0.451   4.709  13.564 -0.4510 -0.0634 -0.4699
 3467TIP3   OH231891   2.389   6.751   5.048  0.5654 -0.0958  0.0945
 3467TIP3    H131892   2.325   6.822   5.049  0.1197 -0.4831  1.3190
 3467TIP3    H231893   2.453   6.778   4.983 -0.7117  0.4097 -0.9925
 3468TIP3   OH231894   5.298   3.754   3.585  0.0848 -0.2128  0.5418
 3468TIP3    H131895   5.224   3.802   3.624 -0.3192  0.6510 -1.1993
 3468TIP3    H231896   5.272   3.740   3.494  1.7451 -0.6156  0.1050
 3469TIP3   OH231897   0.684   2.604  14.222 -0.1300  0.0356 -0.5030
 3469TIP3    H131898   0.642   2.683  14.255 -0.7777 -0.8449  0.8961
 3469TIP3    H231899   0.648   2.592  14.134 -0.8514  0.7181 -0.3122
 3470TIP3   OH231900   1.281   3.993   4.424 -0.1676  0.1023  0.2226
 3470TIP3    H131901   1.322   4.071   4.462 -0.5296  0.7199 -0.6393
 3470TIP3    H231902   1.354   3.945   4.384  0.2572 -0.6726  1.8361
 3471TIP3   OH231903   5.663   5.475   2.681 -0.1797 -0.2050  0.4352
 3471TIP3    H131904   5.688   5.423   2.605 -0.3468  0.9235 -0.4204
 3471TIP3    H231905   5.745   5.514   2.711  0.1176 -1.7493  1.7143
 3472TIP3   OH231906   2.032   5.457  16.750 -0.2911  0.0019 -0.2706
 3472TIP3    H131907   2.038   5.462  16.654  1.5133  0.5910 -0.1549
 3472TIP3    H231908   2.084   5.531  16.781  0.2200 -0.9443  1.1881
 3473TIP3   OH231909   3.219   2.857   6.449 -0.0483 -0.0765  0.5635
 3473TIP3    H131910   3.183   2.813   6.372 -0.8876 -0.6640  1.2791
 3473TIP3    H231911   3.151   2.919   6.475  0.8215  1.1668  0.0052
 3474TIP3   OH231912   3.517   4.716   4.493 -0.1871  0.1580  0.0823
 3474TIP3    H131913   3.445   4.735   4.553 -1.3469  1.9086 -1.6884
 3474TIP3    H231914   3.477   4.664   4.424  0.2533  0.9867 -0.8282
 3475TIP3   OH231915   3.971   1.671  16.906 -0.8889  0.2464 -0.0483
 3475TIP3    H131916   3.892   1.638  16.949  0.1018 -1.2345  0.7163
 3475TIP3    H231917   4.044   1.629  16.952  0.2762 -0.7967 -2.5779
 3476TIP3   OH231918   3.209   2.200   1.928  0.5524 -0.4268 -0.3472
 3476TIP3    H131919   3.221   2.291   1.958 -0.2621 -0.0704 -1.0842
 3476TIP3    H231920   3.291   2.179   1.884  0.6560  0.0304 -0.3809
 3477TIP3   OH231921   0.143   4.235   0.646  0.0429  0.2401 -0.1824
 3477TIP3    H131922   0.083   4.179   0.694  0.1588  1.2172  1.1722
 3477TIP3    H231923   0.222   4.182   0.635 -1.1180 -1.1792 -2.2856
 3478TIP3   OH231924   3.303   5.673   5.021 -0.1061 -0.5461  0.0679
 3478TIP3    H131925   3.210   5.695   5.025 -0.0683 -0.2881 -0.5083
 3478TIP3    H231926   3.327   5.681   4.929  0.6852  0.2098  0.3156
 3479TIP3   OH231927   5.404   3.858  12.812  0.3817  0.5564 -0.0646
 3479TIP3    H131928   5.399   3.764  12.828 -0.3974  0.7411  0.9914
 3479TIP3    H231929   5.494   3.874  12.785 -0.0190 -0.7781 -2.4787
 3480TIP3   OH231930   4.202   3.341   0.667  0.5577 -0.5840  0.0272
 3480TIP3    H131931   4.294   3.360   0.687  0.5325 -0.3701 -0.0530
 3480TIP3    H231932   4.185   3.386   0.584 -0.2455  1.3691  1.1581
 3481TIP3   OH231933   4.958   6.337   4.958  0.8425  0.3555  0.0246
 3481TIP3    H131934   4.912   6.267   5.004  2.0492 -0.6603 -0.2636
 3481TIP3    H231935   4.990   6.296   4.877  0.4272  1.5942 -0.8041
 3482TIP3   OH231936   6.037   2.269   3.641 -0.2944  0.0097 -0.5314
 3482TIP3    H131937   6.052   2.182   3.679 -0.6063 -0.0755 -0.6016
 3482TIP3    H231938   6.041   2.329   3.716 -0.7458 -0.1397 -0.3866
 3483TIP3   OH231939   2.740   4.584   5.963  0.3723  0.9478  0.2463
 3483TIP3    H131940   2.698   4.670   5.954  2.0107  1.8558  0.7352
 3483TIP3    H231941   2.781   4.587   6.050 -0.2947 -0.7069  0.6571
 3484TIP3   OH231942   0.062   3.364   4.126  0.6118 -0.3594 -0.4674
 3484TIP3    H131943   0.098   3.379   4.213 -0.2217 -0.1368 -0.1564
 3484TIP3    H231944  -0.001   3.293   4.137  0.3554 -0.1980 -0.8479
 3485TIP3   OH231945   4.684   3.453  13.264  0.3071 -0.3977  0.4630
 3485TIP3    H131946   4.712   3.522  13.204 -2.9742 -1.0728 -2.1377
 3485TIP3    H231947   4.633   3.498  13.331  1.6767  0.0732  1.2200
 3486TIP3   OH231948   0.072   3.345  15.571  0.1424 -0.1898  0.3670
 3486TIP3    H131949   0.028   3.261  15.579  0.7685 -0.6904 -0.9692
 3486TIP3    H231950   0.003   3.410  15.582 -1.1876 -0.9424 -2.5527
 3487TIP3   OH231951   4.495   2.080   4.377  0.0489  0.2947  0.4774
 3487TIP3    H131952   4.489   2.148   4.309  0.0970 -0.7477 -0.6056
 3487TIP3    H231953   4.554   2.014   4.340 -0.9892 -0.9438  0.9630
 3488TIP3   OH231954   2.939   2.903  14.793 -0.0101 -0.3105  0.1367
 3488TIP3    H131955   2.947   2.961  14.717 -0.7800 -0.4836 -0.0883
 3488TIP3    H231956   3.014   2.845  14.787  0.5307  0.3755  0.1179
 3489TIP3   OH231957   3.329   2.595   5.403  0.1892  0.0006  0.7723
 3489TIP3    H131958   3.314   2.527   5.469 -1.9424  0.5332  0.9077
 3489TIP3    H231959   3.368   2.548   5.329 -2.1775 -1.6283  0.4665
 3490TIP3   OH231960   1.824   6.454  10.555 -0.0138 -0.4608 -0.0995
 3490TIP3    H131961   1.866   6.375  10.590  0.1584 -0.0914  0.5403
 3490TIP3    H231962   1.868   6.526  10.599 -0.0643  0.0083 -0.7960
 3491TIP3   OH231963   5.053   4.532   4.798  0.5633 -0.2047 -0.6051
 3491TIP3    H131964   5.140   4.502   4.824  0.9180  0.2218 -1.2630
 3491TIP3    H231965   5.048   4.622   4.829  0.1203 -0.4147 -0.0471
 3492TIP3   OH231966   0.899   1.822   6.036 -0.2526 -0.1178  0.2220
 3492TIP3    H131967   0.924   1.730   6.049 -0.7066 -0.1792  0.6748
 3492TIP3    H231968   0.897   1.833   5.941 -0.1568 -0.5617  0.1653
 3493TIP3   OH231969   0.835   0.981   4.697 -0.1772 -0.4177 -0.2677
 3493TIP3    H131970   0.930   0.988   4.698 -0.3014  1.6603  0.2754
 3493TIP3    H231971   0.804   1.062   4.737 -2.1684 -1.6728  0.9106
 3494TIP3   OH231972   4.419   5.062   4.851  0.0145 -0.5732  0.1211
 3494TIP3    H131973   4.389   4.980   4.889 -0.6609 -0.5264 -0.2998
 3494TIP3    H231974   4.341   5.117   4.848 -0.2393 -0.9660 -2.3759
 3495TIP3   OH231975   6.527   2.935   1.367 -0.0820 -0.4424  0.0078
 3495TIP3    H131976   6.528   2.862   1.428  0.5334 -1.7090 -1.4500
 3495TIP3    H231977   6.611   2.929   1.321 -0.5324  0.4488 -0.9831
 3496TIP3   OH231978   5.340   5.947  15.220 -0.5124  0.0358 -0.7024
 3496TIP3    H131979   5.355   5.918  15.130 -0.6265  0.6222 -0.9133
 3496TIP3    H231980   5.412   6.008  15.238 -1.1989  0.9015 -0.8407
 3497TIP3   OH231981   6.592   0.413  15.640  0.0472  0.1254 -0.4456
 3497TIP3    H131982   6.636   0.494  15.666  2.0316 -1.6016  2.0517
 3497TIP3    H231983   6.506   0.419  15.682  1.1614 -0.1420  2.0527
 3498TIP3   OH231984   2.098   2.190   2.019 -0.8644 -0.0501  0.1916
 3498TIP3    H131985   2.022   2.218   2.069 -0.6531  1.4878 -0.2871
 3498TIP3    H231986   2.158   2.152   2.083 -0.4158  2.2502  1.2284
 3499TIP3   OH231987   1.127   3.719   1.960 -0.2301 -0.0620 -0.1554
 3499TIP3    H131988   1.106   3.765   2.041 -0.7742  0.3989 -0.5494
 3499TIP3    H231989   1.150   3.631   1.988 -0.7233  0.0009  0.4745
 3500TIP3   OH231990   2.497   6.211  12.681 -0.0197  0.3710 -0.1737
 3500TIP3    H131991   2.447   6.292  12.693 -2.1181 -0.9953  0.8884
 3500TIP3    H231992   2.572   6.221  12.740 -0.2540  1.5040 -0.0307
 3501TIP3   OH231993   4.661   5.982   2.872  0.3323 -0.6771  0.2195
 3501TIP3    H131994   4.640   6.013   2.960 -1.5986 -2.5005  0.4977
 3501TIP3    H231995   4.670   5.887   2.881  0.1277 -0.9090 -1.5436
 3502TIP3   OH231996   2.612   2.940   0.374  0.0831 -0.4322 -0.3678
 3502TIP3    H131997   2.526   2.970   0.345  0.5558  0.5441 -0.7948
 3502TIP3    H231998   2.673   3.007   0.344  0.9160 -0.7410  0.5570
 3503TIP3   OH231999   6.068   0.170  12.747  0.4241 -0.5654 -0.6301
 3503TIP3    H132000   5.992   0.223  12.721 -0.2232 -1.3366 -0.3511
 3503TIP3    H232001   6.053   0.086  12.705  0.7391 -0.9651  0.0452
 3504TIP3   OH232002   0.447   6.784  12.957 -0.5946 -0.1824  0.0767
 3504TIP3    H132003   0.456   6.717  13.025  0.3486 -1.2600 -1.0708
 3504TIP3    H232004   0.537   6.807  12.934 -0.9078  0.7037 -0.3080
 3505TIP3   OH232005   5.717   5.727  10.844 -0.7845  0.0224  0.4550
 3505TIP3    H132006   5.623   5.715  10.858 -1.4235  0.6731 -2.5999
 3505TIP3    H232007   5.745   5.780  10.919 -3.3020  1.6412  0.3987
 3506TIP3   OH232008   5.931   5.488   0.898 -0.0705  0.0358 -0.1866
 3506TIP3    H132009   5.863   5.434   0.940 -0.3273  0.0671 -0.5603
 3506TIP3    H232010   5.907   5.488   0.805 -0.9649  2.0748 -0.0027
 3507TIP3   OH232011   2.760   6.707   6.076 -0.3691 -0.3460  0.4995
 3507TIP3    H132012   2.739   6.615   6.094 -2.2090 -0.9063 -3.3789
 3507TIP3    H232013   2.856   6.711   6.083  0.0205 -3.1917 -1.2126
 3508TIP3   OH232014   2.714   1.711   1.185  0.6908  0.3160 -0.7432
 3508TIP3    H132015   2.684   1.716   1.094  1.6428 -1.4518 -1.2015
 3508TIP3    H232016   2.783   1.645   1.184 -0.0709 -0.6159  1.4923
 3509TIP3   OH232017   2.035   5.862   3.290  0.0387  0.4210  0.2820
 3509TIP3    H132018   1.992   5.783   3.324  0.2096 -0.1262 -0.7207
 3509TIP3    H232019   2.125   5.856   3.323  0.5766 -0.7971 -1.2867
 3510TIP3   OH232020   2.310   1.315  15.949  0.1173 -0.9376  0.4165
 3510TIP3    H132021   2.344   1.395  15.988 -4.0086  1.5864 -0.4651
 3510TIP3    H232022   2.303   1.253  16.022  0.5368  0.6101  1.8098
 3511TIP3   OH232023   6.776   2.761  12.953  0.4262  0.1396  0.0408
 3511TIP3    H132024   6.871   2.765  12.949  0.3996  0.8444 -0.0409
 3511TIP3    H232025   6.757   2.728  13.041  0.7637 -2.5764 -0.8080
 3512TIP3   OH232026   6.703   2.213  14.733  0.1512  0.5769 -0.0475
 3512TIP3    H132027   6.718   2.224  14.827  2.0714 -2.2529  0.1180
 3512TIP3    H232028   6.624   2.160  14.727  0.9274 -0.6513  0.1302
 3513TIP3   OH232029   5.003   0.978  13.705  0.2446  0.0468 -0.0384
 3513TIP3    H132030   4.937   1.019  13.650 -0.8609 -0.4709  0.8618
 3513TIP3    H232031   5.071   1.045  13.716  0.6462  0.0728 -2.2125
 3514TIP3   OH232032   6.487   5.799   6.521  0.5476  0.0686 -0.3534
 3514TIP3    H132033   6.516   5.794   6.612 -1.2506  0.6790  0.3104
 3514TIP3    H232034   6.566   5.815   6.470  1.4959  0.3586  1.1757
 3515TIP3   OH232035   6.641   5.848  14.566 -0.2589 -0.2076 -0.0868
 3515TIP3    H132036   6.705   5.810  14.626 -1.0801 -1.3946  0.0947
 3515TIP3    H232037   6.609   5.926  14.610 -0.1503 -0.5397  0.5913
 3516TIP3   OH232038   5.756   3.900  15.954 -0.6342 -0.5410  0.4308
 3516TIP3    H132039   5.735   3.986  15.989  0.9311 -0.1262  0.4128
 3516TIP3    H232040   5.747   3.841  16.029  1.5430  0.1639  1.3156
 3517TIP3   OH232041   6.693   3.692   3.600 -0.2286  0.1410 -0.4902
 3517TIP3    H132042   6.764   3.756   3.610  1.0416 -1.3751  0.5994
 3517TIP3    H232043   6.646   3.722   3.522  0.7715  1.9558 -0.4691
 3518TIP3   OH232044   2.226   5.274  11.855 -0.1194  0.3598 -0.2240
 3518TIP3    H132045   2.250   5.359  11.891 -1.3457 -0.0447  1.7045
 3518TIP3    H232046   2.307   5.224  11.853  0.1334  0.6802  1.2675
 3519TIP3   OH232047   3.015   1.553  13.539 -0.4276  0.0740 -0.4709
 3519TIP3    H132048   3.032   1.587  13.451 -0.9137 -0.6469 -0.8486
 3519TIP3    H232049   2.969   1.471  13.525  0.2996 -0.5185  0.4397
 3520TIP3   OH232050   4.691   2.016  15.200  0.5567  0.2340 -0.9262
 3520TIP3    H132051   4.734   2.102  15.195 -1.1361  1.1034 -1.3739
 3520TIP3    H232052   4.730   1.974  15.276  2.6093  0.7111 -1.6370
 3521TIP3   OH232053   5.254   0.202  15.430 -0.0386  0.3438  0.1872
 3521TIP3    H132054   5.339   0.157  15.435  0.0492  0.4140 -0.5728
 3521TIP3    H232055   5.200   0.157  15.495  0.6534  0.4614  0.8535
 3522TIP3   OH232056   6.305   2.124   2.115 -0.2839  0.6062  0.2097
 3522TIP3    H132057   6.398   2.102   2.107 -0.0151  1.9913 -0.8044
 3522TIP3    H232058   6.272   2.063   2.181  0.5926 -2.1732 -1.7253
 3523TIP3   OH232059   6.601   0.946  17.114  0.0370 -0.3016 -0.2290
 3523TIP3    H132060   6.643   1.032  17.105  1.0947 -0.8085 -0.2536
 3523TIP3    H232061   6.639   0.893  17.045 -0.4838 -0.8430 -0.1062
 3524TIP3   OH232062   2.865   2.433  10.866 -0.0563  0.4675  0.1129
 3524TIP3    H132063   2.770   2.440  10.853 -0.2850 -0.5307  1.0715
 3524TIP3    H232064   2.875   2.363  10.931  1.3485  0.4763 -0.0665
 3525TIP3   OH232065   1.422   3.757  14.170  0.2266 -0.1395  0.1925
 3525TIP3    H132066   1.365   3.807  14.112  0.0735  0.3503  0.7550
 3525TIP3    H232067   1.413   3.667  14.140 -2.8155 -0.5172  1.8032
 3526TIP3   OH232068   6.630   0.308   2.444  0.5951 -0.0415 -0.2448
 3526TIP3    H132069   6.596   0.367   2.377  0.2503  1.2722  1.0183
 3526TIP3    H232070   6.646   0.225   2.399  1.2985  1.0754 -2.1248
 3527TIP3   OH232071   3.347   1.744  12.417  0.5497 -0.3710 -0.1119
 3527TIP3    H132072   3.273   1.689  12.389  0.3259 -0.6132  0.9182
 3527TIP3    H232073   3.342   1.744  12.513  0.3014  1.7866 -0.0842
 3528TIP3   OH232074   2.182   2.160   3.297 -0.1487  0.2816 -0.4835
 3528TIP3    H132075   2.153   2.251   3.305 -1.1097 -0.1731  2.9056
 3528TIP3    H232076   2.266   2.157   3.344 -0.7785 -0.7894  0.6326
 3529TIP3   OH232077   1.660   5.208   3.566  0.3724  0.0916  0.1359
 3529TIP3    H132078   1.684   5.156   3.642  0.5402 -0.1242 -0.0604
 3529TIP3    H232079   1.671   5.149   3.492 -0.8270 -0.0255  0.0383
 3530TIP3   OH232080   4.899   0.592   5.664 -0.1105  0.0824  0.1255
 3530TIP3    H132081   4.838   0.555   5.600 -1.3176  1.0198  0.6866
 3530TIP3    H232082   4.986   0.579   5.626 -0.4145 -3.3330  0.3143
 3531TIP3   OH232083   4.658   6.085  10.679 -0.0635  0.1268 -0.2543
 3531TIP3    H132084   4.743   6.051  10.707 -0.8233 -0.6998  1.1593
 3531TIP3    H232085   4.663   6.086  10.583  1.9336  1.2096 -0.1909
 3532TIP3   OH232086   5.013   1.925   2.141 -0.7763 -0.6758  0.0369
 3532TIP3    H132087   5.098   1.942   2.100 -1.9986  0.2726 -2.2847
 3532TIP3    H232088   5.029   1.852   2.200  1.8198  0.0232  0.3082
 3533TIP3   OH232089   5.685   6.188  16.012 -0.6225  0.1555 -0.5190
 3533TIP3    H132090   5.641   6.107  15.986 -0.6056  0.2176 -0.7428
 3533TIP3    H232091   5.683   6.243  15.933  1.6265 -0.6100 -1.2130
 3534TIP3   OH232092   2.195   2.113   1.273  0.5514  0.2852  0.1571
 3534TIP3    H132093   2.116   2.141   1.226  0.8834 -0.1070 -0.6614
 3534TIP3    H232094   2.168   2.105   1.364 -0.6762 -0.9771 -0.2776
 3535TIP3   OH232095   4.433   0.839   5.259 -0.2859 -0.0841  0.1841
 3535TIP3    H132096   4.400   0.929   5.250 -0.0448 -0.1250 -1.3427
 3535TIP3    H232097   4.527   0.847   5.244  0.5382  0.0085  4.2894
 3536TIP3   OH232098   1.502   6.824  11.025  0.4229  0.1608 -0.4296
 3536TIP3    H132099   1.585   6.832  10.979 -0.2115 -0.0941 -1.6533
 3536TIP3    H232100   1.467   6.739  10.998  0.5763 -0.5566  1.4824
 3537TIP3   OH232101   0.597   5.107   2.417  0.2239 -0.5018  0.4781
 3537TIP3    H132102   0.650   5.048   2.363 -0.2887  0.4890 -1.2007
 3537TIP3    H232103   0.656   5.177   2.442  0.8596 -1.6969  2.5577
 3538TIP3   OH232104   5.690   2.590   0.871 -0.7304 -0.9058  0.3139
 3538TIP3    H132105   5.675   2.614   0.779  0.3441  1.1514  0.6267
 3538TIP3    H232106   5.661   2.666   0.921  2.7332 -0.0927  1.3871
 3539TIP3   OH232107   6.597   1.763  13.626  0.4214  0.4853 -0.1066
 3539TIP3    H132108   6.645   1.696  13.674  1.7431  0.4150 -1.4516
 3539TIP3    H232109   6.548   1.810  13.694  0.8142 -0.7276  1.0686
 3540TIP3   OH232110   3.528   0.440   0.619 -0.2464 -0.2128  0.1239
 3540TIP3    H132111   3.622   0.458   0.619 -0.1981 -0.3244 -1.2191
 3540TIP3    H232112   3.496   0.477   0.701  0.4410  2.7863 -0.8531
 3541TIP3   OH232113   5.556   1.909   4.438 -0.2705 -0.3969  0.1609
 3541TIP3    H132114   5.556   2.004   4.449 -1.8045 -0.5600  2.1283
 3541TIP3    H232115   5.566   1.896   4.344 -0.4104  1.7155 -0.1987
 3542TIP3   OH232116   2.628   2.509   3.342  0.3502  0.0352  0.0147
 3542TIP3    H132117   2.686   2.565   3.393  0.6203  0.7856 -1.0777
 3542TIP3    H232118   2.563   2.477   3.405 -0.5243  2.5413  0.5020
 3543TIP3   OH232119   4.457   2.302   3.526 -0.2509 -0.3457 -0.3686
 3543TIP3    H132120   4.439   2.242   3.598 -1.0710 -3.6560 -3.0634
 3543TIP3    H232121   4.385   2.366   3.530 -0.7646 -0.9753  1.2023
 3544TIP3   OH232122   6.656   3.425   5.079 -0.2930 -0.0251 -0.6578
 3544TIP3    H132123   6.744   3.403   5.110 -0.1105  1.8402  0.3047
 3544TIP3    H232124   6.606   3.443   5.159 -0.8602  1.2805 -1.2692
 3545TIP3   OH232125   5.313   4.976  11.336 -0.0138  0.1029 -0.0384
 3545TIP3    H132126   5.347   5.062  11.311  0.1478  0.3148  0.9056
 3545TIP3    H232127   5.218   4.986  11.334 -0.0197 -0.0257 -1.0438
 3546TIP3   OH232128   3.165   2.026   4.659 -0.2563  0.1070  0.5424
 3546TIP3    H132129   3.239   1.991   4.708  0.0580 -0.7984 -0.5324
 3546TIP3    H232130   3.205   2.080   4.591 -0.6665  0.9523  0.9573
 3547TIP3   OH232131   2.495   3.589   2.803  0.2479 -0.0105 -0.1771
 3547TIP3    H132132   2.486   3.500   2.768 -1.8283 -0.2622  0.8507
 3547TIP3    H232133   2.548   3.635   2.738 -1.0730 -1.2258 -2.2188
 3548TIP3   OH232134   2.631   0.514   3.035 -0.0886  0.3806 -0.1527
 3548TIP3    H132135   2.691   0.542   2.965  0.7932  1.0361  0.8449
 3548TIP3    H232136   2.674   0.438   3.074 -1.6620 -1.4380 -1.7402
 3549TIP3   OH232137   3.322   6.749   4.550 -0.0178  0.2817 -0.4190
 3549TIP3    H132138   3.251   6.795   4.594 -1.4807  0.0669 -2.4316
 3549TIP3    H232139   3.282   6.668   4.518  1.7509 -0.9904  0.4586
 3550TIP3   OH232140   6.227   6.672   3.885 -0.1092  0.4189  0.2672
 3550TIP3    H132141   6.155   6.695   3.826 -1.2312 -0.5503  1.2271
 3550TIP3    H232142   6.218   6.733   3.958  0.9083  1.2078 -0.2305
 3551TIP3   OH232143   1.225   5.770   4.578  0.4562 -0.2347  0.7236
 3551TIP3    H132144   1.291   5.707   4.606 -0.4796 -1.0446  1.1652
 3551TIP3    H232145   1.220   5.760   4.483  1.1160 -0.0080  0.6614
 3552TIP3   OH232146   2.336   3.875  12.087  0.3953 -0.4340  0.0912
 3552TIP3    H132147   2.246   3.859  12.116  0.3981  0.1069  0.4080
 3552TIP3    H232148   2.338   3.845  11.996 -0.2668  0.1038 -0.1055
 3553TIP3   OH232149   1.237   1.077  15.441 -0.6347 -0.5648  0.1190
 3553TIP3    H132150   1.264   1.090  15.532 -0.0627 -0.5243 -0.0546
 3553TIP3    H232151   1.260   0.987  15.421 -0.0911 -0.3540 -0.2126
 3554TIP3   OH232152   1.070   5.019   2.667 -0.1086  0.7774 -0.2216
 3554TIP3    H132153   1.117   5.083   2.720 -0.8789  1.2863 -0.1389
 3554TIP3    H232154   1.055   4.945   2.727  1.1104  0.3407 -0.4269
 3555TIP3   OH232155   1.116   6.204  16.734 -0.1924 -0.6034  0.6140
 3555TIP3    H132156   1.146   6.114  16.718 -0.3779 -0.4464 -0.6729
 3555TIP3    H232157   1.021   6.195  16.748 -0.0520 -0.7231  1.5359
 3556TIP3   OH232158   1.188   2.494  14.055  0.1435 -0.4097  0.0618
 3556TIP3    H132159   1.203   2.574  14.106  2.2939 -0.2572 -0.7488
 3556TIP3    H232160   1.275   2.467  14.026 -0.8604 -1.2753 -2.3628
 3557TIP3   OH232161   1.001   3.789  17.101  0.0978  0.2222  0.5074
 3557TIP3    H132162   0.907   3.776  17.089  0.3528 -2.1808  0.6850
 3557TIP3    H232163   1.019   3.873  17.058 -1.9765  0.3620 -0.2086
 3558TIP3   OH232164   4.026   0.015  10.798  0.3719 -0.4059 -0.1057
 3558TIP3    H132165   4.010   0.045  10.708 -0.2730 -0.5973 -0.0563
 3558TIP3    H232166   4.033  -0.080  10.791  1.1852 -0.3538 -0.0769
 3559TIP3   OH232167   6.727   3.235   3.759 -0.0668  0.4979 -0.4398
 3559TIP3    H132168   6.757   3.171   3.694  2.2624 -0.8373  1.7494
 3559TIP3    H232169   6.784   3.311   3.745 -0.4814  0.7452 -0.8055
 3560TIP3   OH232170   5.877   1.060   3.192  0.3239 -0.1401 -0.2704
 3560TIP3    H132171   5.795   1.059   3.242 -0.2553 -0.4557 -1.2063
 3560TIP3    H232172   5.850   1.060   3.101  1.3756 -0.1431 -0.5988
 3561TIP3   OH232173   0.041   3.255  11.774 -0.5760  0.3484 -0.4685
 3561TIP3    H132174  -0.011   3.209  11.840  0.0248  0.9446  0.4555
 3561TIP3    H232175   0.131   3.246  11.804  0.1276 -2.1532 -2.9425
 3562TIP3   OH232176   1.120   4.242  15.364  0.2099 -0.0251  0.2672
 3562TIP3    H132177   1.189   4.184  15.398 -0.0220  0.3510  1.4335
 3562TIP3    H232178   1.152   4.330  15.382 -0.4201  0.1583  0.5164
 3563TIP3   OH232179   4.147   3.919  16.821  0.0538 -0.0101  0.4622
 3563TIP3    H132180   4.094   3.941  16.745 -0.2397 -0.0290  0.6614
 3563TIP3    H232181   4.093   3.859  16.872  0.5218 -0.5471  0.3382
 3564TIP3   OH232182   4.407   3.619  11.961 -0.1415  0.3578  0.0030
 3564TIP3    H132183   4.494   3.658  11.972  0.4933 -1.5133  2.6174
 3564TIP3    H232184   4.422   3.542  11.905 -0.2604  0.4631 -0.1741
 3565TIP3   OH232185   3.679   6.605   1.946 -0.7528 -0.1007 -0.0205
 3565TIP3    H132186   3.708   6.519   1.979 -1.6143 -1.4386 -2.4753
 3565TIP3    H232187   3.720   6.612   1.860 -1.2330  1.6903 -0.1433
 3566TIP3   OH232188   0.395   2.764  13.356  0.5494  0.3044  0.2481
 3566TIP3    H132189   0.331   2.834  13.365  0.6154  0.1333  2.3689
 3566TIP3    H232190   0.458   2.779  13.426  0.9810 -1.4401  0.2859
 3567TIP3   OH232191   2.184   3.056  13.929 -0.3426 -0.0555  0.0034
 3567TIP3    H132192   2.259   3.093  13.883 -0.7963 -0.0715 -0.7624
 3567TIP3    H232193   2.134   3.011  13.862 -1.9465  1.4088  0.1425
 3568TIP3   OH232194   5.330   1.271   2.399  0.8065  0.1629  0.1370
 3568TIP3    H132195   5.256   1.297   2.345  1.5523 -0.2905 -1.1652
 3568TIP3    H232196   5.390   1.345   2.395 -0.0001  0.9932  2.0983
 3569TIP3   OH232197   3.593   4.463  12.395 -0.6627 -0.1589 -0.3250
 3569TIP3    H132198   3.513   4.422  12.428 -1.3954  2.9337  2.1416
 3569TIP3    H232199   3.664   4.411  12.433 -1.5188 -0.4505  0.9289
 3570TIP3   OH232200   2.297   3.556   1.946 -0.2931 -0.2308  0.4413
 3570TIP3    H132201   2.342   3.488   1.995  0.1785 -0.4684 -0.3158
 3570TIP3    H232202   2.311   3.636   1.997 -0.2607 -0.5661  0.9641
 3571TIP3   OH232203   2.241   6.680  15.004  0.5590 -0.6331 -0.1153
 3571TIP3    H132204   2.169   6.659  15.062 -0.2264 -0.6758 -1.0799
 3571TIP3    H232205   2.234   6.617  14.932  0.4097  0.5261 -1.1555
 3572TIP3   OH232206   0.417   1.566  12.343  0.1835  0.0215 -0.8006
 3572TIP3    H132207   0.347   1.508  12.373  0.9635 -1.0785 -1.0539
 3572TIP3    H232208   0.418   1.554  12.248  0.7620 -0.0348 -0.7908
 3573TIP3   OH232209   0.058   6.857  12.820  0.4478  0.2088 -0.5686
 3573TIP3    H132210   0.045   6.941  12.776 -0.3340  0.3702 -0.0562
 3573TIP3    H232211   0.060   6.793  12.749  2.9806  0.8086 -1.1492
 3574TIP3   OH232212   6.729   1.668   4.079  0.1076  0.3328  0.1934
 3574TIP3    H132213   6.704   1.581   4.110  1.3689 -0.3382 -0.5956
 3574TIP3    H232214   6.753   1.715   4.159 -1.6197  0.3387  0.7389
 3575TIP3   OH232215   5.505   5.564   4.797  0.0455  0.5127  0.0307
 3575TIP3    H132216   5.524   5.562   4.891  0.1682  0.1105 -0.0007
 3575TIP3    H232217   5.543   5.647   4.767 -0.5698  0.9560  0.4522
 3576TIP3   OH232218   5.027   4.108  14.486 -0.2862 -0.1202  0.0255
 3576TIP3    H132219   5.064   4.133  14.571 -1.1520  0.1042  0.3489
 3576TIP3    H232220   4.962   4.041  14.506  1.2523 -1.9245 -0.7357
 3577TIP3   OH232221   2.107   0.253   5.483  0.5387 -0.4717 -0.3962
 3577TIP3    H132222   2.050   0.207   5.421  0.7758 -1.5355  0.1414
 3577TIP3    H232223   2.193   0.252   5.440  0.4180  0.0491 -0.6630
 3578TIP3   OH232224   2.607   2.966   2.098  0.0181  0.2864 -0.0891
 3578TIP3    H132225   2.528   2.918   2.075 -0.5820  1.6213 -0.9565
 3578TIP3    H232226   2.580   3.023   2.170  0.2119  0.6612 -0.3080
 3579TIP3   OH232227   3.986   4.551   2.230  0.9782  0.2432 -0.0868
 3579TIP3    H132228   3.930   4.606   2.285 -2.0531 -2.5234 -0.0777
 3579TIP3    H232229   4.067   4.541   2.279  0.8645  2.9288  0.8124
 3580TIP3   OH232230   5.702   4.366   6.905 -0.1722  0.2156 -0.7333
 3580TIP3    H132231   5.690   4.458   6.881  0.4837  0.5359  0.1242
 3580TIP3    H232232   5.703   4.319   6.821 -3.6456  0.5520 -1.1164
 3581TIP3   OH232233   6.503   0.818  11.787  0.1446  0.4153  0.7718
 3581TIP3    H132234   6.496   0.759  11.861  0.9943  0.0260  0.5565
 3581TIP3    H232235   6.423   0.870  11.789 -0.8075 -1.0004  0.7280
 3582TIP3   OH232236   1.990   0.201   4.461 -0.3013 -0.0412 -0.2241
 3582TIP3    H132237   1.940   0.174   4.539 -0.6036  0.7999 -0.1215
 3582TIP3    H232238   2.002   0.120   4.411 -0.1299 -0.5926  0.6799
 3583TIP3   OH232239   4.404   6.512   4.443 -0.2769  0.8036  0.1225
 3583TIP3    H132240   4.462   6.530   4.518 -0.9453  2.2590  0.3279
 3583TIP3    H232241   4.463   6.504   4.368  0.4285 -0.9637  0.8185
 3584TIP3   OH232242   2.324   2.472  11.803 -0.3484 -0.2955  0.9183
 3584TIP3    H132243   2.333   2.443  11.894 -0.8235  1.1459  1.4681
 3584TIP3    H232244   2.411   2.504  11.779  0.0158 -1.5537  0.5275
 3585TIP3   OH232245   4.394   0.256   1.871  0.0798  0.4627  0.5940
 3585TIP3    H132246   4.374   0.214   1.788 -0.3441  0.8617  0.4926
 3585TIP3    H232247   4.422   0.344   1.847  0.5008  0.3991  0.8392
 3586TIP3   OH232248   5.741   0.617  12.258  0.2494  0.0545 -0.2444
 3586TIP3    H132249   5.659   0.658  12.232  0.6536  0.1698 -1.4039
 3586TIP3    H232250   5.808   0.684  12.243  0.3964  0.6522  2.5012
 3587TIP3   OH232251   1.493   1.005  10.148  0.3445  0.6044  0.3573
 3587TIP3    H132252   1.549   0.973  10.219  0.6145 -2.5009 -1.1227
 3587TIP3    H232253   1.554   1.029  10.078  0.0406 -3.2083 -1.4308
 3588TIP3   OH232254   4.249   6.649   2.329  0.1050  0.7043  0.0477
 3588TIP3    H132255   4.326   6.597   2.351  1.2611  2.0904 -0.5578
 3588TIP3    H232256   4.228   6.696   2.409 -0.9506 -0.6137  0.6004
 3589TIP3   OH232257   5.881   5.308  11.509  0.5602 -0.1308  0.1621
 3589TIP3    H132258   5.918   5.318  11.421  0.6505 -1.2375  0.0587
 3589TIP3    H232259   5.858   5.397  11.535  2.3497  0.4836 -0.1848
 3590TIP3   OH232260   6.256   4.315   0.486  0.0478  0.5041  0.2158
 3590TIP3    H132261   6.199   4.290   0.559 -0.8678  0.0371 -0.6281
 3590TIP3    H232262   6.231   4.256   0.415  1.4705  0.4242 -0.2485
 3591TIP3   OH232263   4.346   1.805  10.922 -0.2884  0.1872 -0.6892
 3591TIP3    H132264   4.354   1.900  10.932  2.9971 -0.1427  1.1131
 3591TIP3    H232265   4.273   1.781  10.979 -2.6211  1.7124 -2.8034
 3592TIP3   OH232266   3.671   5.061  16.875 -0.2361  0.1423 -0.2833
 3592TIP3    H132267   3.661   5.153  16.899 -0.6265  0.2196 -0.7351
 3592TIP3    H232268   3.583   5.024  16.881  0.0535 -0.4316  0.7869
 3593TIP3   OH232269   5.616   4.914  11.580 -0.9083  0.2545 -0.3984
 3593TIP3    H132270   5.535   4.913  11.630  0.5058 -0.1182  2.0617
 3593TIP3    H232271   5.656   4.828  11.597 -0.1817  0.2485 -1.9185
 3594TIP3   OH232272   2.949   5.351  16.246  0.3385 -0.4825  0.3421
 3594TIP3    H132273   2.995   5.390  16.171  1.9452 -0.6150  1.2155
 3594TIP3    H232274   2.900   5.423  16.285 -0.3987 -0.3800 -0.7221
 3595TIP3   OH232275   3.919   5.851   3.978  0.4054  0.1483  0.5181
 3595TIP3    H132276   3.854   5.844   3.908 -1.2389  2.2679  1.7396
 3595TIP3    H232277   3.889   5.791   4.046  0.6073 -0.0120  0.4697
 3596TIP3   OH232278   2.814   2.016   2.007 -0.8064 -0.9361 -0.6902
 3596TIP3    H132279   2.795   2.006   2.101 -1.3693  0.3597 -0.6370
 3596TIP3    H232280   2.858   2.101   2.001  2.6177 -2.6096 -1.1723
 3597TIP3   OH232281   3.303   5.526  12.114  0.2834 -0.4370 -0.3336
 3597TIP3    H132282   3.324   5.620  12.113  2.1429 -0.8053 -0.0944
 3597TIP3    H232283   3.219   5.521  12.160 -0.3243  1.1686 -1.1623
 3598TIP3   OH232284   2.669   5.421   4.312  0.0980  0.1986  0.0780
 3598TIP3    H132285   2.597   5.367   4.280  1.3976 -1.2470 -0.5859
 3598TIP3    H232286   2.634   5.467   4.388 -1.2391 -1.1842  0.3327
 3599TIP3   OH232287   6.268   6.535  14.342  0.1070  0.2799  0.1356
 3599TIP3    H132288   6.350   6.497  14.373 -0.1595 -0.6382 -0.2383
 3599TIP3    H232289   6.234   6.471  14.280 -0.1546  1.3503 -0.8697
 3600TIP3   OH232290   3.563   5.495  16.520 -0.3616 -0.3102  0.3862
 3600TIP3    H132291   3.607   5.410  16.509 -0.7728 -0.7948  2.0839
 3600TIP3    H232292   3.627   5.548  16.569 -0.5869 -0.0821  0.4300
 3601TIP3   OH232293   3.562   0.151  13.208 -0.5286 -0.2881  0.1089
 3601TIP3    H132294   3.655   0.170  13.212 -0.0393 -2.5030  0.6090
 3601TIP3    H232295   3.554   0.061  13.239 -2.8017 -0.2809 -0.2408
 3602TIP3   OH232296   6.347   5.160   0.941 -0.7221  0.1427 -0.3687
 3602TIP3    H132297   6.392   5.233   0.985  0.3136 -0.4706 -0.3746
 3602TIP3    H232298   6.300   5.116   1.011 -1.9348  1.2086 -0.4765
 3603TIP3   OH232299   3.768   0.291   2.449  0.2129 -0.0820 -0.2449
 3603TIP3    H132300   3.757   0.381   2.420 -0.2204 -0.7052 -2.1854
 3603TIP3    H232301   3.689   0.272   2.499 -0.0164  0.3966 -0.4175
 3604TIP3   OH232302   4.678   6.301   0.870  0.3236 -0.3336  0.6218
 3604TIP3    H132303   4.707   6.339   0.787  1.8484  0.5186  1.4808
 3604TIP3    H232304   4.626   6.224   0.845  0.2285  0.2513 -1.1107
 3605TIP3   OH232305   3.081   1.546  14.017 -1.2009  0.5759 -0.3715
 3605TIP3    H132306   3.112   1.467  14.061 -1.0579  0.5364 -0.5415
 3605TIP3    H232307   3.161   1.593  13.993 -1.2113 -0.2868 -2.2164
 3606TIP3   OH232308   3.869   4.479  12.009  0.1393  0.3399  0.4519
 3606TIP3    H132309   3.951   4.492  11.962 -0.3195  0.7203 -0.2576
 3606TIP3    H232310   3.804   4.527  11.958 -1.1374 -2.4833 -0.7924
 3607TIP3   OH232311   3.587   6.839  13.660 -0.2192  0.2182 -0.0051
 3607TIP3    H132312   3.553   6.841  13.570 -1.1140 -1.9635  0.2358
 3607TIP3    H232313   3.597   6.746  13.680  0.5960  0.6744  1.9496
 3608TIP3   OH232314   2.991   1.613  13.273  0.1494  0.1593 -0.6447
 3608TIP3    H132315   2.916   1.657  13.233  0.3957  1.8208  0.5819
 3608TIP3    H232316   2.995   1.528  13.230 -2.1129  0.2244 -1.1228
 3609TIP3   OH232317   6.749   1.693  15.066 -0.2841  0.3227 -0.2833
 3609TIP3    H132318   6.747   1.724  14.975 -1.3642  0.9108 -0.0713
 3609TIP3    H232319   6.708   1.763  15.116 -1.3311 -0.7717  0.4293
 3610TIP3   OH232320   1.466   0.813  11.956  0.2652  0.2379 -0.3412
 3610TIP3    H132321   1.397   0.836  11.894 -0.1436 -2.2178 -0.8955
 3610TIP3    H232322   1.547   0.836  11.911 -0.1104  0.9696 -0.6584
 3611TIP3   OH232323   3.442   4.042   5.188  0.8680  0.4573  0.1586
 3611TIP3    H132324   3.461   4.090   5.107  0.4190  0.1952 -0.1049
 3611TIP3    H232325   3.504   4.077   5.251 -0.0995  2.1489  0.2537
 3612TIP3   OH232326   2.729   3.456   5.975  0.5839 -0.5079  0.5192
 3612TIP3    H132327   2.822   3.471   5.957  0.4583 -1.5584 -1.2284
 3612TIP3    H232328   2.684   3.497   5.901 -0.5301  1.7369  2.3166
 3613TIP3   OH232329   6.212   6.855   4.414  0.6557  0.0404 -0.1064
 3613TIP3    H132330   6.254   6.935   4.384 -1.0481  0.7341 -0.7397
 3613TIP3    H232331   6.229   6.791   4.344  0.0728  0.5246 -0.7054
 3614TIP3   OH232332   2.781   0.306  12.968 -0.1526 -0.1390  0.3326
 3614TIP3    H132333   2.692   0.284  12.994 -0.7827  1.9755  0.1464
 3614TIP3    H232334   2.817   0.224  12.933 -2.8560 -0.5033 -1.9190
 3615TIP3   OH232335   1.290   0.258  13.838 -0.1290  0.2383  0.8646
 3615TIP3    H132336   1.215   0.318  13.838  1.4331  2.2726  0.0421
 3615TIP3    H232337   1.364   0.311  13.868  1.3605 -1.2181 -0.0730
 3616TIP3   OH232338   1.590   5.524   3.966 -0.1179  0.0465 -0.1522
 3616TIP3    H132339   1.592   5.432   3.938  1.3856  0.6294 -2.2241
 3616TIP3    H232340   1.674   5.537   4.010 -1.4138 -0.1750  2.6414
 3617TIP3   OH232341   2.404   1.138  16.548 -0.0473 -0.5357 -0.2567
 3617TIP3    H132342   2.493   1.139  16.583  0.3451  0.0901 -1.2323
 3617TIP3    H232343   2.385   1.230  16.530 -0.6599 -0.7310 -0.6378
 3618TIP3   OH232344   0.568   3.422  15.037 -0.1218 -0.9598  0.0260
 3618TIP3    H132345   0.617   3.345  15.008  3.0457  1.6914 -2.4607
 3618TIP3    H232346   0.499   3.433  14.972  1.1588 -0.2403 -1.2561
 3619TIP3   OH232347   0.017   6.714  15.305  0.0871  0.7759 -0.1922
 3619TIP3    H132348  -0.064   6.755  15.275  0.3363  1.5879  0.2167
 3619TIP3    H232349   0.075   6.716  15.229 -1.3137 -2.8299 -1.5903
 3620TIP3   OH232350   0.915   3.363   0.015 -0.1694 -0.0240 -0.1001
 3620TIP3    H132351   0.902   3.412   0.097 -0.6552 -1.3361  0.6329
 3620TIP3    H232352   0.977   3.416  -0.034 -0.5564  1.2647  0.7216
 3621TIP3   OH232353   0.516   1.975   3.993  0.0232  0.0956  0.6323
 3621TIP3    H132354   0.480   1.892   4.025  0.8952 -0.0752  1.2205
 3621TIP3    H232355   0.441   2.022   3.958 -0.2287 -1.7767 -1.6458
 3622TIP3   OH232356   4.734   6.491   0.143 -0.1459 -0.3906 -0.6414
 3622TIP3    H132357   4.771   6.498   0.055 -1.5017  0.3563 -1.1837
 3622TIP3    H232358   4.642   6.513   0.132 -0.4103 -0.5990  0.9251
 3623TIP3   OH232359   1.335   6.612  15.225  0.0936  0.0232 -0.1253
 3623TIP3    H132360   1.244   6.596  15.200  0.3953 -0.0631 -1.2420
 3623TIP3    H232361   1.332   6.691  15.279 -0.6709 -0.1246  0.0556
 3624TIP3   OH232362   2.140   6.745  12.252 -0.4250 -0.2757 -0.0184
 3624TIP3    H132363   2.190   6.827  12.252 -0.3584 -0.3111  1.0145
 3624TIP3    H232364   2.202   6.679  12.224  0.6231 -0.5982  2.7729
 3625TIP3   OH232365   3.037   6.244   3.121  0.0270 -0.5488 -0.0421
 3625TIP3    H132366   3.007   6.285   3.040  0.8606 -1.0660 -0.6429
 3625TIP3    H232367   2.959   6.238   3.176 -0.4135  0.4296 -0.5363
 3626TIP3   OH232368   1.415   6.386  13.171  0.3940  0.1601 -0.4312
 3626TIP3    H132369   1.446   6.329  13.100  0.9018 -0.6143  0.3881
 3626TIP3    H232370   1.449   6.473  13.148  0.8533 -0.1455 -0.9621
 3627TIP3   OH232371   2.029   2.626   0.517 -0.4026  0.0460 -0.2616
 3627TIP3    H132372   2.007   2.675   0.438  0.4586  0.5202 -0.2207
 3627TIP3    H232373   2.125   2.619   0.515 -0.3378  0.4086  0.9308
 3628TIP3   OH232374   5.172   1.134  12.117  0.2921 -0.2211  0.0331
 3628TIP3    H132375   5.153   1.142  12.211 -0.2319 -0.5511 -0.0429
 3628TIP3    H232376   5.235   1.063  12.111 -0.1420 -0.6147  0.0820
 3629TIP3   OH232377   5.896   0.616  15.332 -0.2468 -0.0668 -0.3632
 3629TIP3    H132378   5.953   0.651  15.400 -0.4005 -0.3406 -0.0950
 3629TIP3    H232379   5.953   0.561  15.278 -0.2585 -0.3418 -0.0945
 3630TIP3   OH232380   3.004   0.153  14.174 -0.3645 -0.4418 -0.5123
 3630TIP3    H132381   2.992   0.224  14.112  1.2933  0.9510  0.6434
 3630TIP3    H232382   3.069   0.095  14.133  0.2694  0.1528 -0.3705
 3631TIP3   OH232383   5.837   1.290  12.740 -0.2384  0.4532 -0.8681
 3631TIP3    H132384   5.844   1.234  12.663  0.6252 -0.1028 -0.3974
 3631TIP3    H232385   5.756   1.263  12.783  0.5660 -1.0235 -0.2078
 3632TIP3   OH232386   2.320   6.599   5.744  0.0300  0.0880  0.5913
 3632TIP3    H132387   2.275   6.663   5.798 -0.8331 -0.6356  0.7551
 3632TIP3    H232388   2.388   6.563   5.800  1.2838  1.6482  0.1405
 3633TIP3   OH232389   2.679   2.949  13.223  0.0368  0.1948 -0.1083
 3633TIP3    H132390   2.720   2.863  13.227  0.0183  0.1566 -0.6185
 3633TIP3    H232391   2.744   3.004  13.178  1.5433  1.3506  3.1857
 3634TIP3   OH232392   3.230   6.417  11.623  0.3561  0.1715  0.0673
 3634TIP3    H132393   3.234   6.333  11.578  2.4531 -0.0628  0.5824
 3634TIP3    H232394   3.172   6.402  11.697  1.3181 -1.0985  0.6085
 3635TIP3   OH232395   1.469   0.645  12.517  0.5253  0.5278  0.3230
 3635TIP3    H132396   1.560   0.620  12.537  1.0306  1.3360 -0.8456
 3635TIP3    H232397   1.424   0.562  12.502  0.8517  0.0671  1.6814
 3636TIP3   OH232398   3.059   0.308   3.465  0.3118  0.2875 -0.0475
 3636TIP3    H132399   3.061   0.222   3.506  0.0136  1.1329  1.8472
 3636TIP3    H232400   3.082   0.292   3.373  3.5039 -1.3950  0.9248
 3637TIP3   OH232401   6.441   1.936   1.562  0.5969  0.1903  0.3229
 3637TIP3    H132402   6.500   1.946   1.487  0.5685 -1.3645  0.0557
 3637TIP3    H232403   6.391   1.856   1.542  0.4073 -0.1031  1.8891
 3638TIP3   OH232404   6.011   4.866  12.994 -0.0418 -0.5834  0.0628
 3638TIP3    H132405   6.021   4.771  12.994  1.4330 -0.4435  0.0566
 3638TIP3    H232406   6.097   4.900  13.018 -0.4479  0.7671 -0.2823
 3639TIP3   OH232407   5.811   2.261   4.751 -0.8665 -0.1228 -0.3610
 3639TIP3    H132408   5.750   2.187   4.753 -1.3976  0.3212  0.2555
 3639TIP3    H232409   5.893   2.225   4.786 -0.5402 -0.9013 -1.8145
 3640TIP3   OH232410   4.512   3.945   6.241  0.0462 -0.7175 -0.0148
 3640TIP3    H132411   4.603   3.967   6.259 -0.1964 -1.3059  2.2682
 3640TIP3    H232412   4.470   4.028   6.220  0.9261 -0.3205 -0.1985
 3641TIP3   OH232413   4.516   3.862  14.857  0.2443 -0.1848  0.5109
 3641TIP3    H132414   4.532   3.953  14.882  0.7591 -0.4692  1.2476
 3641TIP3    H232415   4.430   3.841  14.893 -0.7824  0.5988 -1.3559
 3642TIP3   OH232416   2.260   2.013  16.299  0.1138  0.5360 -0.6964
 3642TIP3    H132417   2.320   1.993  16.228  0.3835  2.9581 -1.2482
 3642TIP3    H232418   2.306   2.078  16.352 -1.7385  2.0428 -0.8296
 3643TIP3   OH232419   6.204   4.122  15.999 -0.1709 -0.5301  0.8206
 3643TIP3    H132420   6.108   4.122  15.999 -0.2213 -2.6169 -0.4145
 3643TIP3    H232421   6.228   4.111  16.091 -1.2854 -4.1795  0.8324
 3644TIP3   OH232422   3.986   0.595   4.947  0.4247 -0.5852  0.0973
 3644TIP3    H132423   3.967   0.572   4.855 -0.7970 -1.3876  0.5224
 3644TIP3    H232424   3.962   0.516   4.996 -0.1879  0.3011  1.2391
 3645TIP3   OH232425   2.826   4.905   4.172 -0.4405 -0.5704 -0.4514
 3645TIP3    H132426   2.850   4.817   4.145  0.5910 -0.9489  1.5428
 3645TIP3    H232427   2.903   4.959   4.149 -0.1929 -0.6079  0.2664
 3646TIP3   OH232428   0.795   0.540   5.418  0.1408 -0.0285 -0.1948
 3646TIP3    H132429   0.889   0.530   5.409  0.0117 -1.7717  0.0486
 3646TIP3    H232430   0.759   0.455   5.393 -1.4602  0.9162 -1.3504
 3647TIP3   OH232431   4.304   1.943  14.092  0.3199 -0.0887 -0.3853
 3647TIP3    H132432   4.341   1.869  14.141 -0.1592 -0.9639 -1.3218
 3647TIP3    H232433   4.313   1.917  14.000 -1.4434  0.2391 -0.6730
 3648TIP3   OH232434   0.123   5.051  11.111  0.8411  0.5090 -0.1041
 3648TIP3    H132435   0.076   5.131  11.135  0.1573  0.4747 -1.2463
 3648TIP3    H232436   0.099   5.035  11.020 -0.1060 -1.7332  0.4606
 3649TIP3   OH232437   1.731   0.035  15.015  0.4596  0.0078  0.5998
 3649TIP3    H132438   1.731   0.129  15.029  1.2404  0.0820  0.1460
 3649TIP3    H232439   1.688  -0.001  15.093 -0.1547  0.7552  0.6101
 3650TIP3   OH232440   4.546   4.634  16.702  0.4782  0.0430 -0.8331
 3650TIP3    H132441   4.469   4.584  16.732  0.5301  0.4572  0.0399
 3650TIP3    H232442   4.572   4.591  16.621  0.6394 -1.4723 -0.0211
 3651TIP3   OH232443   5.855   4.587  13.779  0.2403  0.2314  0.2207
 3651TIP3    H132444   5.867   4.521  13.847 -1.2291  0.3664  0.6595
 3651TIP3    H232445   5.768   4.624  13.797  0.9498  2.2079 -0.0710
 3652TIP3   OH232446   5.462   6.746   5.428  0.2628  0.6115  0.2371
 3652TIP3    H132447   5.478   6.770   5.337 -1.3414 -0.4243 -0.3619
 3652TIP3    H232448   5.503   6.659   5.438 -1.2509 -0.1730 -0.1075
 3653TIP3   OH232449   1.842   0.442  14.667  0.2285 -0.3291  0.1956
 3653TIP3    H132450   1.847   0.372  14.732 -1.2745  0.9825  1.8052
 3653TIP3    H232451   1.784   0.407  14.599  1.2703 -1.4516 -0.1516
 3654TIP3   OH232452   4.459   6.825   1.899  0.3984  0.2955 -0.1411
 3654TIP3    H132453   4.399   6.846   1.971  0.3081 -0.3154 -0.0255
 3654TIP3    H232454   4.546   6.842   1.935  0.3363  0.3398 -0.0100
 3655TIP3   OH232455   5.276   3.066   2.519 -0.1048  0.2135 -0.1463
 3655TIP3    H132456   5.321   3.125   2.578  1.7767 -1.2652 -0.0239
 3655TIP3    H232457   5.278   3.110   2.434 -0.8146  1.3335  0.4009
 3656TIP3   OH232458   4.967   5.123  14.357 -0.0422  0.0482  0.6491
 3656TIP3    H132459   4.912   5.199  14.337 -1.2209 -0.8721  0.2469
 3656TIP3    H232460   5.000   5.094  14.272 -2.9187 -2.2740  0.1213
 3657TIP3   OH232461   2.926   2.695  16.547  0.4853  0.4647 -0.3684
 3657TIP3    H132462   2.928   2.647  16.630  0.1533  1.6064  0.3259
 3657TIP3    H232463   2.850   2.659  16.501  0.4209  0.1125  0.0056
 3658TIP3   OH232464   3.713   0.778  15.699  0.3269 -0.3462  0.1449
 3658TIP3    H132465   3.628   0.792  15.740  1.0079 -0.6757  1.7291
 3658TIP3    H232466   3.718   0.845  15.631 -0.9371  0.0528  0.4179
 3659TIP3   OH232467   1.582   6.452  14.896  0.0848  0.3226 -0.0772
 3659TIP3    H132468   1.502   6.427  14.940  0.1657  0.7461  0.3178
 3659TIP3    H232469   1.562   6.445  14.802  0.2084 -1.5186 -0.0111
 3660TIP3   OH232470   3.957   6.634  11.951  0.2919 -0.3562  0.5599
 3660TIP3    H132471   3.877   6.678  11.923 -0.0669 -0.0671  1.9498
 3660TIP3    H232472   4.023   6.659  11.887 -0.7054 -0.5171 -0.5448
 3661TIP3   OH232473   3.999   0.280  12.015 -0.1686 -0.3269 -0.0063
 3661TIP3    H132474   3.927   0.278  12.079 -0.3498  0.4030 -0.1771
 3661TIP3    H232475   4.075   0.249  12.064 -0.3407  0.0727  0.5256
 3662TIP3   OH232476   4.916   5.769  13.340 -0.2250  0.3860  0.1375
 3662TIP3    H132477   4.979   5.766  13.412  0.5456  1.7266 -0.4385
 3662TIP3    H232478   4.839   5.812  13.379 -0.2580  0.0254  0.4745
 3663TIP3   OH232479   3.972   5.167  14.116 -0.6492 -0.1092  0.0169
 3663TIP3    H132480   3.940   5.177  14.026  1.3881 -2.0786 -1.0326
 3663TIP3    H232481   4.035   5.239  14.127 -0.5731 -0.1250 -0.2999
 3664TIP3   OH232482   6.631   0.583  11.114  0.8189  0.2493 -0.2059
 3664TIP3    H132483   6.656   0.608  11.203  1.1428  0.3093 -0.3081
 3664TIP3    H232484   6.684   0.641  11.059  1.1034 -0.2271 -0.4426
 3665TIP3   OH232485   6.230   0.411  12.302  0.5725  0.0240 -0.4871
 3665TIP3    H132486   6.176   0.484  12.271  0.0064  0.5845  1.6279
 3665TIP3    H232487   6.177   0.370  12.370  2.5299  0.1676  1.2106
 3666TIP3   OH232488   2.613   5.475  16.371  0.0707 -0.3010 -0.2908
 3666TIP3    H132489   2.561   5.491  16.292 -1.1710 -0.3016  0.4907
 3666TIP3    H232490   2.599   5.554  16.424  1.8762  0.2379 -0.5754
 3667TIP3   OH232491   6.083   1.635   4.259 -0.2787 -0.4266 -0.3705
 3667TIP3    H132492   6.044   1.659   4.343  0.2210 -2.5719  0.5363
 3667TIP3    H232493   6.022   1.668   4.193 -0.0022  2.5409  0.7017
 3668TIP3   OH232494   6.326   2.422   0.436  0.0370  0.4477  0.5368
 3668TIP3    H132495   6.236   2.401   0.462 -0.9819  2.9470 -0.6749
 3668TIP3    H232496   6.319   2.450   0.345  2.0452  0.7862  0.4403
 3669TIP3   OH232497   1.802   5.364  12.190 -0.2055 -0.2200 -0.1548
 3669TIP3    H132498   1.878   5.307  12.184  0.6463  0.5671  2.0508
 3669TIP3    H232499   1.731   5.314  12.148  1.0352 -1.8539 -0.4060
 3670TIP3   OH232500   5.743   3.629  14.013 -0.3015  0.1724  0.2038
 3670TIP3    H132501   5.693   3.675  14.080  0.2098  1.6609 -0.3942
 3670TIP3    H232502   5.799   3.696  13.975  1.0572 -1.1326 -0.1755
 3671TIP3   OH232503   2.761   5.164  16.185  0.0014  0.2902  0.0254
 3671TIP3    H132504   2.789   5.120  16.104 -0.8062  1.5472 -0.9778
 3671TIP3    H232505   2.820   5.238  16.194 -0.6625  0.8430 -0.0881
 3672TIP3   OH232506   2.519   5.151   0.294 -0.4305 -0.3318  0.0080
 3672TIP3    H132507   2.595   5.208   0.309 -0.9834  0.1519  1.0822
 3672TIP3    H232508   2.481   5.184   0.212 -0.3314  0.3804  0.2373
 3673TIP3   OH232509   4.533   2.208   1.533 -0.1199 -0.1924 -0.4553
 3673TIP3    H132510   4.478   2.231   1.608  2.7436 -0.4689  1.9269
 3673TIP3    H232511   4.511   2.117   1.514 -0.4034 -0.3457  0.5505
 3674TIP3   OH232512   1.395   0.648   3.224  0.1143  0.2088  0.3486
 3674TIP3    H132513   1.299   0.657   3.219  0.0296 -0.9180 -0.8388
 3674TIP3    H232514   1.409   0.557   3.248  0.8817  0.0969 -0.4675
 3675TIP3   OH232515   0.677   3.125  15.855 -0.3956  0.1697 -0.1138
 3675TIP3    H132516   0.598   3.172  15.878 -0.6573 -1.2085  2.1075
 3675TIP3    H232517   0.740   3.193  15.832 -1.1858  1.5170  1.5230
 3676TIP3   OH232518   4.755   1.041   0.533 -0.0677  0.0364  0.6328
 3676TIP3    H132519   4.823   1.101   0.502  0.3220  0.0762  1.5311
 3676TIP3    H232520   4.737   1.070   0.623 -0.9309 -0.2768  0.5670
 3677TIP3   OH232521   3.848   4.956  11.678  0.3654 -0.0702  0.3624
 3677TIP3    H132522   3.908   5.020  11.641 -0.6434  0.5436 -0.2664
 3677TIP3    H232523   3.788   4.935  11.606 -0.2029 -0.6154  0.9829
 3678TIP3   OH232524   6.793   0.903  13.471 -0.7288 -0.3659 -0.2652
 3678TIP3    H132525   6.832   0.989  13.487 -0.9004 -0.2999 -0.1959
 3678TIP3    H232526   6.789   0.897  13.375  0.1026 -0.6731 -0.2845
 3679TIP3   OH232527   3.660   2.393  14.345 -0.4451  0.0237  0.7907
 3679TIP3    H132528   3.635   2.390  14.253  0.7050  0.2156  0.4567
 3679TIP3    H232529   3.640   2.305  14.378  0.3043 -0.4584  0.0200
 3680TIP3   OH232530   6.043   3.073   4.064  0.0142 -0.1070 -0.4144
 3680TIP3    H132531   5.988   3.013   4.115 -1.2754  0.3103 -1.2511
 3680TIP3    H232532   6.098   3.116   4.129 -0.3210 -0.8950  0.4112
 3681TIP3   OH232533   4.378   5.052  17.080  0.1698 -0.1839  0.6949
 3681TIP3    H132534   4.399   4.977  17.024 -1.2561 -0.6684  0.7552
 3681TIP3    H232535   4.303   5.022  17.132 -0.3817  1.2614  0.7749
 3682TIP3   OH232536   0.412   6.850   4.446  0.2229 -0.2348  0.1353
 3682TIP3    H132537   0.470   6.774   4.437 -0.1656 -0.4660 -0.5292
 3682TIP3    H232538   0.433   6.886   4.532  0.3294 -1.1719  0.5222
 3683TIP3   OH232539   5.764   1.549  12.215  0.0605 -0.0875 -0.3450
 3683TIP3    H132540   5.763   1.609  12.140  0.0525  0.8467  0.3806
 3683TIP3    H232541   5.832   1.585  12.272 -0.3438 -0.4428  0.3632
 3684TIP3   OH232542   0.892   3.600   2.288  0.2766 -0.4201  0.0709
 3684TIP3    H132543   0.840   3.620   2.210  0.9476 -0.3646 -0.3710
 3684TIP3    H232544   0.835   3.624   2.361  1.1515  3.8184 -0.3491
 3685TIP3   OH232545   5.852   1.322  14.318  0.0591  0.4522 -0.0271
 3685TIP3    H132546   5.933   1.365  14.345  1.5483 -1.8117 -0.5902
 3685TIP3    H232547   5.803   1.308  14.399  0.9254  0.5579  0.5218
 3686TIP3   OH232548   5.083   3.023   7.048  0.1517 -0.1535 -0.0657
 3686TIP3    H132549   5.009   3.083   7.050  0.7336  0.6026 -0.4848
 3686TIP3    H232550   5.159   3.079   7.065  0.6390 -0.9008  0.2760
 3687TIP3   OH232551   0.432   5.781   0.951 -0.0147  0.0698 -0.1456
 3687TIP3    H132552   0.399   5.867   0.924  1.1971  0.2139 -1.2003
 3687TIP3    H232553   0.364   5.720   0.923 -2.3871  0.8471  3.2525
 3688TIP3   OH232554   0.729   4.873   3.863 -0.3187  0.3632 -0.5039
 3688TIP3    H132555   0.717   4.779   3.875 -0.7460  0.5821  0.8759
 3688TIP3    H232556   0.640   4.909   3.868  0.1208  1.3753  4.1610
 3689TIP3   OH232557   5.854   1.928   5.759  0.2058 -0.5007  0.5255
 3689TIP3    H132558   5.914   1.889   5.695  1.4707  1.2023  0.5805
 3689TIP3    H232559   5.767   1.912   5.723  0.8311 -0.4785 -1.1166
 3690TIP3   OH232560   5.888   6.684   5.338  0.0337 -0.1957 -0.2159
 3690TIP3    H132561   5.883   6.763   5.393 -1.2866  0.3100 -1.0103
 3690TIP3    H232562   5.982   6.667   5.329  0.3126 -0.2932  2.1687
 3691TIP3   OH232563   1.363   6.347   3.598  0.4738  0.1227  1.0002
 3691TIP3    H132564   1.313   6.359   3.517  0.6442 -0.8078  0.7389
 3691TIP3    H232565   1.365   6.252   3.609  2.8243  0.0801  0.6079
 3692TIP3   OH232566   6.770   2.451   1.656 -0.2700 -0.0018 -0.3974
 3692TIP3    H132567   6.786   2.502   1.576 -0.1607  1.7650  0.6940
 3692TIP3    H232568   6.680   2.419   1.646 -0.3316  0.3773 -1.1563
 3693TIP3   OH232569   4.288   0.887  16.461 -0.3455  0.2439 -0.1191
 3693TIP3    H132570   4.196   0.882  16.488 -0.0661 -0.4935  0.7659
 3693TIP3    H232571   4.308   0.980  16.465 -1.8665  0.8249 -3.3249
 3694TIP3   OH232572   4.117   4.856   0.795  0.1005  0.4173  0.1934
 3694TIP3    H132573   4.044   4.795   0.779  0.5506  0.2325 -1.3500
 3694TIP3    H232574   4.187   4.800   0.830 -0.1220  0.3990  0.6175
 3695TIP3   OH232575   0.483   1.014   5.136  0.2333 -0.0034  0.2595
 3695TIP3    H132576   0.539   0.943   5.169 -0.4251 -0.0078  1.4087
 3695TIP3    H232577   0.545   1.082   5.109  0.8214 -0.3342  0.7394
 3696TIP3   OH232578   5.306   0.580   1.430 -0.7347 -0.1918  0.0569
 3696TIP3    H132579   5.347   0.626   1.503 -2.3891  0.0139  0.8991
 3696TIP3    H232580   5.328   0.487   1.445  0.2920  0.0009 -0.1270
 3697TIP3   OH232581   2.359   0.421  14.891  0.0792 -1.0186 -0.0702
 3697TIP3    H132582   2.421   0.458  14.828 -0.5301  1.7403  0.8271
 3697TIP3    H232583   2.391   0.450  14.977 -1.2010 -1.4461  0.5862
 3698TIP3   OH232584   5.357   5.853  13.716  0.0710  0.1758 -0.5535
 3698TIP3    H132585   5.283   5.793  13.726  0.9694 -1.5650 -3.2567
 3698TIP3    H232586   5.423   5.820  13.776 -0.7453  0.8038  0.7326
 3699TIP3   OH232587   1.813   0.363   5.311  0.5115 -0.1099  0.4021
 3699TIP3    H132588   1.849   0.280   5.278 -0.4084 -0.3037 -0.1575
 3699TIP3    H232589   1.751   0.336   5.379  0.1405  0.1180  0.1540
 3700TIP3   OH232590   6.215   5.771  12.100 -0.2077  0.2104  1.0401
 3700TIP3    H132591   6.208   5.864  12.123 -0.2182 -0.3349  3.5595
 3700TIP3    H232592   6.274   5.735  12.167  2.1307 -1.1173 -1.5287
 3701TIP3   OH232593   4.805   1.660  15.932 -0.2406 -0.0675  0.2077
 3701TIP3    H132594   4.873   1.637  15.995  0.6911 -2.0220 -1.3721
 3701TIP3    H232595   4.847   1.722  15.873  0.3851 -1.5829 -1.0079
 3702TIP3   OH232596   5.210   0.145   3.572  0.5734 -0.4388 -0.1559
 3702TIP3    H132597   5.128   0.098   3.558 -0.4003  1.5235 -1.4069
 3702TIP3    H232598   5.277   0.076   3.570 -0.8189 -1.8443 -1.2328
 3703TIP3   OH232599   6.852   2.014  14.607 -0.0225  0.4906  0.2314
 3703TIP3    H132600   6.783   2.076  14.631 -0.1852  0.0514  0.9204
 3703TIP3    H232601   6.918   2.024  14.675  0.9623  1.4521 -0.8284
 3704TIP3   OH232602   2.114   2.263   0.554 -0.1778  0.4188 -0.1667
 3704TIP3    H132603   2.082   2.173   0.558  1.5072 -0.2605 -1.2039
 3704TIP3    H232604   2.041   2.313   0.517 -1.2905 -0.4087  0.8366
 3705TIP3   OH232605   0.624   1.202   4.751  0.0938 -0.2339 -0.0540
 3705TIP3    H132606   0.596   1.218   4.842 -0.5987 -1.8745  0.0578
 3705TIP3    H232607   0.584   1.118   4.728  1.2295 -0.4248 -1.4869
 3706TIP3   OH232608   1.175   2.821   2.618  0.2648 -0.3169  0.0976
 3706TIP3    H132609   1.261   2.862   2.626  0.0178  0.1277  0.5409
 3706TIP3    H232610   1.133   2.837   2.703 -0.0345 -1.0321  0.0883
 3707TIP3   OH232611   3.452   5.812   0.444  0.3100  0.0786 -0.4587
 3707TIP3    H132612   3.526   5.832   0.501  0.1325 -2.5093  0.8329
 3707TIP3    H232613   3.490   5.807   0.356  1.0008  1.9424 -0.3155
 3708TIP3   OH232614   0.879   1.672   0.738 -0.0162 -0.2047  0.5277
 3708TIP3    H132615   0.798   1.621   0.746 -0.0917 -1.2527 -4.0961
 3708TIP3    H232616   0.849   1.763   0.737 -1.3492 -0.5800 -1.5838
 3709TIP3   OH232617   1.015   2.013   0.376 -0.5913  0.7036  0.5134
 3709TIP3    H132618   0.959   2.075   0.424 -1.0666  0.8622 -0.2155
 3709TIP3    H232619   1.082   2.068   0.336 -1.2471  0.8140 -0.4614
 3710TIP3   OH232620   4.310   5.075  14.322  0.0426  0.1565  0.1076
 3710TIP3    H132621   4.308   5.090  14.227 -1.3997 -1.6004 -0.2061
 3710TIP3    H232622   4.226   5.109  14.353 -0.4996 -1.3410  0.3515
 3711TIP3   OH232623   1.726   1.086   0.546  0.4067  0.1933  0.1078
 3711TIP3    H132624   1.809   1.040   0.562 -0.1716 -1.2519 -0.7879
 3711TIP3    H232625   1.752   1.173   0.516  1.6135 -0.3325 -0.4519
 3712TIP3   OH232626   6.646   3.177   0.400 -0.4423  0.1996 -0.6917
 3712TIP3    H132627   6.673   3.252   0.347  2.1354  0.4968  0.8623
 3712TIP3    H232628   6.700   3.104   0.368  0.5424  0.1919  0.8629
 3713TIP3   OH232629   0.494   5.563  12.542  0.7235  0.2914 -0.4983
 3713TIP3    H132630   0.512   5.616  12.619 -1.6865 -0.0326  0.3890
 3713TIP3    H232631   0.415   5.514  12.565  1.6335 -2.0778 -2.0937
 3714TIP3   OH232632   3.556   0.508   4.016 -0.7224  0.0469  0.2247
 3714TIP3    H132633   3.592   0.596   4.008  1.5156 -0.9858 -2.2470
 3714TIP3    H232634   3.476   0.510   3.963 -0.5006  0.5171 -0.1003
 3715TIP3   OH232635   1.348   1.866   1.446  0.3276 -0.0039  0.1759
 3715TIP3    H132636   1.265   1.874   1.398  0.1699  0.3201  0.4940
 3715TIP3    H232637   1.348   1.940   1.506 -0.2398 -1.2768  1.8244
 3716TIP3   OH232638   4.325   4.402   0.518 -0.2042 -0.2686 -0.0666
 3716TIP3    H132639   4.291   4.491   0.523  0.2386 -0.0952 -0.1065
 3716TIP3    H232640   4.395   4.406   0.453 -1.0176 -0.9220 -1.0093
 3717TIP3   OH232641   0.508   1.710   5.284 -0.3819  0.1628 -0.0197
 3717TIP3    H132642   0.502   1.764   5.362  1.0584  1.5749 -0.8249
 3717TIP3    H232643   0.490   1.621   5.315  0.2380  0.6619  1.9320
 3718TIP3   OH232644   2.196   0.800  10.642  0.4061  0.3436 -0.7279
 3718TIP3    H132645   2.254   0.801  10.566  1.3837 -1.9251 -0.1196
 3718TIP3    H232646   2.125   0.741  10.616 -0.1542  0.9112 -0.4836
 3719TIP3   OH232647   5.424   1.291   0.381  0.5624  0.2372 -0.3792
 3719TIP3    H132648   5.489   1.238   0.428  0.4730 -0.7335 -1.3200
 3719TIP3    H232649   5.342   1.277   0.429  1.0021  1.4100  0.7688
 3720TIP3   OH232650   4.297   2.732  11.106  0.1410 -0.0164  0.3010
 3720TIP3    H132651   4.315   2.799  11.172  1.0586  0.3327 -0.2815
 3720TIP3    H232652   4.212   2.697  11.131  0.1661  0.5649  1.2851
 3721TIP3   OH232653   5.408   0.289  14.508  0.1893  0.5433  0.5713
 3721TIP3    H132654   5.350   0.361  14.535 -1.2675 -0.2899 -0.2541
 3721TIP3    H232655   5.365   0.250  14.433  0.0602 -2.2989  2.0078
 3722TIP3   OH232656   6.338   0.479  11.142  0.1044  0.1420  0.5444
 3722TIP3    H132657   6.420   0.489  11.190  0.3269 -0.1460  0.2351
 3722TIP3    H232658   6.270   0.509  11.202  0.4531  0.5304  0.7457
 3723TIP3   OH232659   2.164   4.505   3.155 -0.0543 -0.5632  0.2548
 3723TIP3    H132660   2.114   4.461   3.087 -1.4498  1.3780 -0.0690
 3723TIP3    H232661   2.120   4.481   3.237  0.8961 -1.9354  0.3982
 3724TIP3   OH232662   2.666   4.798  15.496 -0.5378  0.3979 -0.0122
 3724TIP3    H132663   2.712   4.846  15.565 -1.3746  0.4209  0.5487
 3724TIP3    H232664   2.612   4.865  15.452  1.0264  0.6692 -1.6276
 3725TIP3   OH232665   5.896   2.498   0.226  0.0979  0.0646 -0.1404
 3725TIP3    H132666   5.875   2.515   0.134  1.1283 -1.5255 -0.7157
 3725TIP3    H232667   5.836   2.427   0.251 -1.1660  1.4314  0.8886
 3726TIP3   OH232668   2.146   1.241  14.433  0.4112 -0.2077 -0.2091
 3726TIP3    H132669   2.074   1.256  14.494 -0.2179 -0.2634 -0.9303
 3726TIP3    H232670   2.188   1.326  14.424 -0.4635  0.1672 -0.9022
 3727TIP3   OH232671   6.339   5.783  10.426  0.1915  0.3278 -0.2577
 3727TIP3    H132672   6.397   5.755  10.356  0.3593  0.6577 -0.2544
 3727TIP3    H232673   6.314   5.872  10.402  0.8177  0.7102  0.4526
 3728TIP3   OH232674   2.922   1.983   1.755 -0.3269  0.0816  0.5105
 3728TIP3    H132675   2.911   1.985   1.850 -0.0677 -3.1701  0.7107
 3728TIP3    H232676   3.000   1.929   1.741 -1.1206 -0.6056 -1.5509
 3729TIP3   OH232677   2.763   4.093   9.996 -0.2555 -0.4193 -0.0100
 3729TIP3    H132678   2.734   4.181  10.021 -1.4192 -0.8536  0.2167
 3729TIP3    H232679   2.698   4.034  10.034  0.5790 -1.4007 -0.0459
 3730TIP3   OH232680   4.912   2.040  12.136  0.2000  0.1378  0.2502
 3730TIP3    H132681   4.972   2.057  12.063 -0.4896  3.1931  0.2642
 3730TIP3    H232682   4.952   2.085  12.211 -1.1520  0.6166  0.7062
 3731TIP3   OH232683   3.136   2.738  13.964 -0.1865  0.7403  0.0109
 3731TIP3    H132684   3.047   2.764  13.940  0.2875  0.3774 -2.4195
 3731TIP3    H232685   3.176   2.711  13.881  0.7267 -3.7714  1.6489
 3732TIP3   OH232686   0.590   3.019  16.186  0.2843  0.3667  0.2650
 3732TIP3    H132687   0.606   2.947  16.125  0.3999 -1.5767  2.4436
 3732TIP3    H232688   0.677   3.042  16.219  0.1148  0.5084  0.6181
 3733TIP3   OH232689   4.482   0.522   2.991 -0.2391  0.2365 -0.4317
 3733TIP3    H132690   4.438   0.595   2.948 -0.3675 -1.0206 -2.5422
 3733TIP3    H232691   4.432   0.445   2.966  0.3498 -0.6892  1.1033
 3734TIP3   OH232692   3.155   3.031  13.937 -0.1211 -0.6855 -0.4144
 3734TIP3    H132693   3.085   3.057  13.997  0.4700  0.9231 -0.3526
 3734TIP3    H232694   3.174   2.940  13.960 -1.7745 -0.9662 -0.0503
 3735TIP3   OH232695   6.540   0.766  13.529 -0.1130 -0.2424 -0.4887
 3735TIP3    H132696   6.628   0.802  13.534  0.5721 -1.9031 -0.3141
 3735TIP3    H232697   6.511   0.760  13.620 -0.2597 -0.0986 -0.5234
 3736TIP3   OH232698   2.894   1.706   3.195 -0.1838 -0.3209 -0.9317
 3736TIP3    H132699   2.801   1.694   3.217 -0.0189  0.6941  0.4603
 3736TIP3    H232700   2.894   1.776   3.130 -0.4114 -0.6201 -1.2589
 3737TIP3   OH232701   6.196   5.755  15.421 -0.3526 -0.2634  0.1391
 3737TIP3    H132702   6.112   5.789  15.452  0.5446  1.1362  1.0891
 3737TIP3    H232703   6.221   5.813  15.349  1.2063  1.2403  1.7997
 3738TIP3   OH232704   1.050   5.217  16.109  0.1762 -0.4170 -0.1874
 3738TIP3    H132705   1.142   5.246  16.108 -0.1914  0.8286  0.6600
 3738TIP3    H232706   1.023   5.221  16.018  0.2534  1.6281 -0.1614
 3739TIP3   OH232707   6.825   6.064  12.724  0.1635  0.1868  0.5760
 3739TIP3    H132708   6.826   6.025  12.812 -0.4329  0.7510  0.8449
 3739TIP3    H232709   6.917   6.082  12.705  0.1383  2.8774  2.3946
 3740TIP3   OH232710   0.110   6.838   3.427  0.5419 -0.1730  0.1482
 3740TIP3    H132711   0.052   6.910   3.453  0.3893  0.5019 -1.8929
 3740TIP3    H232712   0.077   6.809   3.342  2.0148 -1.0997 -0.1561
 3741TIP3   OH232713   6.271   3.091  13.046 -0.0629  0.2813  0.1076
 3741TIP3    H132714   6.279   3.183  13.021  0.5267  0.0120 -0.7505
 3741TIP3    H232715   6.305   3.043  12.971 -1.4689 -0.6817  0.0527
 3742TIP3   OH232716   3.455   6.345   1.250 -0.0359  0.1958  0.3970
 3742TIP3    H132717   3.422   6.319   1.335 -0.1131  0.5911  0.4917
 3742TIP3    H232718   3.380   6.338   1.191  0.3364 -1.3876  0.0650
 3743TIP3   OH232719   4.760   3.149  16.443 -0.5829 -0.2284  0.4623
 3743TIP3    H132720   4.707   3.216  16.401 -1.6787 -0.8401  0.8273
 3743TIP3    H232721   4.708   3.069  16.434 -0.7722 -0.4249  2.7541
 3744TIP3   OH232722   3.013   2.031  11.958 -0.0968  0.3420  0.0405
 3744TIP3    H132723   3.051   2.118  11.970  1.9521 -0.6341  1.3466
 3744TIP3    H232724   2.920   2.042  11.977  0.1329  2.2350  0.2471
 3745TIP3   OH232725   2.916   3.430  13.584 -0.0748 -0.2074 -0.2004
 3745TIP3    H132726   2.945   3.354  13.534  0.4186 -0.7367  0.8569
 3745TIP3    H232727   2.900   3.396  13.672 -1.0997  0.6615 -0.0249
 3746TIP3   OH232728   5.065   1.515  13.865 -0.1066 -0.7703  0.0710
 3746TIP3    H132729   5.130   1.568  13.910 -1.1903  0.9442 -0.2986
 3746TIP3    H232730   5.023   1.464  13.935  1.6664 -2.0139  0.2933
 3747TIP3   OH232731   1.729   5.794   5.984 -0.2103  0.1904  0.0163
 3747TIP3    H132732   1.777   5.870   6.017  0.0523 -0.6829  1.7042
 3747TIP3    H232733   1.791   5.721   5.992 -1.2117 -0.6147  0.5140
 3748TIP3   OH232734   0.730   2.468  11.959  0.4488  0.5389  0.3547
 3748TIP3    H132735   0.719   2.563  11.964  0.6821  0.7828 -2.2820
 3748TIP3    H232736   0.825   2.455  11.954  0.4929  0.0270  1.9653
 3749TIP3   OH232737   5.016   5.055   1.925  0.4872 -0.1078 -0.5067
 3749TIP3    H132738   5.073   4.993   1.971  2.1654  0.7817 -1.3128
 3749TIP3    H232739   5.054   5.141   1.944 -0.7131  0.5297 -0.9167
 3750TIP3   OH232740   5.584   6.407  15.843  0.1398 -0.6071 -0.1075
 3750TIP3    H132741   5.522   6.460  15.894  0.0634 -0.7313 -0.0720
 3750TIP3    H232742   5.670   6.443  15.866  0.1176 -0.7821  0.2475
 3751TIP3   OH232743   4.365   3.156   3.883 -0.1811 -0.7645 -0.3228
 3751TIP3    H132744   4.303   3.218   3.920 -0.2748 -0.8537 -0.3295
 3751TIP3    H232745   4.435   3.150   3.948  0.2066 -0.0796 -0.6601
 3752TIP3   OH232746   3.254   5.272   4.022 -0.2819  0.2552  0.0458
 3752TIP3    H132747   3.282   5.243   3.936 -1.8728  1.1750 -0.8360
 3752TIP3    H232748   3.333   5.304   4.064  0.4149  0.3759 -1.3137
 3753TIP3   OH232749   5.963   5.636  15.868  0.1246 -0.3107 -0.5176
 3753TIP3    H132750   6.006   5.721  15.879 -0.6755  0.2717 -1.6144
 3753TIP3    H232751   5.901   5.631  15.940  0.9273 -0.4596  0.1759
 3754TIP3   OH232752   0.856   0.707  12.335  0.9696  0.3161 -0.3223
 3754TIP3    H132753   0.930   0.768  12.340  0.4083  1.1245 -1.4562
 3754TIP3    H232754   0.821   0.704  12.424  0.2894  2.5889 -0.4591
 3755TIP3   OH232755   6.066   0.276  16.633  0.1176 -0.5342 -0.1020
 3755TIP3    H132756   6.141   0.326  16.600  0.6011 -0.6954  0.7063
 3755TIP3    H232757   6.025   0.239  16.555 -0.9157  1.9953 -0.8529
 3756TIP3   OH232758   1.424   2.529   2.158 -0.1012  0.4918 -0.4335
 3756TIP3    H132759   1.346   2.516   2.211  0.5374 -1.7425  0.0889
 3756TIP3    H232760   1.392   2.529   2.068 -0.5409 -3.7573 -0.4755
 3757TIP3   OH232761   0.216   0.314   6.065  0.0762  0.9621  0.2699
 3757TIP3    H132762   0.210   0.406   6.088 -0.0827  1.1433 -0.4934
 3757TIP3    H232763   0.308   0.301   6.043 -0.0105  1.0617 -0.1480
 3758TIP3   OH232764   4.884   4.854   5.791  0.2733 -0.6625  0.6060
 3758TIP3    H132765   4.869   4.825   5.701 -2.0039  0.0144  0.7048
 3758TIP3    H232766   4.798   4.884   5.821  1.4016  1.0868  2.3098
 3759TIP3   OH232767   4.620   6.143   5.417  0.8122 -0.0790 -0.1975
 3759TIP3    H132768   4.597   6.215   5.357  1.5217  2.1741  2.0708
 3759TIP3    H232769   4.536   6.104   5.440  0.0521  1.8616  0.6106
 3760TIP3   OH232770   5.266   1.523   1.029  0.3800 -0.9827 -0.4513
 3760TIP3    H132771   5.292   1.441   1.071 -0.1784 -0.3715  1.1455
 3760TIP3    H232772   5.175   1.508   1.003 -1.1583  0.3513  3.4282
 3761TIP3   OH232773   4.793   6.532   0.409 -0.9440 -0.0903 -0.6104
 3761TIP3    H132774   4.768   6.528   0.317 -0.9465  1.0251 -0.6632
 3761TIP3    H232775   4.780   6.623   0.434 -0.8881 -0.3708  0.4829
 3762TIP3   OH232776   2.330   6.103   2.790  0.0330  0.1118  0.4363
 3762TIP3    H132777   2.245   6.141   2.809 -0.0214 -0.1556  0.7317
 3762TIP3    H232778   2.312   6.028   2.734  0.0450 -0.1207  0.7385
 3763TIP3   OH232779   2.375   3.262   1.273  0.7792 -0.1697  0.2672
 3763TIP3    H132780   2.414   3.221   1.196 -1.2275 -0.3852 -0.6783
 3763TIP3    H232781   2.355   3.189   1.332  0.1663 -0.2333 -0.0199
 3764TIP3   OH232782   4.672   1.836   3.712 -0.0614  0.0120  0.0194
 3764TIP3    H132783   4.746   1.871   3.663  0.6089 -0.5679  0.5776
 3764TIP3    H232784   4.693   1.854   3.804 -1.0666  0.6656  0.1325
 3765TIP3   OH232785   3.147   1.701   4.665  0.3593  0.2249 -0.1155
 3765TIP3    H132786   3.202   1.649   4.607  0.5776 -0.5396  0.7569
 3765TIP3    H232787   3.165   1.792   4.640  0.8483 -0.0769 -0.8783
 3766TIP3   OH232788   4.085   0.394  15.207 -0.0271  0.1391 -0.1958
 3766TIP3    H132789   4.071   0.333  15.134 -0.1644  0.9606 -0.8632
 3766TIP3    H232790   4.001   0.440  15.215 -0.0589 -0.0527  0.5801
 3767TIP3   OH232791   6.348   2.683   0.095  0.9661 -0.2859 -0.4563
 3767TIP3    H132792   6.274   2.668   0.154  0.9220 -0.8142 -0.6426
 3767TIP3    H232793   6.332   2.769   0.057  0.3792 -0.4507 -0.5916
 3768TIP3   OH232794   6.492   5.698  15.009  0.2366  0.1055 -0.4817
 3768TIP3    H132795   6.568   5.643  15.024  0.2976 -0.1029 -1.4444
 3768TIP3    H232796   6.435   5.644  14.953  1.0197  1.5604 -2.8314
 3769TIP3   OH232797   0.665   2.167   3.155  0.1568 -0.3390 -0.0457
 3769TIP3    H132798   0.673   2.224   3.078 -1.7685  0.2684  0.1360
 3769TIP3    H232799   0.710   2.086   3.130 -1.2409 -0.5400 -2.2298
 3770TIP3   OH232800   4.840   3.805  11.123 -0.0726  0.2824  0.0927
 3770TIP3    H132801   4.900   3.879  11.115  0.1380  0.2238  1.0416
 3770TIP3    H232802   4.883   3.734  11.075  0.1843  0.4925  0.0093
 3771TIP3   OH232803   4.769   2.889  12.140 -0.5023 -0.4051 -0.3645
 3771TIP3    H132804   4.811   2.972  12.162 -1.9860 -0.2722  2.6025
 3771TIP3    H232805   4.833   2.822  12.162  0.3072 -0.0981 -1.7272
 3772TIP3   OH232806   5.368   4.108   5.205  0.5054 -0.1361  0.4545
 3772TIP3    H132807   5.412   4.024   5.212  0.7357 -0.0421  0.1404
 3772TIP3    H232808   5.330   4.108   5.117  1.0702  0.3586  0.2029
 3773TIP3   OH232809   6.761   0.913   0.613 -0.2292 -0.7415  0.6859
 3773TIP3    H132810   6.808   0.992   0.586 -2.0021  0.4713  0.9429
 3773TIP3    H232811   6.819   0.841   0.588  1.2249  0.6067 -0.0344
 3774TIP3   OH232812   3.647   0.564  12.900  0.1615  0.0357  0.2193
 3774TIP3    H132813   3.699   0.636  12.936  0.9324  0.2362 -1.2320
 3774TIP3    H232814   3.558   0.597  12.899  0.1627  0.1672  1.5212
 3775TIP3   OH232815   5.827   4.647   5.173 -0.3306 -0.2300 -0.4286
 3775TIP3    H132816   5.737   4.620   5.190 -0.2744 -0.0671  0.1468
 3775TIP3    H232817   5.869   4.568   5.137  0.0921 -1.2726  2.1640
 3776TIP3   OH232818   1.619   5.851   3.843 -0.6924 -1.0074 -0.1040
 3776TIP3    H132819   1.612   5.770   3.794 -1.9732 -0.9109 -0.1153
 3776TIP3    H232820   1.532   5.891   3.836 -0.0175  0.4894 -0.3175
 3777TIP3   OH232821   4.350   2.094  14.788  0.4416  0.1142  0.3266
 3777TIP3    H132822   4.350   2.046  14.705  0.2297 -1.5793  1.2468
 3777TIP3    H232823   4.408   2.042  14.844 -1.3836 -0.2141  1.9895
 3778TIP3   OH232824   5.984   4.813   1.755 -0.7288  0.0501 -0.4485
 3778TIP3    H132825   6.014   4.741   1.699 -0.2728 -1.0934  1.2030
 3778TIP3    H232826   6.064   4.853   1.788 -0.9845  0.1662  0.0479
 3779TIP3   OH232827   5.431   1.709  12.252  0.3594 -0.1530 -0.2798
 3779TIP3    H132828   5.371   1.656  12.304 -0.7085  0.2455 -1.0770
 3779TIP3    H232829   5.460   1.778  12.311  1.5558 -1.4186  0.6926
 3780TIP3   OH232830   0.986   6.064   5.091 -0.2396  0.2879 -0.2333
 3780TIP3    H132831   0.968   6.155   5.115 -1.7159 -0.0749  0.1715
 3780TIP3    H232832   0.936   6.012   5.155  1.6207 -0.8491  0.3838
 3781TIP3   OH232833   0.799   4.011  16.207 -0.2835 -0.1150 -0.2899
 3781TIP3    H132834   0.780   3.959  16.285  1.2459  0.0650  0.2504
 3781TIP3    H232835   0.731   3.988  16.145 -2.2487  0.6144  1.4824
 3782TIP3   OH232836   1.888   6.546  10.205  0.5922 -0.0238 -0.1569
 3782TIP3    H132837   1.921   6.456  10.200 -2.6059 -1.3258 -5.0860
 3782TIP3    H232838   1.947   6.596  10.148  1.1655  0.6180  0.9642
 3783TIP3   OH232839   5.045   5.813  15.807 -0.2066 -0.7226 -0.2118
 3783TIP3    H132840   5.113   5.880  15.807 -0.7164 -0.1824  0.4659
 3783TIP3    H232841   4.964   5.862  15.790 -0.6454 -1.0808  0.7643
 3784TIP3   OH232842   5.050   2.696   0.264 -0.0436 -0.2477 -0.5398
 3784TIP3    H132843   5.017   2.690   0.174  0.3866 -1.9286 -0.6231
 3784TIP3    H232844   4.988   2.644   0.316  0.1953 -0.0075 -0.0010
 3785TIP3   OH232845   0.135   5.944   4.380 -0.4738 -0.1767 -0.5047
 3785TIP3    H132846   0.133   6.031   4.340  1.3456 -0.2192 -0.7830
 3785TIP3    H232847   0.160   5.960   4.471  1.1988 -0.4525 -0.8786
 3786TIP3   OH232848   5.535   1.891  12.496  0.2136 -0.2826  0.4924
 3786TIP3    H132849   5.475   1.944  12.548  1.3250  0.7518  0.7762
 3786TIP3    H232850   5.566   1.823  12.556 -1.8884 -1.8770 -0.1176
 3787TIP3   OH232851   6.029   6.240  16.347 -0.3160  0.4333  0.3207
 3787TIP3    H132852   5.948   6.231  16.398 -0.7626  0.5310 -0.3453
 3787TIP3    H232853   6.015   6.183  16.271  1.7695 -2.4983  1.9719
 3788TIP3   OH232854   2.138   1.332  10.656 -0.5868 -0.0157  0.4753
 3788TIP3    H132855   2.186   1.413  10.673 -0.2483  0.6287 -2.8261
 3788TIP3    H232856   2.047   1.360  10.647 -0.6628 -0.2176  0.6156
 3789TIP3   OH232857   5.746   4.801   1.116  0.2282 -0.4431  0.8322
 3789TIP3    H132858   5.802   4.836   1.047  0.0399  2.3511  1.9985
 3789TIP3    H232859   5.684   4.744   1.070  0.9059  0.3174 -1.1099
 3790TIP3   OH232860   5.662   1.611   5.907  0.0318  0.1999  0.3316
 3790TIP3    H132861   5.731   1.670   5.876 -0.2336 -0.0404 -0.7787
 3790TIP3    H232862   5.667   1.615   6.002  2.6650 -1.0481  0.3454
 3791TIP3   OH232863   6.008   6.113  13.913  0.2375 -0.6557 -0.5002
 3791TIP3    H132864   5.939   6.160  13.866  0.2163 -1.4620 -1.3162
 3791TIP3    H232865   6.082   6.174  13.914 -0.1324 -0.1994 -0.5776
 3792TIP3   OH232866   0.121   6.336   5.839 -0.4393  0.3563  0.2326
 3792TIP3    H132867   0.170   6.413   5.810 -0.2716  0.0584 -0.2835
 3792TIP3    H232868   0.158   6.315   5.925  0.3032  0.1689 -0.1272
 3793TIP3   OH232869   4.954   4.477   5.695  0.2016 -0.0699 -0.6069
 3793TIP3    H132870   4.896   4.422   5.747 -0.0936  0.9183  0.1455
 3793TIP3    H232871   5.033   4.486   5.748 -0.5190  1.8406  0.2256
 3794TIP3   OH232872   4.259   5.271   3.546 -0.1964 -0.2528  0.3426
 3794TIP3    H132873   4.310   5.191   3.532  0.4750 -0.0630  1.5377
 3794TIP3    H232874   4.229   5.295   3.459  1.5227 -0.5472 -0.3868
 3795TIP3   OH232875   0.471   5.493  13.433  0.1351 -0.1275  0.8844
 3795TIP3    H132876   0.552   5.544  13.432 -0.3003  0.6396 -0.8132
 3795TIP3    H232877   0.468   5.452  13.346 -1.2131 -0.2264  0.9473
 3796TIP3   OH232878   2.556   2.509  16.688  0.2078 -0.2884  0.5087
 3796TIP3    H132879   2.473   2.470  16.662  0.4424 -0.9412  0.7359
 3796TIP3    H232880   2.532   2.569  16.759 -0.2981  0.7932 -0.5291
 3797TIP3   OH232881   6.600   1.508  15.653  0.0529 -0.0054  0.3358
 3797TIP3    H132882   6.527   1.494  15.593 -1.5438 -1.9430  2.5596
 3797TIP3    H232883   6.648   1.425  15.653 -0.2600 -0.2348  1.9891
 3798TIP3   OH232884   5.608   2.048   4.818  0.7797  0.2367  0.4419
 3798TIP3    H132885   5.671   1.976   4.828  1.3067  0.8573  1.8745
 3798TIP3    H232886   5.530   2.007   4.782  1.4146 -0.8653  0.2703
 3799TIP3   OH232887   4.304   1.341   4.208  0.2502  0.1426  0.0434
 3799TIP3    H132888   4.276   1.333   4.117  1.7853 -1.5937 -0.3500
 3799TIP3    H232889   4.373   1.408   4.206  1.6889 -1.2990 -0.4898
 3800TIP3   OH232890   4.563   0.858   3.279 -0.2129 -0.2851  0.3251
 3800TIP3    H132891   4.629   0.916   3.317 -1.2608  1.3035 -0.1685
 3800TIP3    H232892   4.479   0.902   3.296 -1.1705 -2.1617  0.8080
 3801TIP3   OH232893   4.827   3.917   2.897  0.2695  0.1096  0.8309
 3801TIP3    H132894   4.772   3.967   2.837  0.5237  0.4928  0.9191
 3801TIP3    H232895   4.769   3.897   2.971  0.9282  2.8076  2.1985
 3802TIP3   OH232896   4.164   5.050  15.999  0.4146 -0.2281  0.7185
 3802TIP3    H132897   4.114   5.050  15.917  0.8472 -2.4262  0.3920
 3802TIP3    H232898   4.106   5.006  16.062  0.6924  0.0649  1.1838
 3803TIP3   OH232899   1.665   3.701  14.499  0.2815  0.0453  0.3250
 3803TIP3    H132900   1.734   3.636  14.490  0.6191  0.6064 -1.5324
 3803TIP3    H232901   1.710   3.782  14.522  0.4323  0.6340 -1.7942
 3804TIP3   OH232902   1.020   4.096  13.068  0.1342 -0.4186 -0.0822
 3804TIP3    H132903   0.938   4.105  13.020 -2.4634  0.1093  3.9406
 3804TIP3    H232904   1.050   4.186  13.082 -0.8420 -0.3184  1.6997
 3805TIP3   OH232905   2.998   5.031  12.980  0.1347  0.7631 -0.1948
 3805TIP3    H132906   2.962   5.036  12.892 -0.7024 -3.8168 -0.3773
 3805TIP3    H232907   3.086   4.994  12.968  0.0669  0.2220  0.8734
 3806TIP3   OH232908   6.013   1.485  14.546 -0.5986  0.0550  0.0209
 3806TIP3    H132909   6.071   1.520  14.478 -2.1277 -0.0460 -1.4082
 3806TIP3    H232910   6.069   1.472  14.622  0.6676  2.6222 -0.3874
 3807TIP3   OH232911   6.160   4.213  14.722 -0.4330 -0.1178  0.3052
 3807TIP3    H132912   6.231   4.215  14.657 -0.0688  1.4237  0.6953
 3807TIP3    H232913   6.155   4.122  14.749 -1.4168 -1.0981 -2.7124
 3808TIP3   OH232914   4.095   0.804  11.745  0.1925  0.4079 -0.2445
 3808TIP3    H132915   3.999   0.803  11.738  0.2779  0.5623 -1.5024
 3808TIP3    H232916   4.119   0.896  11.739  0.3723  0.4571  0.9914
 3809TIP3   OH232917   0.930   2.376   5.078 -0.2292 -0.6163 -0.2801
 3809TIP3    H132918   0.872   2.432   5.130  0.9081  0.6562 -0.3020
 3809TIP3    H232919   0.984   2.331   5.143 -0.5313 -1.0063 -0.2940
 3810TIP3   OH232920   3.452   0.198   1.018  0.0353 -0.8410 -0.3524
 3810TIP3    H132921   3.395   0.228   1.088  0.5432 -1.3062  0.2739
 3810TIP3    H232922   3.523   0.261   1.016 -0.7441  0.0433 -1.4897
 3811TIP3   OH232923   1.932   6.224  10.709 -0.4415 -0.0704 -0.0576
 3811TIP3    H132924   1.939   6.180  10.794 -1.1314  1.9086  1.1061
 3811TIP3    H232925   2.019   6.260  10.694 -0.4652  0.0505  0.0910
 3812TIP3   OH232926   3.070   5.336  16.857 -0.0244 -0.2588  0.1056
 3812TIP3    H132927   3.105   5.420  16.886  0.6306 -0.4454 -0.1183
 3812TIP3    H232928   2.975   5.343  16.870  0.0294  0.4954  0.1242
 3813TIP3   OH232929   1.158   4.879  15.014  0.7227 -0.3200  0.0112
 3813TIP3    H132930   1.240   4.901  14.969 -0.3744 -1.4573 -2.7683
 3813TIP3    H232931   1.091   4.886  14.946 -1.2138 -1.2990  1.7248
 3814TIP3   OH232932   1.319   3.897  14.368 -0.0568  0.1078 -0.1045
 3814TIP3    H132933   1.299   3.846  14.447 -1.8829  0.0771 -0.5420
 3814TIP3    H232934   1.369   3.836  14.314 -1.4624 -0.9805 -0.2520
 3815TIP3   OH232935   5.913   1.345  15.496  0.5540 -0.6644  0.2302
 3815TIP3    H132936   5.859   1.323  15.420 -0.3420 -0.0186  0.6519
 3815TIP3    H232937   5.850   1.367  15.565  1.3459 -1.1290  1.1345
 3816TIP3   OH232938   2.872   3.807  11.812 -0.0833 -0.2865  0.2179
 3816TIP3    H132939   2.804   3.773  11.871 -0.6207  0.2705 -0.0661
 3816TIP3    H232940   2.889   3.734  11.751 -0.4793 -0.4131  0.2504
 3817TIP3   OH232941   6.392   4.414   7.030 -0.1711  0.2714 -0.3285
 3817TIP3    H132942   6.311   4.437   6.984  1.0742  0.3044 -2.6983
 3817TIP3    H232943   6.448   4.376   6.962  1.5846 -0.3338  1.3598
 3818TIP3   OH232944   1.925   5.636  12.428 -0.2319  0.2830 -0.6881
 3818TIP3    H132945   1.929   5.644  12.333 -0.6789 -0.4294 -0.7736
 3818TIP3    H232946   2.008   5.593  12.452 -0.2869  0.1180 -0.7938
 3819TIP3   OH232947   4.812   4.989  13.166  0.6673 -0.3419 -0.1427
 3819TIP3    H132948   4.738   4.971  13.108  0.2785  0.0692  0.2216
 3819TIP3    H232949   4.823   4.908  13.217  0.0298 -0.1672  0.2788
 3820TIP3   OH232950   4.231   0.838  13.570 -0.0719  0.0919 -0.4512
 3820TIP3    H132951   4.285   0.824  13.493 -1.8067  0.1791 -1.7300
 3820TIP3    H232952   4.266   0.777  13.635  1.4652  0.0710 -1.2593
 3821TIP3   OH232953   2.053   6.087  12.591  0.3429 -0.2808 -0.2691
 3821TIP3    H132954   2.051   6.157  12.527  1.5044  0.1973  0.1914
 3821TIP3    H232955   2.084   6.011  12.542 -0.0982 -0.2647 -0.5776
 3822TIP3   OH232956   2.689   4.311  14.245  0.1772 -0.0179 -0.1308
 3822TIP3    H132957   2.646   4.299  14.330 -0.2908 -2.5167 -0.6487
 3822TIP3    H232958   2.650   4.245  14.189  2.8098 -0.6299 -1.3922
 3823TIP3   OH232959   2.197   3.668  15.955  0.0606  0.2518 -0.8095
 3823TIP3    H132960   2.106   3.676  15.929  0.0507 -1.4037 -1.3752
 3823TIP3    H232961   2.194   3.630  16.043  0.2020 -1.0670 -1.3545
 3824TIP3   OH232962   6.515   6.122  12.186 -0.0239  0.4493 -0.0950
 3824TIP3    H132963   6.591   6.081  12.144 -0.2543 -0.1570  0.0576
 3824TIP3    H232964   6.488   6.058  12.252 -0.6159  0.6959 -0.0960
 3825TIP3   OH232965   4.927   0.777  12.516  0.3132  0.0373  0.1828
 3825TIP3    H132966   4.988   0.704  12.529  0.5174 -0.0424 -1.1187
 3825TIP3    H232967   4.983   0.850  12.488  0.0602  0.5889  1.0855
 3826TIP3   OH232968   5.165   2.687   2.049  0.0391  0.7938  0.3294
 3826TIP3    H132969   5.158   2.728   2.135  0.3795  1.5084  0.0222
 3826TIP3    H232970   5.216   2.608   2.065  2.4419  2.2621  0.3649
 3827TIP3   OH232971   2.549   3.862  10.916  0.0299  0.5582  0.1619
 3827TIP3    H132972   2.534   3.905  10.832 -2.8661  1.3087  0.9777
 3827TIP3    H232973   2.605   3.922  10.965  0.6831  0.6989 -0.7443
 3828TIP3   OH232974   2.463   0.127  13.643 -0.1690 -0.1422 -0.6552
 3828TIP3    H132975   2.417   0.204  13.677 -1.1935 -0.3619 -1.5200
 3828TIP3    H232976   2.430   0.054  13.696 -1.0141 -0.3343 -1.4277
 3829TIP3   OH232977   1.729   5.125   4.716 -0.1899 -0.1350 -0.7070
 3829TIP3    H132978   1.798   5.084   4.664  0.8784 -0.2774  0.7340
 3829TIP3    H232979   1.762   5.120   4.806 -1.8118  0.3767 -0.0531
 3830TIP3   OH232980   1.709   1.448  13.287  0.2904  0.3542  0.5933
 3830TIP3    H132981   1.619   1.455  13.318  0.2381  0.2296  0.4709
 3830TIP3    H232982   1.744   1.371  13.333  0.0451 -0.1593 -0.0636
 3831TIP3   OH232983   3.389   3.301  16.698 -0.0898  0.0671  0.3412
 3831TIP3    H132984   3.421   3.354  16.771 -0.4863  0.8760 -0.0572
 3831TIP3    H232985   3.343   3.363  16.642  0.0062 -0.5822 -0.4809
 3832TIP3   OH232986   6.548   4.079   2.384 -0.2917  0.3454 -0.5332
 3832TIP3    H132987   6.516   4.019   2.451  1.4472  0.1681  0.2180
 3832TIP3    H232988   6.635   4.045   2.361  0.6752  2.4279 -0.2264
 3833TIP3   OH232989   6.765   3.942  11.828 -0.5813  0.3772  0.8157
 3833TIP3    H132990   6.838   3.933  11.766  0.0031  1.0820  1.3819
 3833TIP3    H232991   6.796   3.898  11.907 -1.0862  0.0013  0.8046
 3834TIP3   OH232992   3.046   4.540   0.190  0.0210  0.0297 -0.3990
 3834TIP3    H132993   3.084   4.453   0.199 -0.9409 -0.4830 -1.1137
 3834TIP3    H232994   2.993   4.550   0.269  0.0198 -0.0924 -0.3835
 3835TIP3   OH232995   5.611   5.853   4.906  0.2600 -0.4456 -0.0806
 3835TIP3    H132996   5.677   5.867   4.974 -1.4539 -0.3986  1.6470
 3835TIP3    H232997   5.563   5.935   4.901 -0.7811 -1.0233 -0.0138
 3836TIP3   OH232998   1.750   3.180  12.670  0.5003  0.3161  0.2390
 3836TIP3    H132999   1.824   3.192  12.611 -0.2903  0.1578 -0.8087
 3836TIP3    H233000   1.739   3.265  12.712  2.4377 -0.1314  1.8629
 3837TIP3   OH233001   6.024   4.118   5.625 -0.4823 -0.3642  0.5258
 3837TIP3    H133002   6.058   4.207   5.616  0.3217 -0.6171  0.9360
 3837TIP3    H233003   6.013   4.088   5.534  1.8542 -0.7871  0.3096
 3838TIP3   OH233004   0.919   0.135   4.266  0.1689 -0.6736 -0.0175
 3838TIP3    H133005   0.904   0.097   4.353 -1.9784 -0.0840 -0.0636
 3838TIP3    H233006   0.831   0.140   4.228  0.5236  2.7829 -0.6431
 3839TIP3   OH233007   3.808   0.380   0.686  0.3886 -0.5968  0.2094
 3839TIP3    H133008   3.822   0.289   0.711 -1.8013 -1.1134 -0.2353
 3839TIP3    H233009   3.890   0.406   0.642  0.9641 -2.3996  0.1421
 3840TIP3   OH233010   6.729   6.698  15.886 -0.1432 -0.0260 -0.0397
 3840TIP3    H133011   6.788   6.698  15.961 -0.6402  0.5981  0.3507
 3840TIP3    H233012   6.785   6.726  15.813 -0.0360  0.9643  0.4040
 3841TIP3   OH233013   6.227   3.974  14.838  0.7128 -0.2858 -0.4940
 3841TIP3    H133014   6.232   3.884  14.871 -0.6917 -0.4138 -0.5405
 3841TIP3    H233015   6.243   4.029  14.915 -0.2830 -0.5908 -0.0527
 3842TIP3   OH233016   5.110   2.542   3.951 -0.5310  0.4313  0.0798
 3842TIP3    H133017   5.203   2.556   3.969 -0.2290  0.6100 -1.5179
 3842TIP3    H233018   5.067   2.619   3.990  0.1631  1.1525 -0.5299
 3843TIP3   OH233019   5.834   1.171   6.748  0.2933  0.1555  0.1882
 3843TIP3    H133020   5.745   1.137   6.738  0.1329  1.0098 -1.6542
 3843TIP3    H233021   5.870   1.170   6.660  2.6219 -1.4391  1.0746
 3844TIP3   OH233022   0.481   0.363   2.372  0.6824 -0.0577  0.1934
 3844TIP3    H133023   0.501   0.379   2.279 -1.0327  1.7575  0.0713
 3844TIP3    H233024   0.407   0.421   2.390  0.3044 -1.1702  2.4385
 3845TIP3   OH233025   5.247   3.996  13.294 -0.3418 -0.3512  0.0151
 3845TIP3    H133026   5.246   3.915  13.243  0.9784 -0.9893  0.9209
 3845TIP3    H233027   5.295   4.058  13.239 -0.5201 -0.4791 -0.2882
 3846TIP3   OH233028   0.230   5.026  16.379  0.7636 -0.4021 -0.3866
 3846TIP3    H133029   0.167   5.031  16.307  0.7937 -1.6015 -0.5186
 3846TIP3    H233030   0.315   5.037  16.336  0.7772 -1.0419 -0.5264
 3847TIP3   OH233031   2.813   0.870  14.799 -0.1597 -0.0183 -0.0122
 3847TIP3    H133032   2.730   0.892  14.841 -0.3915 -0.1757 -0.3797
 3847TIP3    H233033   2.798   0.783  14.762  1.0036 -1.2550  2.1778
 3848TIP3   OH233034   4.927   2.064   3.885  0.0836 -0.4210  0.3870
 3848TIP3    H133035   4.875   1.988   3.912  0.2006 -0.0851  1.6422
 3848TIP3    H233036   4.914   2.128   3.955  1.5632 -0.0361  0.3508
 3849TIP3   OH233037   1.555   4.387   0.843 -1.0295  0.1329 -0.1226
 3849TIP3    H133038   1.641   4.381   0.884 -1.6850 -0.5177  1.2057
 3849TIP3    H233039   1.574   4.393   0.749  0.4894  1.4539  0.2356
 3850TIP3   OH233040   6.523   2.181  15.465 -0.1977  0.3700  0.6375
 3850TIP3    H133041   6.576   2.171  15.544 -0.8944 -3.9399  0.8223
 3850TIP3    H233042   6.435   2.153  15.492 -0.7883  0.1914 -1.3209
 3851TIP3   OH233043   4.822   0.891   5.578  0.0262 -0.1273  0.1353
 3851TIP3    H133044   4.891   0.958   5.576 -1.4772  1.9088  4.0910
 3851TIP3    H233045   4.857   0.823   5.635 -0.2992 -0.2759  0.1597
 3852TIP3   OH233046   2.782   6.572   4.906  0.0725 -0.5469  0.4795
 3852TIP3    H133047   2.841   6.584   4.980  0.1702  0.0726  0.3049
 3852TIP3    H233048   2.701   6.540   4.945 -0.2239  0.7706  0.9727
 3853TIP3   OH233049   3.669   6.309  15.459 -0.0002  0.5540 -0.0080
 3853TIP3    H133050   3.706   6.287  15.373 -0.3051 -0.1689  0.0355
 3853TIP3    H233051   3.745   6.330  15.513  0.1738  1.3333 -0.5376
 3854TIP3   OH233052   5.449   5.045   4.381 -0.3446  0.1560 -0.8634
 3854TIP3    H133053   5.422   5.123   4.332 -3.3986 -0.2404 -0.0571
 3854TIP3    H233054   5.474   5.079   4.467  0.3718  0.4086 -1.1651
 3855TIP3   OH233055   1.540   2.200   1.392 -0.4902 -0.2544  0.1590
 3855TIP3    H133056   1.561   2.108   1.409 -0.3883  0.0351  1.7319
 3855TIP3    H233057   1.624   2.241   1.371 -0.0476  0.0146  2.2065
 3856TIP3   OH233058   2.017   6.734   6.620  0.5376 -0.8300  0.1724
 3856TIP3    H133059   2.016   6.829   6.634 -0.1545 -1.2042  3.5130
 3856TIP3    H233060   2.102   6.717   6.579  0.6207  1.2097 -0.6377
 3857TIP3   OH233061   5.273   2.914  12.818 -0.1076  0.6237  0.2006
 3857TIP3    H133062   5.194   2.874  12.854 -0.0535 -0.7490 -1.1384
 3857TIP3    H233063   5.333   2.918  12.893 -0.0338 -2.0559  0.3715
 3858TIP3   OH233064   1.564   1.636   3.267 -0.8591  0.2276 -0.0887
 3858TIP3    H133065   1.537   1.728   3.265  2.6040  1.3676  0.2856
 3858TIP3    H233066   1.630   1.631   3.336  0.2089 -2.1980 -1.1499
 3859TIP3   OH233067   5.514   2.177   5.529 -0.4994  0.4087  0.3269
 3859TIP3    H133068   5.590   2.121   5.543 -0.6810 -0.4386 -1.7025
 3859TIP3    H233069   5.439   2.119   5.543 -0.7237  0.6421  0.1063
 3860TIP3   OH233070   0.489   2.831   2.882  0.5137 -0.2926  0.0101
 3860TIP3    H133071   0.428   2.799   2.817 -1.8861  0.9924  1.4579
 3860TIP3    H233072   0.530   2.907   2.841  1.5308 -1.4167 -1.1340
 3861TIP3   OH233073   2.081   6.477  13.936  0.3556 -0.1671 -0.0309
 3861TIP3    H133074   2.064   6.559  13.983 -0.2648 -0.2632 -0.0686
 3861TIP3    H233075   1.995   6.451  13.903  0.6265 -0.5990 -0.4056
 3862TIP3   OH233076   2.988   3.358   1.659 -0.1188  0.5937 -0.3974
 3862TIP3    H133077   2.987   3.422   1.588  0.6374  0.9109 -0.1343
 3862TIP3    H233078   3.068   3.308   1.645 -0.7839 -0.4277 -0.6998
 3863TIP3   OH233079   5.640   6.440  14.392  0.1463  0.5345  0.2982
 3863TIP3    H133080   5.592   6.519  14.368  1.3566  0.7158 -1.7533
 3863TIP3    H233081   5.713   6.436  14.330  0.5630 -1.7819  0.8395
 3864TIP3   OH233082   6.055   2.898   0.357 -0.5005  0.4148  0.2995
 3864TIP3    H133083   6.011   2.915   0.440 -0.7080  2.6194 -0.2029
 3864TIP3    H233084   6.044   2.979   0.307  0.0534 -0.6711 -1.6927
 3865TIP3   OH233085   2.853   2.473  15.758  1.2322 -0.0549 -0.0248
 3865TIP3    H133086   2.928   2.477  15.698 -0.6664 -0.5405 -2.6124
 3865TIP3    H233087   2.778   2.456  15.701 -0.7529 -0.4788  2.5418
 3866TIP3   OH233088   3.184   2.620   1.791 -0.1705 -0.4664  0.3574
 3866TIP3    H133089   3.257   2.568   1.756  0.7553  1.0294 -0.0058
 3866TIP3    H233090   3.108   2.589   1.742  0.3373 -1.5098  0.1814
 3867TIP3   OH233091   1.771   5.722   3.101  0.7326  0.1172  0.1508
 3867TIP3    H133092   1.681   5.688   3.105  0.9054 -0.7531 -2.1761
 3867TIP3    H233093   1.792   5.744   3.192 -2.4021  1.9396  0.5812
 3868TIP3   OH233094   0.990   0.937   3.870 -0.1253  0.2496 -0.2508
 3868TIP3    H133095   1.032   1.013   3.829 -0.4026  1.1557  1.0596
 3868TIP3    H233096   0.994   0.868   3.804  3.2466  0.3202 -0.2603
 3869TIP3   OH233097   6.377   5.006  16.984  0.0585 -0.0089 -0.5424
 3869TIP3    H133098   6.342   5.048  16.906 -1.5286 -0.7421 -0.2455
 3869TIP3    H233099   6.315   5.028  17.053  0.7723 -0.4254  0.2529
 3870TIP3   OH233100   2.178   0.548  12.625 -0.2266 -0.3234  0.1675
 3870TIP3    H133101   2.163   0.497  12.545 -1.0835  1.4856 -0.8827
 3870TIP3    H233102   2.245   0.498  12.673  0.8880 -1.0781 -2.0300
 3871TIP3   OH233103   0.731   2.770  11.837 -0.2444  0.1184 -0.0723
 3871TIP3    H133104   0.748   2.711  11.763 -0.6216 -0.4371  0.2756
 3871TIP3    H233105   0.636   2.780  11.838 -0.3132 -0.4918  0.7902
 3872TIP3   OH233106   4.225   5.885  12.215  0.3377 -0.1207 -0.0095
 3872TIP3    H133107   4.143   5.855  12.254  0.5100 -1.2751 -0.5162
 3872TIP3    H233108   4.212   5.874  12.121  1.6653 -1.9036 -0.0193
 3873TIP3   OH233109   0.559   5.258   4.856  0.2473  0.0652 -0.2509
 3873TIP3    H133110   0.499   5.242   4.783  1.0545  1.9285 -1.3944
 3873TIP3    H233111   0.504   5.256   4.934 -0.8239 -0.8443 -1.0051
 3874TIP3   OH233112   4.482   6.191   4.447  0.2303 -0.1893 -0.1544
 3874TIP3    H133113   4.519   6.254   4.386 -2.5900  1.4527 -0.3252
 3874TIP3    H233114   4.543   6.190   4.521  1.1207  1.5937 -0.8104
 3875TIP3   OH233115   5.656   5.944   5.905  0.0871  0.0896 -0.4415
 3875TIP3    H133116   5.705   5.904   5.977  1.1639 -0.2452 -1.3380
 3875TIP3    H233117   5.643   5.873   5.842 -0.8820  0.3692 -0.5720
 3876TIP3   OH233118   6.044   2.620   2.390 -0.4159 -0.3782 -0.1635
 3876TIP3    H133119   6.137   2.617   2.368 -0.5351  0.3955 -0.8158
 3876TIP3    H233120   6.030   2.545   2.448  1.2054  1.0171  2.2355
 3877TIP3   OH233121   3.101   2.311   4.788 -0.0186 -0.1145  0.2061
 3877TIP3    H133122   3.100   2.218   4.767 -1.8347 -0.5728  1.9407
 3877TIP3    H233123   3.086   2.355   4.705  1.9229 -1.2799 -0.8219
 3878TIP3   OH233124   2.359   1.225   6.230  0.7718  0.2458 -0.7091
 3878TIP3    H133125   2.412   1.302   6.209  0.2707  0.9171  0.3887
 3878TIP3    H233126   2.297   1.255   6.297 -1.2615 -0.3984 -2.1826
 3879TIP3   OH233127   6.237   4.403   1.018 -0.1895 -0.7958  0.4063
 3879TIP3    H133128   6.223   4.331   1.079  0.6214 -2.5667 -1.3598
 3879TIP3    H233129   6.273   4.361   0.940  0.0868  1.5217 -0.8047
 3880TIP3   OH233130   2.401   3.474  11.553 -0.8171 -0.2160 -1.1201
 3880TIP3    H133131   2.473   3.436  11.502 -0.4348 -0.6720 -0.2669
 3880TIP3    H233132   2.441   3.548  11.599 -1.2475  0.4187 -1.7594
 3881TIP3   OH233133   3.433   1.165  11.838  0.3936  0.5460  0.3336
 3881TIP3    H133134   3.461   1.174  11.929 -0.5070  1.2136  0.5611
 3881TIP3    H233135   3.503   1.114  11.796  0.2700 -0.7842  1.6581
 3882TIP3   OH233136   1.957   4.578   2.572 -0.4421  0.3421 -0.1223
 3882TIP3    H133137   1.993   4.621   2.650  0.8183  0.3737 -0.6950
 3882TIP3    H233138   1.926   4.650   2.517 -0.4955  0.3776 -0.0451
 3883TIP3   OH233139   0.005   1.139  16.429 -0.2611 -0.5729  0.1691
 3883TIP3    H133140   0.021   1.063  16.373  2.9971 -0.2742  0.5089
 3883TIP3    H233141  -0.045   1.104  16.503 -1.7132 -1.6370 -1.2443
 3884TIP3   OH233142   6.798   6.324   2.980  0.1463 -0.5796 -0.0323
 3884TIP3    H133143   6.840   6.410   2.982 -0.1152 -0.2276 -3.6242
 3884TIP3    H233144   6.869   6.263   2.959 -0.2300 -0.7098 -0.9719
 3885TIP3   OH233145   1.989   0.884  16.683 -0.1927 -0.0654 -0.3748
 3885TIP3    H133146   2.059   0.908  16.623  0.1114 -0.5503 -0.2221
 3885TIP3    H233147   1.938   0.818  16.636  1.1056 -1.8053  0.5438
 3886TIP3   OH233148   3.474   5.706  16.242  0.7304  0.1844  0.0386
 3886TIP3    H133149   3.490   5.614  16.265  0.0438  0.2446  0.7919
 3886TIP3    H233150   3.416   5.702  16.166  0.0062 -0.0134  0.5914
 3887TIP3   OH233151   3.290   2.454   2.013 -0.0228  0.3181 -0.5482
 3887TIP3    H133152   3.361   2.516   2.032 -0.7164  1.0209 -0.1959
 3887TIP3    H233153   3.212   2.496   2.050 -0.4310 -0.9834  0.1264
 3888TIP3   OH233154   2.256   2.644   4.390 -0.4687  0.5031 -0.2514
 3888TIP3    H133155   2.177   2.652   4.443 -2.1863  1.4526 -2.7590
 3888TIP3    H233156   2.223   2.638   4.300  2.2401 -1.6136 -1.2266
 3889TIP3   OH233157   3.938   4.782  12.893 -0.0030 -0.3136 -0.1663
 3889TIP3    H133158   4.003   4.722  12.857  0.1182 -0.3655  0.1316
 3889TIP3    H233159   3.970   4.801  12.982  0.4850  0.9615 -0.5898
 3890TIP3   OH233160   4.227   0.378   5.219  0.1292  0.3867 -0.2119
 3890TIP3    H133161   4.149   0.429   5.242  0.8883  2.3006 -1.6287
 3890TIP3    H233162   4.215   0.356   5.127  0.0360 -1.6887  0.2595
 3891TIP3   OH233163   1.158   2.941  13.470  0.0399  0.5264 -0.1182
 3891TIP3    H133164   1.083   2.883  13.483 -0.0735  1.0749  2.0192
 3891TIP3    H233165   1.130   3.002  13.401 -1.1371  0.1646  0.0208
 3892TIP3   OH233166   2.500   5.576  16.951 -0.3019  0.2949 -0.1526
 3892TIP3    H133167   2.529   5.594  16.862  1.2286  0.2961  0.3152
 3892TIP3    H233168   2.460   5.489  16.946  0.1499  0.1161 -0.7557
 3893TIP3   OH233169   4.818   1.044   4.344  0.3778  0.4419 -0.0231
 3893TIP3    H133170   4.738   1.092   4.322  0.1706 -0.0424 -0.3567
 3893TIP3    H233171   4.869   1.043   4.262 -0.9476 -2.4412 -0.9710
 3894TIP3   OH233172   2.697   3.368   4.256 -0.3238  0.0096  0.3019
 3894TIP3    H133173   2.695   3.456   4.220  0.3473  0.2892  0.9005
 3894TIP3    H233174   2.672   3.311   4.184 -0.1494  0.6435 -0.2693
 3895TIP3   OH233175   4.839   2.286   2.340  0.3327  0.0802 -0.5708
 3895TIP3    H133176   4.836   2.198   2.377  0.3322  0.7001  0.9828
 3895TIP3    H233177   4.932   2.301   2.322  0.5555  0.3407  0.6916
 3896TIP3   OH233178   3.566   0.451   5.331  0.2500  0.2372 -0.2567
 3896TIP3    H133179   3.553   0.466   5.425  2.2525 -2.0551  0.4866
 3896TIP3    H233180   3.595   0.535   5.296  0.7092  0.8155  1.4407
 3897TIP3   OH233181   3.621   5.272  10.777  0.1159 -0.6339 -0.0481
 3897TIP3    H133182   3.603   5.356  10.817 -0.9384 -1.1209  0.5245
 3897TIP3    H233183   3.585   5.279  10.688 -0.4946 -0.6679  0.1913
 3898TIP3   OH233184   1.674   3.452  12.755  0.1289 -0.1219  0.1534
 3898TIP3    H133185   1.582   3.472  12.770 -0.5451 -1.7089 -1.5488
 3898TIP3    H233186   1.707   3.427  12.842 -0.8873  0.9393  0.8754
 3899TIP3   OH233187   4.269   3.741   6.105  0.1395 -0.1244  0.0703
 3899TIP3    H133188   4.192   3.771   6.055  0.8516  1.6402 -0.0534
 3899TIP3    H233189   4.234   3.720   6.192 -0.7190 -0.8622 -0.4297
 3900TIP3   OH233190   6.756   4.774   4.436 -0.7920 -0.4714 -0.8071
 3900TIP3    H133191   6.683   4.721   4.402  0.1958 -2.6653  0.2534
 3900TIP3    H233192   6.834   4.730   4.403  0.0988 -0.2653  0.9475
 3901TIP3   OH233193   0.901   4.804   4.704  0.1098  0.1958  0.1982
 3901TIP3    H133194   0.881   4.860   4.629 -0.6382 -0.7866 -0.3653
 3901TIP3    H233195   0.980   4.756   4.678  0.4196  0.5640  0.4481
 3902TIP3   OH233196   5.748   5.901  11.605 -0.5643 -0.1530 -0.4158
 3902TIP3    H133197   5.744   5.858  11.519  1.1469  0.5745 -0.9012
 3902TIP3    H233198   5.731   5.993  11.586  0.2743  0.0825 -0.0488
 3903TIP3   OH233199   5.283   5.391  11.334 -0.0840 -0.3378 -0.2101
 3903TIP3    H133200   5.206   5.335  11.336 -0.9913  0.7915 -1.6638
 3903TIP3    H233201   5.253   5.474  11.370  0.3150  0.2574 -1.2333
 3904TIP3   OH233202   3.226   4.378  13.718 -0.4914 -0.2747 -0.2773
 3904TIP3    H133203   3.182   4.297  13.742  0.0443 -0.9237 -1.3687
 3904TIP3    H233204   3.316   4.351  13.699 -0.2701  0.5993 -0.5079
 3905TIP3   OH233205   1.696   2.807  11.181  0.3274  0.1113  0.3260
 3905TIP3    H133206   1.674   2.751  11.106 -1.1987 -0.5709  1.2530
 3905TIP3    H233207   1.666   2.758  11.257  0.8741  1.2863  1.3280
 3906TIP3   OH233208   6.184   5.986   0.454  0.1632  0.0801  0.1347
 3906TIP3    H133209   6.185   5.896   0.421 -1.3184  0.7306 -1.8365
 3906TIP3    H233210   6.164   5.976   0.547  1.8470 -1.6870  0.3801
 3907TIP3   OH233211   5.126   2.770   6.572 -0.5026 -0.1130 -0.6136
 3907TIP3    H133212   5.048   2.746   6.523 -1.3122 -2.9594  1.7804
 3907TIP3    H233213   5.095   2.785   6.661  1.3110  1.7325 -0.2196
 3908TIP3   OH233214   6.420   3.342   4.309  0.4537  0.3830  0.0151
 3908TIP3    H133215   6.462   3.428   4.314 -0.3412  0.8537 -1.0500
 3908TIP3    H233216   6.445   3.307   4.224 -1.7892  0.9714 -0.9621
 3909TIP3   OH233217   0.696   4.426   1.280 -0.8025 -0.0079 -0.1856
 3909TIP3    H133218   0.748   4.352   1.248  0.0298  0.8454 -0.8465
 3909TIP3    H233219   0.683   4.406   1.373  0.0790 -0.6085 -0.1733
 3910TIP3   OH233220   5.931   4.887   2.433  0.6627 -0.2849 -0.0961
 3910TIP3    H133221   5.886   4.930   2.361 -2.2269 -1.4325  0.8904
 3910TIP3    H233222   6.016   4.931   2.438  0.1395  1.2301 -2.8103
 3911TIP3   OH233223   1.197   2.813  14.917 -0.1085 -0.1226 -0.2678
 3911TIP3    H133224   1.194   2.726  14.877  1.7659 -1.3307  1.9681
 3911TIP3    H233225   1.110   2.850  14.901 -0.5092 -1.8363 -2.4465
 3912TIP3   OH233226   1.538   1.341   3.809 -0.2606 -0.3983 -0.8051
 3912TIP3    H133227   1.470   1.405   3.788 -0.5454 -0.4572 -0.0907
 3912TIP3    H233228   1.521   1.268   3.751  0.1312  0.2137 -1.7067
 3913TIP3   OH233229   6.326   2.928   5.286 -0.3901  0.0517  0.1301
 3913TIP3    H133230   6.407   2.926   5.235 -0.5158 -0.3448 -0.0547
 3913TIP3    H233231   6.262   2.968   5.227 -0.1640  1.0046  0.5202
 3914TIP3   OH233232   6.772   5.482  12.483 -0.5205  0.6476 -0.4092
 3914TIP3    H133233   6.848   5.541  12.484 -0.6332  0.8303 -1.2130
 3914TIP3    H233234   6.702   5.533  12.524 -0.3065  0.6171  0.0002
 3915TIP3   OH233235   2.434   0.848  10.449  0.5241  0.5874  0.0613
 3915TIP3    H133236   2.502   0.798  10.405 -0.6613  1.1254 -2.5505
 3915TIP3    H233237   2.480   0.921  10.490  1.7470 -0.2863  0.3027
 3916TIP3   OH233238   2.871   2.410  12.662  0.4665 -0.0673  0.2655
 3916TIP3    H133239   2.948   2.357  12.686  0.5292 -0.1655 -0.1475
 3916TIP3    H233240   2.820   2.353  12.605  0.6915  0.4272 -0.4369
 3917TIP3   OH233241   2.147   2.304  11.617  0.0312 -0.2627  0.1934
 3917TIP3    H133242   2.176   2.305  11.526 -0.8893 -0.0203 -0.1068
 3917TIP3    H233243   2.179   2.220  11.651  0.3700 -0.3639 -0.3558
 3918TIP3   OH233244   5.241   0.247  12.719 -0.8834 -0.2589  0.0036
 3918TIP3    H133245   5.204   0.159  12.722 -0.9263 -0.2269  0.4096
 3918TIP3    H233246   5.164   0.305  12.716 -0.9776 -0.0842  2.9777
 3919TIP3   OH233247   0.440   5.383   1.171  0.0200 -0.2044  0.1235
 3919TIP3    H133248   0.532   5.357   1.163 -0.2550 -1.3601  0.5007
 3919TIP3    H233249   0.400   5.353   1.089 -0.1821 -0.4624  0.3125
 3920TIP3   OH233250   4.924   6.654   1.825  0.4780 -0.8057 -0.1766
 3920TIP3    H133251   4.922   6.669   1.731  0.1254  1.9315  0.1769
 3920TIP3    H233252   5.015   6.631   1.843  1.1741  1.0908 -0.9556
 3921TIP3   OH233253   2.640   5.687   0.557  0.3371 -0.6935 -0.3520
 3921TIP3    H133254   2.715   5.696   0.617 -1.2030 -1.6503  1.8475
 3921TIP3    H233255   2.628   5.593   0.548 -1.7669 -0.6109  0.9817
 3922TIP3   OH233256   0.007   6.009   2.089  0.3774  0.2959  0.0684
 3922TIP3    H133257   0.083   6.024   2.144 -0.1810  1.6131  0.5124
 3922TIP3    H233258  -0.063   6.059   2.130 -0.4304  0.0778 -0.9983
 3923TIP3   OH233259   5.050   0.685   6.156  0.6144 -0.1310 -0.0377
 3923TIP3    H133260   5.096   0.711   6.076  0.2503 -0.3709 -0.3310
 3923TIP3    H233261   5.089   0.601   6.179  0.4925 -0.2205 -0.1526
 3924TIP3   OH233262   3.606   2.774  15.849  0.4024  0.7269  0.6951
 3924TIP3    H133263   3.600   2.865  15.821 -1.6686  0.4890  0.2251
 3924TIP3    H233264   3.580   2.776  15.941 -0.5392  0.5221  0.4448
 3925TIP3   OH233265   1.036   5.661  13.528 -0.2242  0.4709 -0.8738
 3925TIP3    H133266   1.105   5.658  13.594 -0.8548  0.8057 -0.1851
 3925TIP3    H233267   0.989   5.743  13.546 -1.0228  0.0707 -1.0932
 3926TIP3   OH233268   6.334   4.940  15.855 -0.1857 -0.0639 -0.8473
 3926TIP3    H133269   6.239   4.943  15.867  0.0204  2.7083  0.9067
 3926TIP3    H233270   6.353   5.012  15.794  0.9336  1.0070  0.6769
 3927TIP3   OH233271   0.128   4.172  12.629 -0.4493 -0.0107 -0.0493
 3927TIP3    H133272   0.105   4.143  12.717 -1.4524 -1.1496 -0.6641
 3927TIP3    H233273   0.119   4.267  12.632 -0.7055 -0.0617  1.0129
 3928TIP3   OH233274   0.980   5.410   3.806  0.1278  0.4335 -0.2928
 3928TIP3    H133275   0.895   5.374   3.781  0.1968 -0.0321  0.1193
 3928TIP3    H233276   1.043   5.354   3.761  0.2170  0.8051 -0.6324
 3929TIP3   OH233277   2.823   1.449   2.879  0.1089 -0.1265  0.2381
 3929TIP3    H133278   2.781   1.535   2.870 -0.9686 -0.8267 -2.3009
 3929TIP3    H233279   2.752   1.391   2.906  0.6722 -0.3901  1.1924
 3930TIP3   OH233280   2.923   1.895   0.503 -0.2176 -0.1958  0.1147
 3930TIP3    H133281   2.868   1.934   0.571 -0.8959 -1.4069  0.2739
 3930TIP3    H233282   2.990   1.962   0.486 -1.6255  1.2691  0.0207
 3931TIP3   OH233283   5.597   1.372  13.568  0.3500 -0.3419  0.2214
 3931TIP3    H133284   5.654   1.449  13.559  1.7591 -1.2787  0.6560
 3931TIP3    H233285   5.515   1.407  13.603  1.7975  0.7062  2.8769
 3932TIP3   OH233286   5.264   1.003  15.399  0.5492  0.0362 -0.3684
 3932TIP3    H133287   5.170   1.023  15.398  0.5500  0.2411  1.0184
 3932TIP3    H233288   5.273   0.939  15.471  1.2485 -1.2530 -1.5518
 3933TIP3   OH233289   3.889   1.021   4.729 -0.3236  0.2381  0.3587
 3933TIP3    H133290   3.960   0.957   4.718 -1.6457 -1.1440 -0.6476
 3933TIP3    H233291   3.843   0.992   4.808 -2.1550 -1.4274 -1.1898
 3934TIP3   OH233292   1.611   1.120   1.487  0.0526  0.0341  0.3291
 3934TIP3    H133293   1.555   1.171   1.545  2.3538  1.2831  1.6404
 3934TIP3    H233294   1.599   1.160   1.401 -0.1446  1.0972  0.8352
 3935TIP3   OH233295   6.617   5.613   3.093  0.0751  0.2673  0.0901
 3935TIP3    H133296   6.664   5.623   3.176  0.6902 -0.5714 -0.1552
 3935TIP3    H233297   6.677   5.648   3.027 -0.5913  1.3501  0.0267
 3936TIP3   OH233298   5.047   1.225   4.430  0.1259 -0.0090 -0.0141
 3936TIP3    H133299   5.112   1.165   4.393 -0.2033 -1.1726  1.1885
 3936TIP3    H233300   4.973   1.169   4.452 -1.4264  1.3383 -1.5795
 3937TIP3   OH233301   3.804   2.136  15.846 -0.8505  0.1258  0.2530
 3937TIP3    H133302   3.895   2.131  15.814 -1.5046  1.0194 -1.9607
 3937TIP3    H233303   3.803   2.079  15.923  1.1078 -1.5376 -0.8266
 3938TIP3   OH233304   5.313   5.993   4.755  0.5724  0.1407  0.0138
 3938TIP3    H133305   5.292   5.900   4.756  2.5501 -0.3540  0.2302
 3938TIP3    H233306   5.230   6.037   4.737 -0.5710 -1.6058  0.8279
 3939TIP3   OH233307   2.790   4.594   3.299 -0.8664 -0.4249 -0.1728
 3939TIP3    H133308   2.747   4.633   3.376  0.9359 -0.7961  1.0906
 3939TIP3    H233309   2.734   4.520   3.275 -1.1385 -0.7009  1.2160
 3940TIP3   OH233310   4.518   1.929   1.502 -0.2323  0.0177  0.5702
 3940TIP3    H133311   4.553   1.861   1.559  1.4251 -0.7969 -1.2993
 3940TIP3    H233312   4.451   1.884   1.450 -0.8052  0.4311  0.9354
 3941TIP3   OH233313   0.715   3.717   2.111  0.2465  0.2303 -0.0296
 3941TIP3    H133314   0.766   3.752   2.038  0.0614 -0.7347 -0.6366
 3941TIP3    H233315   0.636   3.681   2.070  0.3297 -0.6875  0.5971
 3942TIP3   OH233316   0.739   3.224  16.499 -0.2997  0.5838  0.2550
 3942TIP3    H133317   0.711   3.299  16.447  0.2883  0.2258 -0.6034
 3942TIP3    H233318   0.723   3.250  16.590 -0.8125  1.4428 -0.0754
 3943TIP3   OH233319   0.714   2.116  16.386  0.4695  0.0574  0.0669
 3943TIP3    H133320   0.773   2.187  16.410  1.5817 -0.5253 -0.8465
 3943TIP3    H233321   0.707   2.121  16.291 -1.4999  0.5159  0.1973
 3944TIP3   OH233322   2.027   1.848  16.296 -0.6561  0.1792 -0.4282
 3944TIP3    H133323   2.112   1.883  16.269 -0.5769 -0.3794 -0.9113
 3944TIP3    H233324   2.010   1.776  16.236 -0.6796 -0.8122  0.7315
 3945TIP3   OH233325   1.288   0.186  10.650  0.0926 -0.1649 -0.1900
 3945TIP3    H133326   1.248   0.100  10.641 -0.3098 -0.0112  0.1020
 3945TIP3    H233327   1.302   0.196  10.745  0.5266 -0.0842 -0.2592
 3946TIP3   OH233328   4.429   1.244  12.350  0.1577 -0.2697  0.1554
 3946TIP3    H133329   4.520   1.215  12.353 -0.1035 -1.0932  0.3765
 3946TIP3    H233330   4.420   1.286  12.264  0.3744 -1.4674 -0.4756
 3947TIP3   OH233331   2.195   6.764   3.914  0.1169  0.1315  0.8369
 3947TIP3    H133332   2.176   6.680   3.955  0.8302 -0.1501  0.6040
 3947TIP3    H233333   2.202   6.744   3.821 -0.0552  0.5097  0.7435
 3948TIP3   OH233334   1.494   3.541   3.916  0.4282 -0.1033 -0.6469
 3948TIP3    H133335   1.405   3.528   3.882  0.2447  0.2267 -0.3008
 3948TIP3    H233336   1.526   3.617   3.867  0.1736  0.3559 -0.1111
 3949TIP3   OH233337   3.257   4.796  16.791 -0.8255 -0.0790  0.0197
 3949TIP3    H133338   3.319   4.838  16.850 -1.2438  0.0585  0.3656
 3949TIP3    H233339   3.222   4.868  16.738 -0.5426 -0.1850 -0.3155
 3950TIP3   OH233340   4.744   2.074  13.325  0.8617 -0.1628  0.6025
 3950TIP3    H133341   4.662   2.079  13.275 -1.1603  0.3494  3.7425
 3950TIP3    H233342   4.767   1.981  13.322 -0.0324 -0.3838 -0.0368
 3951TIP3   OH233343   5.058   2.862  15.309 -0.0720  1.0741 -0.6926
 3951TIP3    H133344   4.980   2.917  15.299  0.2804  2.2458  2.1572
 3951TIP3    H233345   5.129   2.915  15.273  0.0816  2.0864  0.9989
 3952TIP3   OH233346   6.263   3.455  11.289 -0.2931  0.0319 -0.0508
 3952TIP3    H133347   6.173   3.451  11.256 -0.3236 -3.7845 -0.0053
 3952TIP3    H233348   6.267   3.388  11.357  2.7779 -0.5707 -0.6564
 3953TIP3   OH233349   2.590   4.407  13.139 -0.5438  0.0171  0.2699
 3953TIP3    H133350   2.497   4.385  13.131 -0.5641 -0.3531  1.3499
 3953TIP3    H233351   2.604   4.414  13.233  1.0147 -2.0526  0.2534
 3954TIP3   OH233352   0.125   3.442   1.017  0.0371  0.4247  0.7571
 3954TIP3    H133353   0.166   3.360   0.989  0.1750  1.5917 -2.9625
 3954TIP3    H233354   0.198   3.496   1.047  0.5335  0.4839 -0.4700
 3955TIP3   OH233355   3.470   6.637  16.912  0.9092 -0.8421 -0.0994
 3955TIP3    H133356   3.555   6.651  16.955  1.1177 -0.1749 -0.7070
 3955TIP3    H233357   3.491   6.632  16.818  0.5189 -2.7409 -0.1290
 3956TIP3   OH233358   3.157   6.033   4.808 -0.5210 -0.0509 -0.3547
 3956TIP3    H133359   3.161   5.937   4.807 -0.4474 -0.0533  0.1899
 3956TIP3    H233360   3.141   6.057   4.716  0.3983 -0.5348 -0.6499
 3957TIP3   OH233361   2.493   5.124  16.129  0.3783  0.0980  0.2139
 3957TIP3    H133362   2.583   5.156  16.136 -0.0826  1.2322  1.3140
 3957TIP3    H233363   2.461   5.161  16.046  0.8982 -0.2710 -0.1565
 3958TIP3   OH233364   2.914   0.653  12.462 -0.6607  0.1645  0.4471
 3958TIP3    H133365   2.895   0.633  12.371  1.6042 -1.3288  0.2287
 3958TIP3    H233366   2.895   0.573  12.510 -0.7046  0.5636  1.1226
 3959TIP3   OH233367   6.480   1.288   0.621 -0.5693  0.0486  0.0676
 3959TIP3    H133368   6.531   1.313   0.698  0.1308  2.0683 -0.9832
 3959TIP3    H233369   6.392   1.321   0.638 -1.0357 -1.5211  0.9334
 3960TIP3   OH233370   1.507   1.076  10.573  0.2476  0.6994  0.4067
 3960TIP3    H133371   1.437   1.068  10.638  0.3110  0.2730  0.4270
 3960TIP3    H233372   1.577   1.123  10.619  1.0540 -1.2592  1.2972
 3961TIP3   OH233373   2.453   2.963   4.816  0.9095  0.3348  0.3111
 3961TIP3    H133374   2.388   2.896   4.797  0.2537  1.0803 -0.1418
 3961TIP3    H233375   2.531   2.914   4.841  0.1580 -0.5718  0.9600
 3962TIP3   OH233376   3.804   6.547   5.040 -0.5324 -0.0605 -0.9012
 3962TIP3    H133377   3.884   6.594   5.064 -0.2430 -0.2006 -1.5884
 3962TIP3    H233378   3.734   6.600   5.077 -0.1024 -0.2683  0.2541
 3963TIP3   OH233379   1.970   1.931  15.373 -0.5280  0.9691  0.6075
 3963TIP3    H133380   1.928   1.848  15.397  0.5851  0.3779  0.6024
 3963TIP3    H233381   1.976   1.980  15.455  2.0391 -0.4819  1.4024
 3964TIP3   OH233382   6.321   0.558   3.184 -0.2515  0.4654  0.6422
 3964TIP3    H133383   6.272   0.484   3.219 -0.1249 -0.3899 -0.9151
 3964TIP3    H233384   6.279   0.635   3.223 -1.2833 -0.3539  1.2019
 3965TIP3   OH233385   1.963   5.466   3.415 -0.0646  0.1740 -0.2090
 3965TIP3    H133386   1.958   5.391   3.356  0.1748 -0.7856  0.9504
 3965TIP3    H233387   2.057   5.479   3.430 -0.1558 -0.2160  0.7265
 3966TIP3   OH233388   6.331   6.763  11.770  0.1523  0.9298 -0.2730
 3966TIP3    H133389   6.291   6.754  11.683  0.7809  2.3707 -0.7308
 3966TIP3    H233390   6.425   6.761  11.754  0.2988 -0.4669  0.5866
 3967TIP3   OH233391   5.504   0.502  13.870  0.8006  0.0723 -0.3161
 3967TIP3    H133392   5.510   0.568  13.940 -0.1393  0.3761 -0.5055
 3967TIP3    H233393   5.436   0.442  13.900  0.6220  0.0215 -0.8144
 3968TIP3   OH233394   0.989   3.707  14.956 -0.1311  0.0593 -0.0055
 3968TIP3    H133395   0.934   3.781  14.979  1.2669  0.7441  1.2559
 3968TIP3    H233396   1.070   3.720  15.005  1.0893 -1.0348 -1.6183
 3969TIP3   OH233397   3.254   0.726  11.027 -0.0538  0.2352  0.9446
 3969TIP3    H133398   3.242   0.637  11.062 -0.9513 -0.3866 -0.8310
 3969TIP3    H233399   3.168   0.767  11.037  0.2444  0.7634  1.3602
 3970TIP3   OH233400   3.251   6.147  11.588 -0.7971  0.6058 -0.5213
 3970TIP3    H133401   3.227   6.103  11.507 -0.7386 -0.6714  0.1267
 3970TIP3    H233402   3.279   6.076  11.646 -0.9984  1.4796  0.6729
 3971TIP3   OH233403   5.406   6.570  16.003  0.5289 -0.2227 -0.2237
 3971TIP3    H133404   5.321   6.532  16.026  0.5760 -0.7559 -0.8931
 3971TIP3    H233405   5.452   6.577  16.086 -0.0568 -0.2104  0.1067
 3972TIP3   OH233406   4.275   4.558  12.104  0.0191  0.3598  0.3501
 3972TIP3    H133407   4.346   4.558  12.167  0.8321  1.9373 -0.4942
 3972TIP3    H233408   4.211   4.621  12.139  0.0908  0.6198  0.0258
 3973TIP3   OH233409   3.788   3.588  13.952  0.3467 -0.3417  0.1928
 3973TIP3    H133410   3.693   3.594  13.962  0.3961 -0.2169  0.5935
 3973TIP3    H233411   3.808   3.495  13.964  0.3488 -0.2698  0.7856
 3974TIP3   OH233412   1.875   5.304  10.420 -0.0124  0.5842 -0.0850
 3974TIP3    H133413   1.798   5.289  10.365 -0.7913  1.5143  0.7178
 3974TIP3    H233414   1.892   5.219  10.462 -0.5698  0.3618 -0.3058
 3975TIP3   OH233415   2.734   1.288  16.263 -0.2787  0.0899 -0.2509
 3975TIP3    H133416   2.664   1.333  16.311 -0.8810  0.2387 -1.2314
 3975TIP3    H233417   2.802   1.355  16.251 -0.3604  0.2045 -0.0870
 3976TIP3   OH233418   0.637   5.953  12.818  0.0214 -0.1150 -0.0860
 3976TIP3    H133419   0.706   5.920  12.761  1.3763  2.5029 -0.1211
 3976TIP3    H233420   0.618   6.041  12.785 -0.5120  0.7500  2.3106
 3977TIP3   OH233421   2.209   3.526   0.476 -0.1355  0.1247 -0.2256
 3977TIP3    H133422   2.235   3.611   0.513  0.7109 -0.5706  0.8570
 3977TIP3    H233423   2.119   3.512   0.508  0.6899 -0.6196  2.0140
 3978TIP3   OH233424   5.732   3.748   6.356 -0.2074  0.3825  0.2040
 3978TIP3    H133425   5.717   3.819   6.418 -1.0365  0.7794 -0.4274
 3978TIP3    H233426   5.670   3.679   6.382  0.5441 -0.0891  0.7714
 3979TIP3   OH233427   5.253   5.912   1.615  0.2483 -0.4529  0.1066
 3979TIP3    H133428   5.162   5.924   1.641 -0.0980 -0.6592 -0.9716
 3979TIP3    H233429   5.299   5.986   1.655 -0.7270  0.7605 -0.9274
 3980TIP3   OH233430   4.932   1.564   3.119 -0.3018  0.2242  0.0105
 3980TIP3    H133431   5.013   1.612   3.103  1.5287 -3.4950 -3.8680
 3980TIP3    H233432   4.942   1.527   3.207  1.6235  0.9167  0.1166
 3981TIP3   OH233433   1.413   3.845  13.598 -0.0042  0.0291  0.1688
 3981TIP3    H133434   1.505   3.853  13.572  0.1627 -0.5043  0.5856
 3981TIP3    H233435   1.413   3.775  13.663 -1.2069 -2.5898 -2.4385
 3982TIP3   OH233436   5.538   3.331  16.047  0.0033 -0.2416 -0.1629
 3982TIP3    H133437   5.464   3.321  15.987 -1.3033  0.2778  1.2596
 3982TIP3    H233438   5.570   3.242  16.062 -1.6302 -0.7287  0.6906
 3983TIP3   OH233439   5.499   4.817   4.543 -0.1114 -0.0760 -0.3045
 3983TIP3    H133440   5.499   4.865   4.460 -1.3052  1.0414  0.2943
 3983TIP3    H233441   5.473   4.883   4.608  1.5043 -0.7315  1.0779
 3984TIP3   OH233442   5.515   4.609  13.357  0.4193 -0.1283 -0.6466
 3984TIP3    H133443   5.529   4.682  13.416 -0.6692  0.3217 -0.9308
 3984TIP3    H233444   5.518   4.531  13.413  1.0088  0.1616 -0.2629
 3985TIP3   OH233445   0.157   6.061  13.194  0.6760  0.9060  0.4095
 3985TIP3    H133446   0.193   6.030  13.277  2.0859  2.2358  0.3321
 3985TIP3    H233447   0.214   6.024  13.127 -0.7975 -0.6535 -0.0918
 3986TIP3   OH233448   5.040   4.162  15.309  0.0347  0.0592  0.3534
 3986TIP3    H133449   5.020   4.079  15.352  0.2909  0.1362  0.6259
 3986TIP3    H233450   4.961   4.214  15.318  0.5313  0.6002  1.9776
 3987TIP3   OH233451   2.923   2.872  12.007 -0.6637  0.0095 -0.2450
 3987TIP3    H133452   2.875   2.789  12.003 -0.4467 -0.1192 -0.1997
 3987TIP3    H233453   3.003   2.851  12.055 -0.9023  0.3920  0.3313
 3988TIP3   OH233454   3.712   3.335   4.873  0.2475 -0.5620  0.2354
 3988TIP3    H133455   3.686   3.246   4.897 -0.4729 -0.2501  0.6530
 3988TIP3    H233456   3.635   3.389   4.893  1.1423  0.3726  1.3728
 3989TIP3   OH233457   0.452   1.582  14.328 -0.3100  0.2477  0.1467
 3989TIP3    H133458   0.456   1.653  14.393 -0.3680  0.6375 -0.2723
 3989TIP3    H233459   0.388   1.521  14.364  0.0351  0.2067  0.7092
 3990TIP3   OH233460   6.548   1.354   5.399 -0.2485  0.9043 -0.2389
 3990TIP3    H133461   6.529   1.272   5.445 -1.0981  0.6825 -0.9439
 3990TIP3    H233462   6.490   1.418   5.440  0.5180  1.2016  0.4087
 3991TIP3   OH233463   4.713   6.797  16.023  0.0809  0.0158  0.2620
 3991TIP3    H133464   4.657   6.728  16.059  0.8985  0.5309  2.7735
 3991TIP3    H233465   4.653   6.865  15.995 -0.6813 -1.0810 -0.8627
 3992TIP3   OH233466   2.418   6.521  17.032  0.2985 -0.3784  0.1135
 3992TIP3    H133467   2.500   6.530  17.080  0.4570 -3.8956  0.8020
 3992TIP3    H233468   2.445   6.509  16.941  0.7895 -2.8281  0.5003
 3993TIP3   OH233469   3.849   2.194   1.008 -0.8909  0.1533 -0.0699
 3993TIP3    H133470   3.901   2.217   0.931  0.5199  2.1198  1.3525
 3993TIP3    H233471   3.801   2.274   1.030 -0.3914  0.0133  1.7274
 3994TIP3   OH233472   2.523   3.574  14.754  0.0456 -0.1834 -0.3343
 3994TIP3    H133473   2.618   3.583  14.763  0.0977 -0.3022 -0.7703
 3994TIP3    H233474   2.488   3.649  14.802  0.4005  0.5564 -1.1984
 3995TIP3   OH233475   6.164   4.592  12.618 -0.2385  0.3287 -0.0180
 3995TIP3    H133476   6.190   4.500  12.610 -0.1779  0.0165  2.7202
 3995TIP3    H233477   6.246   4.641  12.603 -0.4057  0.0422 -2.1597
 3996TIP3   OH233478   6.029   4.796  15.173  0.1634 -0.0208 -0.2305
 3996TIP3    H133479   5.960   4.737  15.203 -0.5197  0.3076 -1.1228
 3996TIP3    H233480   6.106   4.739  15.162 -0.1496 -0.5121  0.0942
 3997TIP3   OH233481   0.520   2.158   0.970 -0.6059  0.2778 -0.0582
 3997TIP3    H133482   0.516   2.071   0.929 -0.7756 -0.5218  1.5667
 3997TIP3    H233483   0.428   2.182   0.983 -0.5931  1.2765 -1.5872
 3998TIP3   OH233484   6.536   3.374  10.844 -0.5256  0.6083 -0.2059
 3998TIP3    H133485   6.477   3.422  10.902 -1.0187 -1.2493  0.9288
 3998TIP3    H233486   6.479   3.311  10.798  0.0775  1.1000 -1.6811
 3999TIP3   OH233487   2.142   0.010  16.318 -0.5745 -0.5539 -0.2107
 3999TIP3    H133488   2.222   0.053  16.347 -1.1228  0.1086  0.3582
 3999TIP3    H233489   2.170  -0.047  16.247  0.3190  0.0821 -0.3879
 4000TIP3   OH233490   6.622   4.703  14.715 -0.6690 -0.3092  0.1753
 4000TIP3    H133491   6.680   4.778  14.729  0.8012 -0.8450 -2.3680
 4000TIP3    H233492   6.541   4.741  14.681 -0.3197  0.2014 -0.0980
 4001TIP3   OH233493   1.455   2.175   4.007 -0.2543  0.1976  0.1585
 4001TIP3    H133494   1.537   2.209   4.043  0.4733  1.4296 -2.3858
 4001TIP3    H233495   1.468   2.176   3.912 -2.7946 -0.7386 -0.2953
 4002TIP3   OH233496   1.488   1.568  11.181 -0.5267  0.0829 -0.4460
 4002TIP3    H133497   1.536   1.591  11.260 -0.8934 -0.1890 -0.1418
 4002TIP3    H233498   1.432   1.645  11.164 -0.1816  0.2893 -0.6482
 4003TIP3   OH233499   6.851   3.600  14.611 -0.5690  0.5432 -0.0954
 4003TIP3    H133500   6.883   3.567  14.527 -0.5217  0.4842 -0.0543
 4003TIP3    H233501   6.911   3.671  14.634 -1.0748  1.1159 -0.5142
 4004TIP3   OH233502   0.030   2.316  13.318 -0.0330  0.4250  0.2378
 4004TIP3    H133503   0.085   2.378  13.270  1.5156 -0.6163  0.5579
 4004TIP3    H233504  -0.044   2.300  13.260  1.2449  0.0139 -1.3793
 4005TIP3   OH233505   1.973   3.879   3.656  0.2145  0.2073  0.2364
 4005TIP3    H133506   2.060   3.852   3.685  1.2056  2.7874 -0.0912
 4005TIP3    H233507   1.987   3.916   3.569 -1.4755 -0.5745 -0.4160
 4006TIP3   OH233508   6.282   4.732  11.780 -0.0982 -0.2658  0.0983
 4006TIP3    H133509   6.217   4.779  11.833 -0.2616 -1.4599  1.0000
 4006TIP3    H233510   6.362   4.735  11.832  0.8221  1.8021 -1.3217
 4007TIP3   OH233511   5.753   3.183   4.257  0.7930  0.4166 -0.3051
 4007TIP3    H133512   5.788   3.187   4.346 -0.1177 -1.5251  0.1738
 4007TIP3    H233513   5.692   3.111   4.258 -1.5566  2.2420 -1.7228
 4008TIP3   OH233514   2.932   1.292  13.524 -0.5146  0.1298 -0.0801
 4008TIP3    H133515   2.909   1.247  13.442  1.8564 -0.5897 -0.4234
 4008TIP3    H233516   2.849   1.305  13.569 -1.6981 -0.9095 -1.8760
 4009TIP3   OH233517   5.119   4.221   6.595  0.3384  0.3038  0.2716
 4009TIP3    H133518   5.149   4.306   6.629  0.2559  0.6231 -0.4342
 4009TIP3    H233519   5.139   4.159   6.664  0.4544  0.8943  0.7773
 4010TIP3   OH233520   1.651   3.633  12.535 -0.3790 -0.4161  0.5819
 4010TIP3    H133521   1.697   3.576  12.597 -0.7739 -0.1978  1.0746
 4010TIP3    H233522   1.561   3.602  12.537 -1.1214  1.6182  2.5364
 4011TIP3   OH233523   1.151   0.884  15.089 -0.2256 -0.9009 -0.6018
 4011TIP3    H133524   1.096   0.960  15.073 -1.2860 -1.6882 -0.8188
 4011TIP3    H233525   1.098   0.827  15.145 -0.1498 -2.2119 -1.7956
 4012TIP3   OH233526   0.607   3.184   0.530  0.6305 -0.3221 -0.2739
 4012TIP3    H133527   0.554   3.263   0.523  1.0353  0.0530  0.7189
 4012TIP3    H233528   0.559   3.118   0.480 -0.4572  0.1597  0.1169
 4013TIP3   OH233529   2.054   4.799  14.538 -0.0169 -0.1938  0.5345
 4013TIP3    H133530   2.006   4.750  14.471 -2.1989  3.6818 -1.0640
 4013TIP3    H233531   2.142   4.808  14.501 -0.7524  0.5480 -1.1669
 4014TIP3   OH233532   3.776   1.938  11.326  0.5951  0.3664  0.0177
 4014TIP3    H133533   3.716   1.982  11.266 -1.3326 -0.2669  1.3387
 4014TIP3    H233534   3.863   1.961  11.296 -0.3042  1.0180 -2.2620
 4015TIP3   OH233535   6.186   6.399   5.522 -0.6768 -0.1945  0.2548
 4015TIP3    H133536   6.242   6.402   5.600 -1.1414 -2.0618  0.6996
 4015TIP3    H233537   6.241   6.434   5.452  0.6262 -0.8326  0.9209
 4016TIP3   OH233538   5.118   3.108  13.997 -0.5498 -0.1041 -0.7716
 4016TIP3    H133539   5.156   3.187  13.958  2.6187 -1.3473 -0.4887
 4016TIP3    H233540   5.042   3.089  13.942 -1.3506  2.9836 -0.9410
 4017TIP3   OH233541   5.352   0.409   2.415  0.2303  0.1278 -0.1487
 4017TIP3    H133542   5.406   0.333   2.433 -0.8863 -0.4677  0.8304
 4017TIP3    H233543   5.402   0.483   2.449  1.2655 -0.1575 -1.0016
 4018TIP3   OH233544   0.415   4.337  11.373 -0.2174 -0.0496  0.0468
 4018TIP3    H133545   0.363   4.350  11.294 -1.4464  2.3861  1.1588
 4018TIP3    H233546   0.354   4.299  11.436  0.0525  0.4090  0.5894
 4019TIP3   OH233547   0.119   6.562   3.508 -0.2375  0.5035  0.1944
 4019TIP3    H133548   0.122   6.509   3.428 -2.1821 -2.0423  1.6448
 4019TIP3    H233549   0.069   6.640   3.484 -1.2865 -0.4822 -0.9777
 4020TIP3   OH233550   4.206   2.575  12.074 -0.3569 -1.0962 -0.2281
 4020TIP3    H133551   4.138   2.612  12.130  0.1063 -0.6365  0.0457
 4020TIP3    H233552   4.251   2.651  12.038  1.3608 -1.3425  1.2499
 4021TIP3   OH233553   4.994   5.140   3.762  0.0855 -0.1353  0.1746
 4021TIP3    H133554   5.077   5.169   3.725 -1.2202  0.3023 -2.7112
 4021TIP3    H233555   4.968   5.066   3.706 -0.9758 -0.9697  1.6959
 4022TIP3   OH233556   4.071   3.115   4.398 -0.2872 -0.0419  0.1016
 4022TIP3    H133557   3.996   3.144   4.450 -0.6956 -0.4515 -0.2393
 4022TIP3    H233558   4.044   3.029   4.364  0.7358 -0.6570  0.7894
 4023TIP3   OH233559   5.548   0.401  14.258  0.0668  0.1016  0.2103
 4023TIP3    H133560   5.473   0.342  14.269  0.4616 -0.3287  0.6606
 4023TIP3    H233561   5.602   0.360  14.191 -0.0202  0.3329 -0.0032
 4024TIP3   OH233562   3.968   6.066   5.975 -0.1789 -0.1439  0.2892
 4024TIP3    H133563   4.020   5.990   6.002 -1.2926 -0.2558  2.2767
 4024TIP3    H233564   3.952   6.115   6.056 -1.4193  0.9940 -0.5980
 4025TIP3   OH233565   4.670   0.888   2.865  0.2520 -0.0842 -0.0469
 4025TIP3    H133566   4.701   0.978   2.862 -0.4154  0.2736  1.9980
 4025TIP3    H233567   4.589   0.892   2.917  0.2836 -1.8712  0.2094
 4026TIP3   OH233568   2.446   2.110  11.784 -0.8744  0.2018 -0.2532
 4026TIP3    H133569   2.508   2.136  11.716  1.0663  0.0721  1.3751
 4026TIP3    H233570   2.366   2.089  11.736 -0.0635  1.5220 -2.3385
 4027TIP3   OH233571   5.039   5.820   1.897  0.5316  0.0306 -0.1188
 4027TIP3    H133572   5.132   5.811   1.917  0.2933  0.9755  1.5977
 4027TIP3    H233573   4.997   5.747   1.943  0.3034  0.3224  0.1396
 4028TIP3   OH233574   3.958   3.085  14.844  0.4963 -0.0696 -0.0122
 4028TIP3    H133575   4.052   3.097  14.856  0.1967  2.1614  0.4988
 4028TIP3    H233576   3.931   3.029  14.917  0.8106  2.8315  2.5397
 4029TIP3   OH233577   3.506   5.170   5.758 -0.2756 -0.8033  0.0780
 4029TIP3    H133578   3.558   5.250   5.762 -2.4676  0.6849  2.6891
 4029TIP3    H233579   3.433   5.191   5.700  0.2019 -1.6710 -0.8629
 4030TIP3   OH233580   3.053   6.334  12.920  0.0960  0.3305 -0.2211
 4030TIP3    H133581   2.994   6.281  12.867 -1.6591  0.2494  1.6989
 4030TIP3    H233582   3.068   6.283  12.999 -3.1749  3.2176  2.5821
 4031TIP3   OH233583   1.727   0.402  13.884 -0.0643  0.2068  0.8771
 4031TIP3    H133584   1.817   0.377  13.865 -0.4922 -1.2908  0.6328
 4031TIP3    H233585   1.688   0.417  13.797  0.1593  1.7082  1.0179
 4032TIP3   OH233586   5.241   1.791  14.062  0.0933  0.3580 -0.0921
 4032TIP3    H133587   5.150   1.807  14.086 -0.2423 -1.3436 -0.0940
 4032TIP3    H233588   5.292   1.840  14.126 -0.7960 -2.1683  2.7904
 4033TIP3   OH233589   3.818   2.211   2.988  0.3083 -0.1577  0.3535
 4033TIP3    H133590   3.748   2.219   2.923  0.7423 -1.1470 -0.2654
 4033TIP3    H233591   3.878   2.282   2.967  0.3394 -0.3437 -0.2007
 4034TIP3   OH233592   5.353   6.615  15.266 -0.6614 -0.2454 -0.2252
 4034TIP3    H133593   5.277   6.657  15.305  1.2313  1.7803  1.5385
 4034TIP3    H233594   5.376   6.671  15.192 -0.3726 -0.3556 -0.2209
 4035TIP3   OH233595   4.411   4.772   3.866 -0.2588  1.1310  0.0727
 4035TIP3    H133596   4.333   4.753   3.918  0.5693  0.1608  1.0205
 4035TIP3    H233597   4.418   4.699   3.805 -0.0098  1.1240  0.1071
 4036TIP3   OH233598   4.826   6.741  12.835 -0.5859  0.3171  0.6277
 4036TIP3    H133599   4.740   6.776  12.858 -0.1887  1.4885  0.3675
 4036TIP3    H233600   4.807   6.673  12.769 -1.4032 -0.3806  1.5523
 4037TIP3   OH233601   3.802   0.928  16.451  1.1471 -0.0181  0.0061
 4037TIP3    H133602   3.784   1.022  16.446 -1.7763 -0.4992 -0.1156
 4037TIP3    H233603   3.780   0.894  16.364  0.7345 -0.9974  0.4719
 4038TIP3   OH233604   4.080   1.160   2.907  0.2318 -0.6192  0.0812
 4038TIP3    H133605   4.063   1.246   2.870 -1.2195 -1.0079 -0.2327
 4038TIP3    H233606   4.170   1.140   2.882  0.9078  1.1501  0.9109
 4039TIP3   OH233607   4.897   4.492  15.211  0.3192 -0.4950 -0.2579
 4039TIP3    H133608   4.991   4.488  15.229  0.2379 -1.4623 -0.0211
 4039TIP3    H233609   4.871   4.577  15.247  0.8237 -0.8798  1.0829
 4040TIP3   OH233610   5.996   6.339  11.383  0.0618 -0.2366 -0.5181
 4040TIP3    H133611   6.028   6.275  11.320 -1.5395 -0.9501 -0.6550
 4040TIP3    H233612   5.983   6.289  11.464  0.6204  0.3340 -0.0680
 4041TIP3   OH233613   0.515   2.884  11.705 -0.0717 -0.5913  0.2097
 4041TIP3    H133614   0.484   2.954  11.762 -0.1621 -0.2746 -0.2258
 4041TIP3    H233615   0.596   2.918  11.666 -0.5380 -0.4055 -0.6163
 4042TIP3   OH233616   6.047   5.582   5.626 -0.2497  0.4641 -0.0614
 4042TIP3    H133617   6.028   5.675   5.611 -0.9290  0.1468 -1.4199
 4042TIP3    H233618   5.966   5.548   5.664 -0.0115  0.4129  0.4048
 4043TIP3   OH233619   2.379   0.642   2.164  0.1185 -0.3404  0.3527
 4043TIP3    H133620   2.356   0.550   2.178  1.8443 -0.5739  2.1818
 4043TIP3    H233621   2.298   0.690   2.179 -0.6521 -1.5128  0.0517
 4044TIP3   OH233622   0.849   1.112   1.295 -0.3037 -0.3448 -0.5958
 4044TIP3    H133623   0.910   1.179   1.326 -1.2165  0.8835 -1.3533
 4044TIP3    H233624   0.762   1.149   1.312 -0.8207 -1.0508 -1.6051
 4045TIP3   OH233625   4.929   2.452  13.289 -0.2531 -0.6753 -0.0876
 4045TIP3    H133626   4.868   2.472  13.218 -2.0751 -0.7596  1.3566
 4045TIP3    H233627   4.957   2.537  13.321 -0.7303 -0.5957  0.1294
 4046TIP3   OH233628   2.899   6.386  12.494 -0.3093 -0.4661 -0.1444
 4046TIP3    H133629   2.806   6.395  12.474 -0.0804  0.4285 -0.8354
 4046TIP3    H233630   2.942   6.453  12.441  0.9021 -1.9394 -1.1074
 4047TIP3   OH233631   4.908   6.635  15.145 -0.1415 -0.2117 -0.2866
 4047TIP3    H133632   4.927   6.709  15.088  2.2441 -0.2383  0.3287
 4047TIP3    H233633   4.832   6.593  15.106  0.6682  0.4488 -2.7815
 4048TIP3   OH233634   3.628   6.290   2.732 -0.1763 -0.3101 -0.4591
 4048TIP3    H133635   3.717   6.294   2.696  0.0080  0.7249  0.0724
 4048TIP3    H233636   3.597   6.203   2.709  1.3013 -1.0180  0.1092
 4049TIP3   OH233637   0.692   0.695   5.212 -0.3773 -0.3967 -0.3235
 4049TIP3    H133638   0.606   0.659   5.233 -0.2782 -0.0807  0.6724
 4049TIP3    H233639   0.753   0.643   5.265 -0.1267  0.4806  0.2692
 4050TIP3   OH233640   0.333   1.769   4.070 -0.2680 -0.1668  0.5314
 4050TIP3    H133641   0.253   1.803   4.030 -0.1555 -0.0112  0.4387
 4050TIP3    H233642   0.350   1.687   4.024  0.2403  0.3459 -0.2201
 4051TIP3   OH233643   1.562   1.793   0.574  0.8612  0.1154 -0.0460
 4051TIP3    H133644   1.576   1.751   0.658  2.3847 -3.0680 -1.7436
 4051TIP3    H233645   1.467   1.789   0.561  0.7893 -1.0886  0.6996
 4052TIP3   OH233646   2.398   5.069  11.925 -0.4157  0.8626 -0.3138
 4052TIP3    H133647   2.370   4.980  11.905 -1.3728  0.7158  1.4872
 4052TIP3    H233648   2.455   5.060  12.002 -0.2795  1.7800 -0.2869
 4053TIP3   OH233649   0.042   5.074  16.155 -0.5242 -0.4201 -0.0007
 4053TIP3    H133650   0.072   5.028  16.077  0.6122  0.7635 -0.2911
 4053TIP3    H233651  -0.032   5.126  16.125  0.9399  1.3457 -0.7513
 4054TIP3   OH233652   1.707   0.255   1.454  0.0864 -0.0284  0.4219
 4054TIP3    H133653   1.742   0.341   1.478 -0.8174  0.4215  0.1989
 4054TIP3    H233654   1.694   0.210   1.537 -1.5992  0.9436  0.7299
 4055TIP3   OH233655   0.552   0.812   2.864 -0.3178  0.1291  0.2236
 4055TIP3    H133656   0.558   0.864   2.784 -0.0177 -1.2950 -0.7149
 4055TIP3    H233657   0.572   0.722   2.836  4.5241  0.1462  2.6158
 4056TIP3   OH233658   5.851   5.064   0.569 -0.0593  0.5039 -0.3630
 4056TIP3    H133659   5.926   5.123   0.580 -1.0664  1.5381  1.4249
 4056TIP3    H233660   5.778   5.111   0.609 -1.7242 -0.3956 -2.2334
 4057TIP3   OH233661   1.641   0.242  10.693 -0.3920  0.2539 -0.4651
 4057TIP3    H133662   1.564   0.272  10.643  0.5937 -0.2688 -2.3966
 4057TIP3    H233663   1.691   0.189  10.630  0.6690 -0.8838  1.2640
 4058TIP3   OH233664   2.865   5.170   3.724  0.4591 -0.2761 -0.2933
 4058TIP3    H133665   2.940   5.115   3.745  1.3293  1.4349  1.3829
 4058TIP3    H233666   2.795   5.138   3.781  1.5483  1.5069  2.2529
 4059TIP3   OH233667   5.212   6.630  11.765  0.3050  0.3098 -0.1864
 4059TIP3    H133668   5.166   6.596  11.689  1.4611 -0.1842 -0.6920
 4059TIP3    H233669   5.274   6.561  11.789 -0.6019  0.0878  1.7381
 4060TIP3   OH233670   3.814   6.320  15.223  0.2854  0.5699 -0.6845
 4060TIP3    H133671   3.884   6.377  15.193 -0.3221  1.5840 -0.2342
 4060TIP3    H233672   3.855   6.234  15.233  1.5923  1.2580  0.1004
 4061TIP3   OH233673   1.498   0.840   0.082 -0.3645 -0.3865  0.5606
 4061TIP3    H133674   1.560   0.869   0.148  0.5530  0.1756 -0.4982
 4061TIP3    H233675   1.505   0.745   0.081 -0.5577 -0.4104  1.4203
 4062TIP3   OH233676   2.972   5.869   6.188  0.3436  0.1987  0.6119
 4062TIP3    H133677   3.025   5.790   6.184  0.9718  0.6231  0.1957
 4062TIP3    H233678   2.882   5.838   6.193  0.5896 -0.5372  0.6258
 4063TIP3   OH233679   1.461   1.815   3.962 -0.2539  0.0734  0.0222
 4063TIP3    H133680   1.402   1.879   4.002 -0.5976  0.0817 -0.4843
 4063TIP3    H233681   1.497   1.860   3.886  0.4523  0.0844  0.3638
 4064TIP3   OH233682   3.536   6.856   0.559  0.6118  0.1802  0.7422
 4064TIP3    H133683   3.600   6.893   0.498  0.2769  0.7893  0.7518
 4064TIP3    H233684   3.463   6.918   0.558 -0.7341 -1.3464 -0.5271
 4065TIP3   OH233685   6.642   2.310  12.189 -0.1794 -0.2397  0.0484
 4065TIP3    H133686   6.640   2.228  12.237 -1.6028 -0.4986 -0.4118
 4065TIP3    H233687   6.735   2.323  12.168 -0.0408 -2.2747 -0.8147
 4066TIP3   OH233688   3.315   2.768  12.374  0.6475 -0.4358  0.2144
 4066TIP3    H133689   3.226   2.800  12.387  0.3024 -0.3552 -1.9035
 4066TIP3    H233690   3.367   2.847  12.358  1.1646 -0.4680  1.5906
 4067TIP3   OH233691   3.336   4.183  10.640  1.0569  0.1228 -0.8653
 4067TIP3    H133692   3.258   4.128  10.643  0.2102  1.1847  2.6813
 4067TIP3    H233693   3.406   4.126  10.609 -0.4310 -1.9236 -0.6183
 4068TIP3   OH233694   4.480   3.713  15.968 -0.1872  0.1728 -0.1337
 4068TIP3    H133695   4.400   3.676  15.930 -0.0122  0.6032 -0.9361
 4068TIP3    H233696   4.449   3.769  16.039 -0.4256 -2.1063  1.6870
 4069TIP3   OH233697   6.094   1.202  12.028  0.0910  0.4220  0.3758
 4069TIP3    H133698   6.076   1.208  11.934 -2.0121 -0.1567  0.6804
 4069TIP3    H233699   6.010   1.179  12.067  0.7818  1.1987  2.4835
 4070TIP3   OH233700   4.688   6.361   5.921 -0.0874 -0.2409  1.0790
 4070TIP3    H133701   4.741   6.291   5.958 -0.8677 -0.1990  2.3214
 4070TIP3    H233702   4.732   6.442   5.948 -1.1773 -0.1845  2.8002
 4071TIP3   OH233703   2.822   3.683   5.367  0.7414 -0.3372 -0.3504
 4071TIP3    H133704   2.738   3.712   5.402  0.7673 -0.7830  0.0948
 4071TIP3    H233705   2.839   3.600   5.412  1.5545 -0.1062 -0.2247
 4072TIP3   OH233706   5.966   0.364  15.602  0.0088 -0.3170  0.0964
 4072TIP3    H133707   5.927   0.299  15.544 -1.4296  1.2571 -0.7856
 4072TIP3    H233708   5.896   0.427  15.620  1.3940  1.1599  0.6920
 4073TIP3   OH233709   0.166   1.338  14.389 -0.2334  0.3295  0.0094
 4073TIP3    H133710   0.089   1.284  14.404  0.5952 -0.3996  1.8150
 4073TIP3    H233711   0.223   1.285  14.334  0.3773 -0.5028  1.3978
 4074TIP3   OH233712   0.439   0.267  12.170  0.8280 -0.9625 -0.2358
 4074TIP3    H133713   0.368   0.311  12.218  0.5981  0.1014 -1.4953
 4074TIP3    H233714   0.507   0.253  12.236 -0.2177 -1.2825  0.8208
 4075TIP3   OH233715   5.448   6.005  14.648  0.7930 -0.3640  0.0289
 4075TIP3    H133716   5.362   6.029  14.682 -0.2463 -0.1219 -2.4927
 4075TIP3    H233717   5.472   6.077  14.590  1.9444 -1.1588 -0.5349
 4076TIP3   OH233718   4.834   2.806   0.488  0.1787 -0.1162 -0.5729
 4076TIP3    H133719   4.826   2.878   0.550 -0.7789  0.2454 -1.0967
 4076TIP3    H233720   4.763   2.746   0.512  1.1743 -1.0720  0.0736
 4077TIP3   OH233721   0.635   4.525   3.289 -0.3854  0.0784  0.2299
 4077TIP3    H133722   0.596   4.561   3.369 -0.8467  0.7013 -0.2661
 4077TIP3    H233723   0.690   4.595   3.255  1.0586 -0.7303  0.8167
 4078TIP3   OH233724   1.884   1.778  15.066 -0.0488  0.6641 -0.3773
 4078TIP3    H133725   1.865   1.741  15.153 -1.0370  1.2746 -0.3218
 4078TIP3    H233726   1.832   1.725  15.006  1.8473 -0.8133 -0.8379
 4079TIP3   OH233727   4.016   6.557   5.429  0.1814  0.4291 -0.4841
 4079TIP3    H133728   3.963   6.486   5.395  1.3583  0.2071 -1.9690
 4079TIP3    H233729   3.955   6.630   5.441 -0.7335 -0.3124 -0.5726
 4080TIP3   OH233730   2.520   1.622  10.932 -0.1888 -0.6853  0.3075
 4080TIP3    H133731   2.436   1.596  10.894 -1.1547  3.3670 -0.7608
 4080TIP3    H233732   2.524   1.576  11.016 -2.0011 -3.2632 -0.8616
 4081TIP3   OH233733   1.203   2.186   0.289 -0.4670  0.7218 -0.7555
 4081TIP3    H133734   1.278   2.145   0.244 -0.6423  0.0102 -0.4098
 4081TIP3    H233735   1.201   2.275   0.254  2.9567  2.1347  1.9891
 4082TIP3   OH233736   0.689   0.914  17.001 -0.0464 -0.3467  0.0043
 4082TIP3    H133737   0.678   1.006  17.026  1.3932  0.1029 -0.9421
 4082TIP3    H233738   0.732   0.917  16.916 -1.6516 -1.8976 -0.9318
 4083TIP3   OH233739   3.120   5.131   3.613  0.0150 -0.3111 -0.5585
 4083TIP3    H133740   3.147   5.194   3.547  0.9915  0.8943  0.9458
 4083TIP3    H233741   3.093   5.054   3.562  0.2212  0.7470 -2.3625
 4084TIP3   OH233742   6.481   4.098   6.975 -0.2116 -0.4334 -0.1727
 4084TIP3    H133743   6.444   4.116   7.061 -0.3656  0.5818 -0.4438
 4084TIP3    H233744   6.506   4.183   6.940  2.3513 -1.0566 -0.0404
 4085TIP3   OH233745   0.259   5.176   4.296  0.6111  0.3456  0.2683
 4085TIP3    H133746   0.186   5.232   4.268 -0.3722 -1.4800 -1.0728
 4085TIP3    H233747   0.220   5.117   4.360  1.4249  0.5958  1.0123
 4086TIP3   OH233748   2.347   6.679   4.563 -0.8775 -0.1807  0.4975
 4086TIP3    H133749   2.440   6.659   4.561 -0.2750  1.4622  4.2400
 4086TIP3    H233750   2.311   6.622   4.631 -2.4462 -0.1136 -0.2187
 4087TIP3   OH233751   3.386   2.422  14.996 -0.1599  0.2396  0.1965
 4087TIP3    H133752   3.369   2.457  15.084 -0.4899  0.2838  0.1165
 4087TIP3    H233753   3.475   2.387  15.001  0.5426  1.9267  0.0081
 4088TIP3   OH233754   6.183   4.028  12.899  0.0985 -0.2739  0.2969
 4088TIP3    H133755   6.221   3.946  12.930  0.9085  0.4693  1.3037
 4088TIP3    H233756   6.242   4.056  12.829  0.4724  0.0377  0.7365
 4089TIP3   OH233757   4.688   1.727   5.613  0.3202  0.0299  0.0199
 4089TIP3    H133758   4.698   1.671   5.689  1.3309  0.4704  0.2360
 4089TIP3    H233759   4.594   1.727   5.594  0.2720 -1.5400  0.1368
 4090TIP3   OH233760   4.597   0.518   1.909  0.3762  0.1914  0.0541
 4090TIP3    H133761   4.561   0.525   1.821 -2.2302 -2.9836  0.6570
 4090TIP3    H233762   4.632   0.429   1.914  0.6931  0.3729  2.1124
 4091TIP3   OH233763   4.051   1.362   1.247  0.1310  0.1091 -0.6421
 4091TIP3    H133764   4.142   1.377   1.274 -0.2898  0.4579  0.6318
 4091TIP3    H233765   4.009   1.447   1.260 -1.0300 -0.7352  1.5071
 4092TIP3   OH233766   2.709   0.479  11.954 -0.0863 -0.1144  0.6544
 4092TIP3    H133767   2.643   0.548  11.965  0.1000  0.3538 -0.9198
 4092TIP3    H233768   2.661   0.398  11.968 -0.0166  0.2777  4.0389
 4093TIP3   OH233769   6.179   2.475  13.265  0.4628 -0.4624 -0.0161
 4093TIP3    H133770   6.150   2.489  13.175 -1.4834 -0.9480  0.4782
 4093TIP3    H233771   6.163   2.559  13.308 -0.1767 -0.7021  0.2343
 4094TIP3   OH233772   1.407   0.442  15.632  0.1437 -0.1527  0.0159
 4094TIP3    H133773   1.377   0.377  15.696  0.6120  0.2559  0.6674
 4094TIP3    H233774   1.405   0.396  15.548 -1.2507 -0.4482  0.2003
 4095TIP3   OH233775   5.533   5.977   3.369  0.1034  0.2824  0.3750
 4095TIP3    H133776   5.615   5.958   3.323  0.3281 -1.0673  1.2582
 4095TIP3    H233777   5.478   5.900   3.352 -0.1350  0.1560  1.5993
 4096TIP3   OH233778   4.653   6.037   1.212  0.0894  0.1876 -0.3258
 4096TIP3    H133779   4.624   6.120   1.175  0.2727 -0.0688 -1.0584
 4096TIP3    H233780   4.622   6.039   1.303  0.1861  1.0995 -0.3041
 4097TIP3   OH233781   0.011   2.635   2.353  1.0667  0.5394 -0.0845
 4097TIP3    H133782  -0.065   2.614   2.300  0.6921  1.3772  0.1083
 4097TIP3    H233783  -0.024   2.652   2.441  1.5204  0.5225  0.1048
 4098TIP3   OH233784   2.799   0.434   2.049  0.1553  0.3560 -0.0091
 4098TIP3    H133785   2.886   0.399   2.067 -0.3050 -0.2601  1.0639
 4098TIP3    H233786   2.804   0.526   2.077  1.2906  1.1850 -2.6124
 4099TIP3   OH233787   5.013   1.767   5.700  0.0894 -0.3049  0.5126
 4099TIP3    H133788   5.007   1.849   5.750 -1.8036 -1.9367  3.2584
 4099TIP3    H233789   4.969   1.786   5.618 -0.2178  1.4685  1.0359
 4100TIP3   OH233790   2.170   4.499  15.533 -0.5010 -0.4323 -0.5036
 4100TIP3    H133791   2.144   4.539  15.616  1.0061 -1.1045  0.3380
 4100TIP3    H233792   2.127   4.552  15.466 -2.6436 -0.5290  0.7170
 4101TIP3   OH233793   3.778   5.671  14.790 -0.2322  0.4936  0.1664
 4101TIP3    H133794   3.835   5.712  14.856  1.5230 -0.9762 -0.3319
 4101TIP3    H233795   3.794   5.577  14.800 -0.8311  0.1666 -1.5462
 4102TIP3   OH233796   2.177   1.968   0.588 -0.3438 -0.3361 -0.4890
 4102TIP3    H133797   2.241   2.020   0.540  0.1762  1.0154  1.5492
 4102TIP3    H233798   2.212   1.879   0.586  0.8242  0.1173 -0.6568
 4103TIP3   OH233799   0.709   0.741  13.079  0.2449  0.1901 -0.2589
 4103TIP3    H133800   0.760   0.677  13.029  1.1359  2.2409 -2.1085
 4103TIP3    H233801   0.634   0.761  13.022 -0.2481  0.4963  0.4849
 4104TIP3   OH233802   4.263   3.295   2.010  0.0544 -0.0303  0.1445
 4104TIP3    H133803   4.231   3.216   2.053 -1.3435 -0.9171 -2.3412
 4104TIP3    H233804   4.185   3.337   1.975  1.0459  0.9185 -1.0230
 4105TIP3   OH233805   4.610   3.329  11.453  0.0784 -0.5728 -0.0483
 4105TIP3    H133806   4.519   3.302  11.451  0.7314 -3.1327  1.3821
 4105TIP3    H233807   4.644   3.303  11.367 -0.4395  0.1491 -0.4850
 4106TIP3   OH233808   1.606   0.521   6.216  0.6674  0.8517 -0.1766
 4106TIP3    H133809   1.530   0.579   6.215 -0.2662 -0.3342 -0.5545
 4106TIP3    H233810   1.678   0.574   6.182  0.0114  1.9955  0.1812
 4107TIP3   OH233811   6.305   3.628   1.771  0.2640 -0.4448  0.4827
 4107TIP3    H133812   6.271   3.717   1.773  0.4983 -0.2755 -1.5690
 4107TIP3    H233813   6.399   3.637   1.781  0.3995 -0.3626 -0.7780
 4108TIP3   OH233814   3.561   0.236  13.740 -0.4256  0.1781  0.4241
 4108TIP3    H133815   3.584   0.234  13.833  1.5680 -0.4397 -0.0398
 4108TIP3    H233816   3.547   0.145  13.716 -0.9638  0.3367  0.1045
 4109TIP3   OH233817   3.579   2.852  16.424 -0.6989 -0.2342  0.3209
 4109TIP3    H133818   3.553   2.831  16.334 -0.3401  0.0493  0.1478
 4109TIP3    H233819   3.579   2.947  16.428  0.9732 -0.1980  0.1001
 4110TIP3   OH233820   4.217   4.177  11.685  0.0073 -0.5465 -0.6566
 4110TIP3    H133821   4.251   4.265  11.703 -0.3481 -0.4898 -0.2500
 4110TIP3    H233822   4.259   4.151  11.603  1.0789 -0.4969 -0.1406
 4111TIP3   OH233823   5.857   1.554   0.337  0.0039  0.1206 -0.3200
 4111TIP3    H133824   5.838   1.562   0.244  2.1842  1.7020 -0.6935
 4111TIP3    H233825   5.943   1.513   0.341  0.6093  1.4330  0.9350
 4112TIP3   OH233826   6.618   6.061  12.498  0.1046  0.5646  0.0658
 4112TIP3    H133827   6.647   6.044  12.587  0.3599 -0.4595 -0.1964
 4112TIP3    H233828   6.525   6.036  12.498  0.3265 -0.3260 -0.1619
 4113TIP3   OH233829   4.239   1.321  15.937 -0.7093  0.2734 -0.0297
 4113TIP3    H133830   4.205   1.232  15.934  0.7479 -0.3169 -0.0806
 4113TIP3    H233831   4.185   1.370  15.875 -1.3350 -0.6444 -0.2302
 4114TIP3   OH233832   2.031   4.664  17.031  0.0871  0.2636  0.3090
 4114TIP3    H133833   1.967   4.685  16.962  0.5496  0.2139 -0.1399
 4114TIP3    H233834   2.010   4.575  17.057 -0.1868  0.3357  0.3392
 4115TIP3   OH233835   2.012   0.128   3.894 -0.0112 -0.4082 -0.2404
 4115TIP3    H133836   2.073   0.056   3.880 -1.0626 -1.2920 -0.4421
 4115TIP3    H233837   1.991   0.124   3.988  1.2442  0.7488  0.1207
 4116TIP3   OH233838   4.620   1.175   5.114 -0.4352  0.0580 -0.4692
 4116TIP3    H133839   4.629   1.231   5.191  2.4148  1.0998 -1.4434
 4116TIP3    H233840   4.649   1.089   5.143  0.5592  0.4313 -0.3337
 4117TIP3   OH233841   4.957   1.207  11.569 -0.4026  0.3062 -0.6426
 4117TIP3    H133842   5.001   1.160  11.498 -0.5724  0.3811 -0.7992
 4117TIP3    H233843   4.867   1.174  11.567  0.3091 -2.0483  1.5589
 4118TIP3   OH233844   0.593   2.070  14.844 -0.1212 -0.0423 -0.0903
 4118TIP3    H133845   0.621   2.019  14.920 -1.1863  2.6986  2.3428
 4118TIP3    H233846   0.497   2.066  14.847 -0.1832 -0.2610 -1.6290
 4119TIP3   OH233847   0.184   5.667   1.469  0.1909 -0.1858  0.6106
 4119TIP3    H133848   0.202   5.575   1.491  1.9341  0.0354  0.2271
 4119TIP3    H233849   0.253   5.717   1.513 -1.0249  1.0078  1.2184
 4120TIP3   OH233850   2.962   3.677  13.099  0.3932  0.2670  0.4766
 4120TIP3    H133851   2.891   3.669  13.163  0.8794 -0.9220  0.9136
 4120TIP3    H233852   2.971   3.771  13.084 -1.4391  0.4303  0.1912
 4121TIP3   OH233853   6.466   6.537   5.598 -0.7865 -0.2664 -0.2514
 4121TIP3    H133854   6.534   6.515   5.534 -1.5286  0.5776 -1.3597
 4121TIP3    H233855   6.513   6.583   5.667 -0.1618 -0.0482 -0.8040
 4122TIP3   OH233856   2.371   6.819   0.093 -0.2322  0.2824  0.0603
 4122TIP3    H133857   2.460   6.813   0.129 -0.1416 -2.1833 -0.3754
 4122TIP3    H233858   2.325   6.744   0.131 -1.9984  1.2280 -0.1145
 4123TIP3   OH233859   3.814   4.162   0.609 -0.4279 -0.1307 -0.3092
 4123TIP3    H133860   3.768   4.197   0.532 -0.3317 -0.1381 -0.3711
 4123TIP3    H233861   3.752   4.102   0.649 -0.6268  0.1748 -0.1555
 4124TIP3   OH233862   4.095   2.525   6.634 -0.2708 -0.1609  0.2509
 4124TIP3    H133863   4.152   2.574   6.692 -1.6305  2.1919 -0.2669
 4124TIP3    H233864   4.012   2.519   6.681 -0.1048 -2.2096  0.3719
 4125TIP3   OH233865   0.412   3.445   2.889 -0.2208  0.1547 -0.5257
 4125TIP3    H133866   0.503   3.445   2.856  0.2677 -0.8500  0.7368
 4125TIP3    H233867   0.360   3.423   2.812  0.3264  2.8833 -1.8175
 4126TIP3   OH233868   4.837   6.016   3.296 -0.6254  0.0574 -0.1318
 4126TIP3    H133869   4.904   6.081   3.318 -1.2488  0.4930  0.5517
 4126TIP3    H233870   4.881   5.954   3.238  0.6585 -0.2420  1.1144
 4127TIP3   OH233871   5.873   4.699   2.632 -0.4112 -1.0064 -0.1345
 4127TIP3    H133872   5.883   4.750   2.552  1.8026  3.0814  2.4095
 4127TIP3    H233873   5.806   4.745   2.682 -0.1399 -2.0867  1.2978
 4128TIP3   OH233874   1.155   6.604  12.091 -0.3906  0.2443 -0.0225
 4128TIP3    H133875   1.223   6.618  12.157  0.6757  0.7146 -1.1928
 4128TIP3    H233876   1.108   6.687  12.087  2.8286  2.1655 -3.4538
 4129TIP3   OH233877   4.768   3.141   4.394  0.1967  0.6063  0.1543
 4129TIP3    H133878   4.718   3.159   4.474  0.4528 -0.4590  0.5620
 4129TIP3    H233879   4.859   3.160   4.418  0.4536 -0.9824  0.5419
 4130TIP3   OH233880   3.455   2.602   4.470  0.2352 -0.2250 -0.1367
 4130TIP3    H133881   3.370   2.638   4.496  1.1127 -0.0311  2.7330
 4130TIP3    H233882   3.475   2.646   4.387 -1.1960  1.7725  0.5148
 4131TIP3   OH233883   4.195   4.231   3.167 -0.2983 -0.7827 -0.0269
 4131TIP3    H133884   4.173   4.154   3.115 -0.1679 -0.8191 -0.0286
 4131TIP3    H233885   4.287   4.220   3.188 -0.0521 -0.2012 -0.7580
 4132TIP3   OH233886   1.594   0.883  16.612  0.5233  0.1334 -0.6350
 4132TIP3    H133887   1.655   0.954  16.633  2.0263 -0.7797 -1.6963
 4132TIP3    H233888   1.621   0.811  16.669  0.4031 -0.2611 -1.0760
 4133TIP3   OH233889   3.562   2.587   2.394  0.2541  0.3565  0.0938
 4133TIP3    H133890   3.472   2.617   2.404  0.3097  0.3183  0.8126
 4133TIP3    H233891   3.599   2.643   2.326 -0.2063  0.6242  0.0633
 4134TIP3   OH233892   1.725   2.627  10.828 -0.0782 -0.2417  0.2080
 4134TIP3    H133893   1.665   2.687  10.784  0.0997 -0.3496 -0.1855
 4134TIP3    H233894   1.696   2.540  10.800 -0.2638 -0.3373  0.6834
 4135TIP3   OH233895   2.606   3.059   0.002  0.0096  0.1824  0.2841
 4135TIP3    H133896   2.588   3.152  -0.006 -1.0221  0.0362  0.7157
 4135TIP3    H233897   2.522   3.016  -0.015  0.0378 -0.5730  1.8215
 4136TIP3   OH233898   2.101   5.689  15.675  0.0923 -0.4058 -0.3167
 4136TIP3    H133899   2.011   5.668  15.700 -0.0898 -0.6527 -1.1376
 4136TIP3    H233900   2.138   5.734  15.751 -0.6560 -0.4980  0.1069
 4137TIP3   OH233901   2.162   1.729   1.532  0.1857 -0.4584  0.4836
 4137TIP3    H133902   2.158   1.644   1.576 -1.5406 -0.4521  0.4371
 4137TIP3    H233903   2.112   1.788   1.590 -1.2750 -0.2154 -0.9556
 4138TIP3   OH233904   4.315   6.856   3.532 -0.1514  0.4871  0.1425
 4138TIP3    H133905   4.254   6.783   3.541  0.7042 -0.2899 -0.2122
 4138TIP3    H233906   4.354   6.866   3.619  0.0697  0.2124  0.0758
 4139TIP3   OH233907   3.618   0.486  12.195  0.0438  0.5266 -0.1181
 4139TIP3    H133908   3.619   0.582  12.186  1.9735  0.5897  0.4261
 4139TIP3    H233909   3.563   0.470  12.272 -0.9226  1.1290 -0.6612
 4140TIP3   OH233910   5.253   3.938   4.221  0.4259 -0.6779  0.1052
 4140TIP3    H133911   5.259   3.865   4.282  2.4929  0.7130  1.6876
 4140TIP3    H233912   5.307   3.911   4.146  1.0264 -0.8431  0.5957
 4141TIP3   OH233913   5.920   5.176   3.416  0.0087  0.6290 -0.3544
 4141TIP3    H133914   5.878   5.261   3.424 -2.3154 -0.4090 -0.5301
 4141TIP3    H233915   5.977   5.184   3.340 -0.1685  2.0259 -0.3556
 4142TIP3   OH233916   0.118   6.477  10.875 -0.4607  0.1973 -0.8516
 4142TIP3    H133917   0.121   6.399  10.931  1.2066  0.8218  0.0017
 4142TIP3    H233918   0.130   6.443  10.786  1.2346 -0.4598 -0.4031
 4143TIP3   OH233919   5.880   3.732   1.717 -0.4292  0.2424 -0.1052
 4143TIP3    H133920   5.922   3.716   1.802 -2.8124  3.1169  1.8128
 4143TIP3    H233921   5.933   3.800   1.677 -1.0130  1.0957  0.5404
 4144TIP3   OH233922   6.322   0.653  10.542  0.0418 -0.8778  0.0553
 4144TIP3    H133923   6.336   0.747  10.553  1.7038 -1.0105 -0.5441
 4144TIP3    H233924   6.230   0.645  10.519  0.1299  0.7234 -1.0245
 4145TIP3   OH233925   3.647   2.687  16.776 -0.5695 -0.4973  0.3962
 4145TIP3    H133926   3.602   2.643  16.705 -1.6872 -0.9020  1.3188
 4145TIP3    H233927   3.647   2.624  16.848  0.9972 -0.2980  0.6080
 4146TIP3   OH233928   3.534   4.740   5.390  0.6808  0.1616  0.2004
 4146TIP3    H133929   3.511   4.651   5.364 -0.7003 -0.0706  2.0129
 4146TIP3    H233930   3.627   4.735   5.413  0.7835 -0.6380 -0.3497
 4147TIP3   OH233931   3.092   5.117  16.331  0.4192  0.7514 -0.0992
 4147TIP3    H133932   3.048   5.089  16.411  1.1762  0.6006  0.2701
 4147TIP3    H233933   3.028   5.173  16.287 -1.0938 -1.3820 -0.7927
 4148TIP3   OH233934   3.792   2.825  16.584 -0.2663  0.4059  0.9514
 4148TIP3    H133935   3.715   2.833  16.528  0.4787 -3.0918 -0.8784
 4148TIP3    H233936   3.760   2.783  16.663 -0.1466 -3.1264 -0.6773
 4149TIP3   OH233937   2.585   6.687   0.458 -0.3488 -0.3823  0.6764
 4149TIP3    H133938   2.619   6.665   0.372  1.2929 -2.3980  1.7602
 4149TIP3    H233939   2.499   6.646   0.461 -1.5855  1.8923 -0.8593
 4150TIP3   OH233940   4.057   0.946   6.157 -0.4194  0.4871  0.8723
 4150TIP3    H133941   4.013   0.962   6.240  0.2693 -0.7068  1.4856
 4150TIP3    H233942   4.150   0.943   6.179 -0.3539 -2.2423  0.5088
 4151TIP3   OH233943   3.463   4.346   1.256 -0.7452 -0.6715  0.1072
 4151TIP3    H133944   3.454   4.380   1.345  0.2756  0.6980 -0.2842
 4151TIP3    H233945   3.543   4.386   1.222 -0.4588 -2.1200 -1.0208
 4152TIP3   OH233946   2.153   3.525   4.873  0.5322 -0.0422  0.9533
 4152TIP3    H133947   2.092   3.595   4.895  0.2271  0.0205 -0.0837
 4152TIP3    H233948   2.240   3.563   4.890  0.4331  1.0053 -0.6852
 4153TIP3   OH233949   2.940   2.358  13.155 -0.7228  0.0325 -0.2767
 4153TIP3    H133950   2.855   2.313  13.151 -0.3469 -1.0039  1.8307
 4153TIP3    H233951   2.970   2.361  13.065 -1.9766 -1.6370 -0.8003
 4154TIP3   OH233952   1.466   3.746   2.316  0.0969 -0.5318 -0.2692
 4154TIP3    H133953   1.423   3.662   2.332  0.8276 -1.6057 -3.3191
 4154TIP3    H233954   1.503   3.769   2.401 -0.3582 -3.1605  0.7617
 4155TIP3   OH233955   1.703   5.618  14.610 -0.8638 -0.5088  0.2328
 4155TIP3    H133956   1.698   5.654  14.698  1.9503  0.2111  0.1792
 4155TIP3    H233957   1.745   5.686  14.558  0.2375 -2.0215 -0.9620
 4156TIP3   OH233958   4.990   6.670  13.446 -0.0107  0.1174 -0.8362
 4156TIP3    H133959   4.954   6.602  13.503  0.3238 -1.4408 -2.3752
 4156TIP3    H233960   5.004   6.625  13.362  3.3463  1.1746 -0.9949
 4157TIP3   OH233961   0.543   5.073   6.428  0.2748  0.3280  0.0519
 4157TIP3    H133962   0.494   5.002   6.470 -0.6815 -0.1201 -1.7192
 4157TIP3    H233963   0.635   5.048   6.437  0.0310 -0.3534  0.7753
 4158TIP3   OH233964   6.302   5.217   5.616 -0.4675  0.0700 -0.3580
 4158TIP3    H133965   6.362   5.143   5.618  0.1605  0.5695 -0.6994
 4158TIP3    H233966   6.347   5.286   5.665 -1.3894 -0.0165  0.6666
 4159TIP3   OH233967   4.890   4.611  13.091 -0.0740 -0.4816  0.2790
 4159TIP3    H133968   4.953   4.672  13.128  0.7264 -0.7271 -0.6222
 4159TIP3    H233969   4.883   4.638  12.999  0.4089 -1.8057 -0.1712
 4160TIP3   OH233970   0.790   4.910   2.701 -0.1332  0.1401  0.1636
 4160TIP3    H133971   0.799   4.991   2.651  0.3858  0.7839  1.2630
 4160TIP3    H233972   0.809   4.840   2.637 -1.9854  0.7670 -1.1515
 4161TIP3   OH233973   6.552   2.022  11.179 -0.4047 -0.1433 -0.6388
 4161TIP3    H133974   6.517   2.042  11.265  1.8805 -1.1123  0.5996
 4161TIP3    H233975   6.484   2.052  11.118 -2.5403 -0.3438  1.4858
 4162TIP3   OH233976   0.516   1.826  16.744  0.5358 -0.9679  0.1919
 4162TIP3    H133977   0.587   1.866  16.694  0.1957  0.5636  0.8934
 4162TIP3    H233978   0.443   1.887  16.736  0.6737 -0.2710  3.1049
 4163TIP3   OH233979   3.517   3.364  16.315  0.1947 -0.1304 -0.1147
 4163TIP3    H133980   3.606   3.339  16.342 -0.5673 -1.3180  1.4034
 4163TIP3    H233981   3.474   3.282  16.293 -0.2647  0.5225 -1.7830
 4164TIP3   OH233982   0.296   3.190  10.765  0.1097  0.6467  0.0895
 4164TIP3    H133983   0.272   3.133  10.693  0.1719  0.4171  0.2492
 4164TIP3    H233984   0.318   3.274  10.724 -0.9801  0.8708 -0.0547
 4165TIP3   OH233985   5.225   0.174   1.463 -0.3859 -0.9318 -0.2115
 4165TIP3    H133986   5.143   0.202   1.504  0.3413  0.1995  0.5228
 4165TIP3    H233987   5.223   0.212   1.376  0.7393  1.8942  0.8730
 4166TIP3   OH233988   1.066   5.106   0.981  0.1550  0.3094  0.2252
 4166TIP3    H133989   0.973   5.096   1.004  0.1101  0.1587 -0.0112
 4166TIP3    H233990   1.082   5.036   0.917 -0.4881  2.3797 -2.4157
 4167TIP3   OH233991   1.201   6.115  13.265  0.1360 -0.2748  0.3868
 4167TIP3    H133992   1.194   6.019  13.262 -1.3718 -0.1683 -0.1904
 4167TIP3    H233993   1.209   6.141  13.174 -1.3315  0.2520  0.3923
 4168TIP3   OH233994   4.347   4.658   0.137  0.0760 -0.7826  0.4778
 4168TIP3    H133995   4.273   4.627   0.189 -0.7836  0.7333  0.2524
 4168TIP3    H233996   4.376   4.581   0.088 -0.1254 -1.8532  1.9736
 4169TIP3   OH233997   4.197   1.534  14.976 -0.2304  0.0585  0.0198
 4169TIP3    H133998   4.145   1.604  14.936 -1.0602 -0.6769 -0.2281
 4169TIP3    H233999   4.235   1.487  14.902 -1.3488 -0.9913  0.0817
 4170TIP3   OH234000   5.788   1.635   2.865  0.8304  0.3685 -0.3972
 4170TIP3    H134001   5.825   1.576   2.799  1.1668 -0.6766  0.7057
 4170TIP3    H234002   5.766   1.579   2.939 -2.4565  1.0257 -0.7287
 4171TIP3   OH234003   6.555   4.833  17.090  0.4353 -0.2460 -0.1554
 4171TIP3    H134004   6.592   4.893  17.155  0.8940 -1.6008  0.8824
 4171TIP3    H234005   6.489   4.885  17.044  1.2202  1.2158  0.2990
 4172TIP3   OH234006   6.239   3.285   0.954  0.2692 -0.2238 -0.4078
 4172TIP3    H134007   6.319   3.255   0.911  0.3277 -2.3447  1.0400
 4172TIP3    H234008   6.234   3.378   0.933  0.9050 -0.8587 -3.9290
 4173TIP3   OH234009   6.471   5.060  14.927 -0.5080  0.5703 -0.4704
 4173TIP3    H134010   6.539   5.012  14.974 -1.6558  0.3674  1.0743
 4173TIP3    H234011   6.390   5.033  14.969 -1.5853  0.6309 -2.4272
 4174TIP3   OH234012   1.740   1.929  12.823 -0.2283 -0.7866 -0.0687
 4174TIP3    H134013   1.694   1.960  12.745  0.3241 -1.6171 -0.7343
 4174TIP3    H234014   1.829   1.963  12.814 -0.9193  1.9861  1.8769
 4175TIP3   OH234015   2.779   1.753  16.422  0.2383 -0.3796  0.3549
 4175TIP3    H134016   2.797   1.682  16.484 -0.0706 -0.2705  0.5700
 4175TIP3    H234017   2.828   1.729  16.343 -0.4423 -1.2025  0.1631
 4176TIP3   OH234018   5.387   6.128   1.741  0.1101 -0.5605 -0.1478
 4176TIP3    H134019   5.406   6.100   1.830  1.8357 -0.5691 -0.4798
 4176TIP3    H234020   5.430   6.213   1.733 -0.2954 -0.4140 -0.8757
 4177TIP3   OH234021   0.271   5.413  12.638  0.5435 -0.0071 -1.0101
 4177TIP3    H134022   0.206   5.346  12.658  2.5416 -1.8531 -0.3897
 4177TIP3    H234023   0.246   5.488  12.692 -0.7408 -0.8629 -0.3927
 4178TIP3   OH234024   2.217   0.376  12.392  0.2177  0.4603 -0.5501
 4178TIP3    H134025   2.281   0.361  12.322 -1.0348  0.3419 -1.7178
 4178TIP3    H234026   2.163   0.297  12.393  0.5910  0.1988  0.9967
 4179TIP3   OH234027   1.812   5.960   0.825  0.0444 -0.2667  0.1035
 4179TIP3    H134028   1.803   5.991   0.915 -0.6768  0.6534 -0.2673
 4179TIP3    H234029   1.890   6.003   0.792 -0.9083  1.1676 -0.3839
 4180TIP3   OH234030   6.197   0.758   4.536 -0.0784 -0.0290  0.0362
 4180TIP3    H134031   6.225   0.776   4.626 -1.6188  0.0786  0.5155
 4180TIP3    H234032   6.214   0.665   4.525 -1.9755 -0.5664  1.2535
 4181TIP3   OH234033   0.799   5.411  14.247 -0.2092  0.2141  0.8995
 4181TIP3    H134034   0.740   5.486  14.258 -1.9468 -0.6764 -1.5692
 4181TIP3    H234035   0.749   5.336  14.280 -0.4416 -0.4963 -0.9181
 4182TIP3   OH234036   3.524   4.470  13.827  0.6805 -0.2070 -0.3040
 4182TIP3    H134037   3.613   4.463  13.860  0.9083  0.8439 -0.6390
 4182TIP3    H234038   3.506   4.386  13.786  0.1860 -1.8192  2.8763
 4183TIP3   OH234039   4.898   5.543   1.011 -0.0003  0.0147  0.3101
 4183TIP3    H134040   4.874   5.482   1.081  0.6369 -1.6365 -0.8599
 4183TIP3    H234041   4.824   5.541   0.951  0.1164  0.2395  0.1567
 4184TIP3   OH234042   4.709   1.494  16.779  0.2954  0.2463 -0.0272
 4184TIP3    H134043   4.714   1.589  16.774 -0.0064  0.3056  0.7300
 4184TIP3    H234044   4.663   1.468  16.699  0.3471  0.7309 -0.2165
 4185TIP3   OH234045   6.569   4.129  11.876  0.2555  0.0727 -0.1157
 4185TIP3    H134046   6.549   4.195  11.809  2.0000 -0.0382 -0.8065
 4185TIP3    H234047   6.629   4.068  11.832  0.9249 -0.3738  1.3537
 4186TIP3   OH234048   3.985   3.081   1.609  0.2901  0.2651 -0.5196
 4186TIP3    H134049   3.976   2.986   1.610  0.4899  0.1812 -2.4384
 4186TIP3    H234050   4.063   3.098   1.661 -0.2375 -0.5370  0.5703
 4187TIP3   OH234051   1.765   1.228   1.007  0.4290 -0.3377  0.4234
 4187TIP3    H134052   1.834   1.165   0.988 -0.7348 -2.2146  2.0002
 4187TIP3    H234053   1.703   1.219   0.935  1.7410  1.3989 -1.0323
 4188TIP3   OH234054   5.887   6.468   3.624  0.2355 -0.9047 -0.2589
 4188TIP3    H134055   5.840   6.387   3.603 -1.0172 -0.2209 -0.1346
 4188TIP3    H234056   5.960   6.470   3.562 -1.1544 -0.8878 -1.9475
 4189TIP3   OH234057   4.482   4.072   5.078  0.4353 -0.0835 -0.9867
 4189TIP3    H134058   4.419   4.124   5.127 -0.6807 -0.6562 -1.7722
 4189TIP3    H234059   4.548   4.047   5.142  0.8093  1.9558 -0.4986
 4190TIP3   OH234060   1.127   3.480  13.839 -0.5747 -0.1397 -0.6918
 4190TIP3    H134061   1.171   3.398  13.858 -0.2977  0.5832  2.2409
 4190TIP3    H234062   1.077   3.500  13.919  0.2185  3.0459 -0.8517
 4191TIP3   OH234063   0.972   1.939  14.920  0.0908  0.5811 -0.4293
 4191TIP3    H134064   1.009   1.898  14.998 -0.8548  1.1438  0.3492
 4191TIP3    H234065   1.014   1.895  14.847 -1.3168 -2.2243  0.3316
 4192TIP3   OH234066   4.164   1.091  13.866  0.4743  0.1997  0.5198
 4192TIP3    H134067   4.182   1.008  13.909  0.2569 -0.2146 -0.1785
 4192TIP3    H234068   4.138   1.150  13.937 -0.4852 -0.6420  0.8828
 4193TIP3   OH234069   2.647   5.342   0.941  0.2397  0.0475  0.3419
 4193TIP3    H134070   2.688   5.256   0.944  1.2209  0.5103  0.5978
 4193TIP3    H234071   2.633   5.358   0.847 -0.8428 -0.7831  0.3420
 4194TIP3   OH234072   2.933   5.607   2.885 -0.3530 -0.2451 -0.2242
 4194TIP3    H134073   2.977   5.688   2.859 -0.6279 -0.8317 -2.7782
 4194TIP3    H234074   2.940   5.551   2.809 -1.3967 -2.1419  1.0015
 4195TIP3   OH234075   5.534   5.651   3.609  0.4546 -0.3794 -0.3302
 4195TIP3    H134076   5.471   5.659   3.537 -0.4584 -1.8399  0.2717
 4195TIP3    H234077   5.558   5.741   3.630 -1.0706  0.1901 -0.9061
 4196TIP3   OH234078   4.317   2.332  11.955  0.2136 -0.2783  0.0096
 4196TIP3    H134079   4.243   2.296  11.906  0.9795  0.2815 -1.6072
 4196TIP3    H234080   4.282   2.410  11.998 -0.0805  0.1254 -0.9512
 4197TIP3   OH234081   6.029   0.913   0.172  1.3345  0.2134 -0.3343
 4197TIP3    H134082   6.009   0.847   0.106  0.3115 -0.1588  0.3236
 4197TIP3    H234083   6.103   0.962   0.136  1.6338 -0.8147 -1.1586
 4198TIP3   OH234084   4.560   3.189  13.255  0.0708 -0.0964 -0.0152
 4198TIP3    H134085   4.582   3.165  13.165 -0.5342  0.6317 -0.3656
 4198TIP3    H234086   4.644   3.197  13.300  0.3464 -1.4992 -0.2342
 4199TIP3   OH234087   1.199   0.668   1.932  0.0261  0.4520 -0.4027
 4199TIP3    H134088   1.271   0.628   1.883 -0.4892  1.3461 -1.9621
 4199TIP3    H234089   1.235   0.751   1.963  0.8725 -0.7880  2.2417
 4200TIP3   OH234090   3.506   4.168   5.884 -0.3713  0.2965  0.1056
 4200TIP3    H134091   3.505   4.167   5.788  0.8030 -0.8898  0.0807
 4200TIP3    H234092   3.439   4.104   5.909 -1.4461  1.3855  0.1248
 4201TIP3   OH234093   5.433   3.973   3.747 -0.3033  0.0390  0.0763
 4201TIP3    H134094   5.369   3.926   3.694  0.6836  0.4061 -1.5086
 4201TIP3    H234095   5.449   3.915   3.822 -0.8221 -1.0811 -0.6512
 4202TIP3   OH234096   3.138   5.766   4.749 -0.6172  0.2901  0.9430
 4202TIP3    H134097   3.123   5.672   4.755  4.0016 -0.6424  1.5946
 4202TIP3    H234098   3.128   5.787   4.656 -0.7118 -1.0793  0.6353
 4203TIP3   OH234099   5.893   0.069   4.243 -0.1041  0.2062  0.3404
 4203TIP3    H134100   5.832   0.142   4.251  0.4072  0.5483  1.4570
 4203TIP3    H234101   5.980   0.110   4.245  0.1734 -0.3180 -0.5250
 4204TIP3   OH234102   5.605   5.069   2.367  0.3184  0.0079  0.1244
 4204TIP3    H134103   5.664   5.013   2.316  1.0123 -0.1930  1.1081
 4204TIP3    H234104   5.563   5.010   2.429 -0.8007  0.1882 -0.4470
 4205TIP3   OH234105   1.140   5.613   4.801  0.0269 -0.7382 -0.5505
 4205TIP3    H134106   1.046   5.628   4.805 -0.1028 -1.5621 -0.2374
 4205TIP3    H234107   1.169   5.661   4.723 -0.7924 -1.1836 -1.1468
 4206TIP3   OH234108   5.461   4.671  11.104 -0.0180 -0.1386 -0.5132
 4206TIP3    H134109   5.382   4.670  11.050 -0.6161 -0.2401  0.3447
 4206TIP3    H234110   5.485   4.579  11.113  0.6562 -0.0692 -1.3971
 4207TIP3   OH234111   6.253   5.935  11.868  0.0387 -0.2904 -0.4716
 4207TIP3    H134112   6.160   5.941  11.888  0.1851 -2.4243  1.1768
 4207TIP3    H234113   6.290   5.884  11.940  2.4915  0.4223 -1.1177
 4208TIP3   OH234114   5.610   2.422  12.209  0.2234  0.5309  0.1820
 4208TIP3    H134115   5.557   2.442  12.131  0.5522 -0.6777 -0.3810
 4208TIP3    H234116   5.604   2.501  12.263  0.8040  1.7913 -1.5156
 4209TIP3   OH234117   2.876   1.300   5.543  0.3838  0.6935 -0.7938
 4209TIP3    H134118   2.918   1.364   5.600  0.3507  0.6923 -0.7685
 4209TIP3    H234119   2.811   1.350   5.495  0.5997  0.7494 -1.0301
 4210TIP3   OH234120   0.320   4.043   4.878 -0.3491  0.2714 -0.1048
 4210TIP3    H134121   0.355   4.038   4.967 -0.3042  1.8737 -0.0023
 4210TIP3    H234122   0.343   4.131   4.849 -3.5411  1.1437 -0.3415
 4211TIP3   OH234123   3.663   4.614   3.702 -0.1115  0.2517 -0.0004
 4211TIP3    H134124   3.689   4.705   3.686 -0.4163  0.3761  0.2095
 4211TIP3    H234125   3.656   4.575   3.615 -0.1394  0.4741 -0.0977
 4212TIP3   OH234126   1.488   5.807  11.057 -0.5173 -0.3338  0.2568
 4212TIP3    H134127   1.500   5.752  10.980 -1.3253 -0.3604  0.1443
 4212TIP3    H234128   1.402   5.846  11.045 -0.6543 -0.3461  1.1528
 4213TIP3   OH234129   4.143   5.337  11.940  0.4342  0.4290 -0.3524
 4213TIP3    H134130   4.145   5.399  11.867 -0.2676 -0.8031 -1.4488
 4213TIP3    H234131   4.071   5.367  11.995  1.5181  1.8909  0.3742
 4214TIP3   OH234132   2.166   2.813  12.268 -0.2991  0.9101 -0.0700
 4214TIP3    H134133   2.106   2.760  12.216  2.5412 -1.4404 -1.3008
 4214TIP3    H234134   2.166   2.772  12.355 -0.6936  1.0971  0.0172
 4215TIP3   OH234135   2.119   6.069   5.398  0.8050 -0.4605 -0.0569
 4215TIP3    H134136   2.054   6.104   5.460 -1.4942 -0.5058 -2.2986
 4215TIP3    H234137   2.104   5.975   5.397  1.5465 -0.5902  0.0442
 4216TIP3   OH234138   2.800   3.551   3.961  0.1989  0.9189  0.0408
 4216TIP3    H134139   2.775   3.462   3.933 -0.4137  1.2837 -0.6062
 4216TIP3    H234140   2.719   3.590   3.994  0.5792  1.0617  0.8330
 4217TIP3   OH234141   6.632   4.587   0.452  0.1254  0.1660  0.0746
 4217TIP3    H134142   6.673   4.535   0.521 -1.8331  0.2657  1.3992
 4217TIP3    H234143   6.552   4.539   0.429 -1.5784  2.3329  1.1042
 4218TIP3   OH234144   1.842   3.934  16.475 -0.9825 -0.3511 -0.7781
 4218TIP3    H134145   1.851   3.990  16.399 -0.4573  2.2889  1.1049
 4218TIP3    H234146   1.796   3.987  16.540 -0.8997 -2.2645  0.9778
 4219TIP3   OH234147   5.124   0.817  10.841  0.5771 -0.1941 -0.4722
 4219TIP3    H134148   5.124   0.913  10.839  0.6082 -0.1144  1.2941
 4219TIP3    H234149   5.140   0.791  10.750  1.3526  1.4818 -0.8639
 4220TIP3   OH234150   5.445   3.502   4.213  0.1453  0.5112 -0.2179
 4220TIP3    H134151   5.460   3.575   4.273  1.5047 -0.6768  0.9911
 4220TIP3    H234152   5.532   3.485   4.175  0.0496 -0.9916  0.1801
 4221TIP3   OH234153   1.011   6.202   1.386 -0.1970 -0.4066  0.2650
 4221TIP3    H134154   1.046   6.172   1.470 -0.5204  1.8840  1.3020
 4221TIP3    H234155   0.958   6.129   1.354 -0.4178 -1.1880  2.2849
 4222TIP3   OH234156   5.453   1.076  12.294 -0.7402 -0.2240  0.4689
 4222TIP3    H134157   5.473   1.025  12.215 -0.5842  0.5415  0.0070
 4222TIP3    H234158   5.359   1.066  12.306 -0.8084 -0.1105  0.0213
 4223TIP3   OH234159   6.018   4.770   4.725 -0.2460  0.5965  1.1676
 4223TIP3    H134160   5.954   4.767   4.796 -1.2538 -0.3273  0.2455
 4223TIP3    H234161   5.969   4.799   4.649  0.9998  2.3744  0.9818
 4224TIP3   OH234162   6.254   0.447  11.455 -0.5353  0.0701  0.6138
 4224TIP3    H134163   6.257   0.532  11.410  2.6798  0.2386  0.9243
 4224TIP3    H234164   6.161   0.424  11.456 -1.5324  3.4923  0.3857
 4225TIP3   OH234165   4.781   1.157  16.844 -0.0129 -0.2283  0.7606
 4225TIP3    H134166   4.837   1.080  16.835  0.8443  0.4224  0.4600
 4225TIP3    H234167   4.832   1.219  16.895 -0.0745  0.7304 -0.3118
 4226TIP3   OH234168   3.863   0.392  12.272  0.3530  0.4035 -0.6844
 4226TIP3    H134169   3.897   0.477  12.243  0.8797  0.1120 -0.9305
 4226TIP3    H234170   3.769   0.397  12.256  0.2252  1.3020  0.2083
 4227TIP3   OH234171   3.791   6.830   3.480  0.0362 -0.1575  0.6321
 4227TIP3    H134172   3.829   6.809   3.566  0.4339 -0.2393  0.4370
 4227TIP3    H234173   3.798   6.748   3.431  1.9126  0.4802 -0.2531
 4228TIP3   OH234174   1.268   0.009   3.231 -0.3849 -0.0339  0.0255
 4228TIP3    H134175   1.277  -0.073   3.279 -3.9439 -1.6334 -1.6603
 4228TIP3    H234176   1.245   0.074   3.297 -1.1797 -1.2573  0.9862
 4229TIP3   OH234177   0.632   2.313   4.332 -0.2377  0.1598 -1.0324
 4229TIP3    H134178   0.589   2.370   4.268  0.3746  0.8525 -0.8501
 4229TIP3    H234179   0.572   2.310   4.406 -0.0642  1.0073 -0.8354
 4230TIP3   OH234180   2.610   1.385   5.315  0.0213  0.1790  0.0627
 4230TIP3    H134181   2.637   1.472   5.344  0.4520  0.1895 -0.3402
 4230TIP3    H234182   2.658   1.372   5.233 -0.7262 -0.0764 -0.3424
 4231TIP3   OH234183   6.085   2.093  15.001 -0.3573  0.7938  0.0813
 4231TIP3    H134184   6.055   2.181  15.022 -0.8283  0.8745 -0.8561
 4231TIP3    H234185   6.075   2.087  14.905  2.9041  0.9288 -0.3520
 4232TIP3   OH234186   4.754   4.490   3.292  0.3385  0.0594  0.4053
 4232TIP3    H134187   4.754   4.556   3.223  0.7596  0.1251  0.4657
 4232TIP3    H234188   4.846   4.476   3.312  0.2733 -0.8796  0.0842
 4233TIP3   OH234189   1.067   1.554  11.394  0.0664  0.1051  0.1464
 4233TIP3    H134190   1.146   1.593  11.433 -1.6582  3.8241  0.3297
 4233TIP3    H234191   1.088   1.546  11.301  0.5346  1.4909  0.1146
 4234TIP3   OH234192   0.190   1.393  13.173  0.2511  0.2908  0.1192
 4234TIP3    H134193   0.189   1.476  13.221  0.9493 -0.2343  1.0766
 4234TIP3    H234194   0.242   1.412  13.094  0.1059  0.8497  0.1511
 4235TIP3   OH234195   2.248   3.502  10.422 -0.3157 -0.1105  0.1186
 4235TIP3    H134196   2.266   3.421  10.469  0.3899  0.7014  1.3022
 4235TIP3    H234197   2.295   3.492  10.339  1.3009 -0.2086  0.9935
 4236TIP3   OH234198   0.941   0.619   4.276 -0.4656 -0.9714  0.4426
 4236TIP3    H134199   0.935   0.603   4.370  0.3783 -1.1861  0.4724
 4236TIP3    H234200   1.031   0.648   4.262 -0.7640 -0.3158 -0.2145
 4237TIP3   OH234201   4.178   6.805   0.743 -0.1999 -0.0869  0.2332
 4237TIP3    H134202   4.163   6.849   0.660 -0.9413 -0.6869  0.0359
 4237TIP3    H234203   4.191   6.876   0.806 -3.3345  0.5385  0.3137
 4238TIP3   OH234204   2.286   5.724  14.158 -0.6530  0.2166 -0.0969
 4238TIP3    H134205   2.307   5.723  14.064 -1.2102  0.8501 -0.2438
 4238TIP3    H234206   2.355   5.778  14.197 -0.7472  0.4393 -0.2346
 4239TIP3   OH234207   2.333   5.801  17.031 -0.0193 -0.4790 -0.6420
 4239TIP3    H134208   2.419   5.759  17.025  1.7412  2.1377  2.8865
 4239TIP3    H234209   2.336   5.870  16.964  1.8509  1.2759  1.1065
 4240TIP3   OH234210   5.351   0.362   3.504  0.2471  0.4138 -0.0161
 4240TIP3    H134211   5.290   0.292   3.528 -0.5893  1.4166  0.8880
 4240TIP3    H234212   5.321   0.390   3.417 -2.0364  2.3277  1.2566
 4241TIP3   OH234213   6.790   3.252  15.986  0.1548  0.0292 -0.2421
 4241TIP3    H134214   6.724   3.217  16.046  0.3054 -0.7511 -0.5184
 4241TIP3    H234215   6.849   3.178  15.970  1.2034  0.7651  0.1370
 4242TIP3   OH234216   1.492   5.107   2.180  0.0357  0.4947 -0.3431
 4242TIP3    H134217   1.522   5.052   2.252 -0.0925  1.0950  0.1727
 4242TIP3    H234218   1.543   5.188   2.189  0.3970  0.3820 -1.2361
 4243TIP3   OH234219   2.870   0.951  15.206 -0.1419 -0.3278  0.3148
 4243TIP3    H134220   2.946   0.903  15.240  0.5897 -1.5470 -2.6856
 4243TIP3    H234221   2.897   0.979  15.119 -2.6468  0.4907 -0.2747
 4244TIP3   OH234222   1.854   2.336  13.420  0.2427 -0.0558  0.1195
 4244TIP3    H134223   1.886   2.348  13.509  0.9893  0.1817 -0.1764
 4244TIP3    H234224   1.818   2.421  13.396  1.2788  0.2850 -0.2855
 4245TIP3   OH234225   4.645   6.580  14.038 -0.3658 -0.2177 -0.0327
 4245TIP3    H134226   4.550   6.588  14.029 -0.1268  0.2205 -3.6441
 4245TIP3    H234227   4.659   6.492  14.071 -2.0094 -1.2932 -2.0111
 4246TIP3   OH234228   1.170   1.493  12.931  0.6938  0.1204  0.7113
 4246TIP3    H134229   1.172   1.524  13.022 -1.8298  1.7653  0.2898
 4246TIP3    H234230   1.228   1.553  12.884  2.1984 -0.8800  1.1952
 4247TIP3   OH234231   4.464   3.455   3.277  0.6741  0.6173  0.2010
 4247TIP3    H134232   4.475   3.368   3.316  0.4907  0.2917 -0.4510
 4247TIP3    H234233   4.486   3.442   3.184 -1.7116  0.6942 -0.4407
 4248TIP3   OH234234   5.727   6.298   3.021 -1.1481 -0.2679  0.4147
 4248TIP3    H134235   5.801   6.244   2.992 -0.6070 -1.6928  3.9587
 4248TIP3    H234236   5.649   6.249   2.995 -0.7549 -0.8198  0.2590
 4249TIP3   OH234237   3.008   4.931   0.493  0.0606  0.3318 -0.2635
 4249TIP3    H134238   2.919   4.954   0.521  0.3223  0.2216  0.6810
 4249TIP3    H234239   3.039   5.008   0.446 -0.4676  0.4439 -0.4310
 4250TIP3   OH234240   4.593   3.474  15.855 -0.3328 -0.1626  0.2138
 4250TIP3    H134241   4.650   3.514  15.920 -0.7611  1.0822 -0.1448
 4250TIP3    H234242   4.505   3.501  15.880 -0.7385 -1.6378  0.4681
 4251TIP3   OH234243   5.746   2.426   5.924  0.4555 -0.5112 -0.4223
 4251TIP3    H134244   5.822   2.451   5.977  0.1517  1.7708 -0.9549
 4251TIP3    H234245   5.673   2.426   5.986  0.7215 -1.9384 -0.0685
 4252TIP3   OH234246   2.785   4.014   3.524 -0.1247  0.3369 -0.0928
 4252TIP3    H134247   2.797   3.925   3.491 -1.8042  0.2343 -0.5524
 4252TIP3    H234248   2.840   4.019   3.602 -0.5965 -1.3686  0.3853
 4253TIP3   OH234249   5.799   2.012  10.730 -0.2914  0.4402  0.9392
 4253TIP3    H134250   5.851   2.021  10.810  0.5473 -2.1330  0.7685
 4253TIP3    H234251   5.863   1.994  10.661 -1.2060 -0.2925  0.2502
 4254TIP3   OH234252   2.517   6.520  14.632  0.7361  0.3186 -0.1772
 4254TIP3    H134253   2.438   6.529  14.578  0.3220 -1.9995 -0.0756
 4254TIP3    H234254   2.590   6.528  14.570  0.3142 -0.4203 -0.7910
 4255TIP3   OH234255   5.585   2.074  11.768 -0.1232 -0.0399 -0.5519
 4255TIP3    H134256   5.628   2.042  11.689 -1.0231 -3.4411  0.1499
 4255TIP3    H234257   5.603   2.006  11.833 -1.2267  1.5839  1.5442
 4256TIP3   OH234258   6.415   5.654  13.487 -0.6694  0.5749 -0.3221
 4256TIP3    H134259   6.431   5.562  13.464 -0.8846  0.1644  1.0482
 4256TIP3    H234260   6.499   5.684  13.522 -0.7585  0.7185 -0.2322
 4257TIP3   OH234261   2.864   4.226   1.436  0.2532  0.1065 -0.0700
 4257TIP3    H134262   2.846   4.263   1.522  1.2725  0.3942  0.0326
 4257TIP3    H234263   2.853   4.300   1.376 -0.3659 -0.0724 -0.1827
 4258TIP3   OH234264   6.543   2.258   0.079  0.5887  0.5063  0.3530
 4258TIP3    H134265   6.595   2.239   0.157  1.5065  0.0062 -0.3658
 4258TIP3    H234266   6.573   2.345   0.051  2.0700 -0.3553 -0.8484
 4259TIP3   OH234267   0.293   6.508  13.864 -0.7341 -0.1101 -0.3489
 4259TIP3    H134268   0.288   6.573  13.793  0.9005  0.7025  0.2169
 4259TIP3    H234269   0.238   6.435  13.834  0.6108 -0.1891 -2.8782
 4260TIP3   OH234270   2.022   6.476   4.511  0.0911  0.3111  0.3116
 4260TIP3    H134271   1.956   6.491   4.443 -0.0166  1.9677  0.7453
 4260TIP3    H234272   2.106   6.489   4.466  0.0261  1.1933  0.4389
 4261TIP3   OH234273   4.399   4.540  10.376 -0.0531 -0.1559 -0.2186
 4261TIP3    H134274   4.367   4.474  10.315  0.7764 -1.4442  0.7029
 4261TIP3    H234275   4.435   4.490  10.449 -1.9627  1.3292  1.8727
 4262TIP3   OH234276   2.320   4.705   1.372  0.3868  0.9645  0.1240
 4262TIP3    H134277   2.274   4.666   1.298  2.1389 -2.0781  0.4262
 4262TIP3    H234278   2.358   4.786   1.337  0.7057 -0.0960 -2.1875
 4263TIP3   OH234279   0.143   4.239  12.362  0.6515  0.3572  0.1260
 4263TIP3    H134280   0.125   4.202  12.448  0.9976 -0.1033  0.0051
 4263TIP3    H234281   0.112   4.173  12.301  1.4766  0.1615 -0.0926
 4264TIP3   OH234282   6.717   6.273   4.396 -0.0691 -0.6884 -0.2151
 4264TIP3    H134283   6.662   6.321   4.334 -0.4681 -0.7119  0.1243
 4264TIP3    H234284   6.672   6.190   4.410 -1.9361  0.6891  2.8968
 4265TIP3   OH234285   5.959   0.648  13.690  0.6712 -0.2570 -0.0068
 4265TIP3    H134286   5.874   0.617  13.723 -0.6019  0.1744 -2.5903
 4265TIP3    H234287   5.965   0.738  13.721  0.5110 -0.5067  0.7701
 4266TIP3   OH234288   0.411   1.251  14.221  0.0651 -0.1406  0.0375
 4266TIP3    H134289   0.466   1.244  14.298  0.8588  0.2829 -0.4822
 4266TIP3    H234290   0.447   1.188  14.159  1.6212  1.8883 -1.2720
 4267TIP3   OH234291   1.298   1.852  11.515 -0.3169  0.2506  0.3602
 4267TIP3    H134292   1.346   1.775  11.485 -0.9664 -0.7851  1.8251
 4267TIP3    H234293   1.214   1.846  11.470 -0.7745 -0.5363  1.2749
 4268TIP3   OH234294   3.264   1.132   5.043 -0.0824 -0.4252 -0.0557
 4268TIP3    H134295   3.193   1.116   5.105 -0.3780 -0.7777 -0.4838
 4268TIP3    H234296   3.282   1.226   5.052 -0.5138 -0.3591  0.1443
 4269TIP3   OH234297   6.582   3.193   4.974  0.3387  0.1382  0.4120
 4269TIP3    H134298   6.662   3.183   4.922  0.4103 -0.3500  0.6127
 4269TIP3    H234299   6.590   3.280   5.013  0.8430  0.0364  0.5439
 4270TIP3   OH234300   0.148   0.557  12.987  0.1539 -0.2062  0.6369
 4270TIP3    H134301   0.220   0.544  12.926 -0.8331  1.4415 -0.9474
 4270TIP3    H234302   0.176   0.629  13.043 -0.8258  1.5544 -1.0252
 4271TIP3   OH234303   6.725   5.322  14.329  0.5413 -0.3781  0.3021
 4271TIP3    H134304   6.805   5.307  14.379  0.4499 -0.8388  0.3206
 4271TIP3    H234305   6.736   5.268  14.250 -0.0371 -0.9754  0.6235
 4272TIP3   OH234306   5.753   4.957  15.808 -0.1484 -0.0511  0.1103
 4272TIP3    H134307   5.658   4.967  15.820 -0.6010 -2.1132 -1.2516
 4272TIP3    H234308   5.786   4.933  15.895 -1.0492 -0.3735  0.3734
 4273TIP3   OH234309   1.086   0.613   3.052  0.3267 -0.3632 -0.2172
 4273TIP3    H134310   1.077   0.687   3.113 -1.0188 -0.3797 -0.3562
 4273TIP3    H234311   1.115   0.654   2.970  0.1458 -0.0628 -0.1348
 4274TIP3   OH234312   0.958   0.542  15.570  0.6516  0.5095  0.7765
 4274TIP3    H134313   0.961   0.618  15.511  0.1460 -0.2112 -0.2098
 4274TIP3    H234314   0.894   0.567  15.637 -1.2326  0.1428 -0.7813
 4275TIP3   OH234315   3.299   4.875  14.958 -0.4700 -0.2512  0.0339
 4275TIP3    H134316   3.276   4.807  15.021  1.2414 -1.0849 -0.1933
 4275TIP3    H234317   3.382   4.846  14.920 -1.1032  0.5549 -2.1292
 4276TIP3   OH234318   1.663   0.439  13.607  0.0414 -0.2978  0.0369
 4276TIP3    H134319   1.666   0.503  13.536 -2.2511 -0.6134 -0.4198
 4276TIP3    H234320   1.596   0.376  13.581  0.4266 -1.4664  1.6563
 4277TIP3   OH234321   4.831   3.136  12.740  0.0920 -0.0804 -0.5725
 4277TIP3    H134322   4.909   3.192  12.738  1.1858 -1.4896  0.6625
 4277TIP3    H234323   4.864   3.048  12.728 -1.6228 -0.5280 -2.6148
 4278TIP3   OH234324   4.078   5.465   1.361  0.2378  0.4578 -0.4134
 4278TIP3    H134325   4.026   5.386   1.376 -0.0214  0.4021 -1.5038
 4278TIP3    H234326   4.020   5.522   1.310  0.8811  0.8334 -0.7320
 4279TIP3   OH234327   4.564   0.160  16.472 -0.7796  0.8365 -0.4828
 4279TIP3    H134328   4.503   0.155  16.545  0.2663  0.7148  0.3971
 4279TIP3    H234329   4.530   0.096  16.408 -0.4859 -0.7069  0.8390
 4280TIP3   OH234330   2.295   5.504   5.107 -0.1733 -0.1035 -0.1190
 4280TIP3    H134331   2.351   5.536   5.036 -0.2313  1.2347  0.4062
 4280TIP3    H234332   2.338   5.424   5.137  1.1304  0.5545 -0.1511
 4281TIP3   OH234333   4.332   1.876  15.438  0.3295  0.3473 -0.5855
 4281TIP3    H134334   4.357   1.893  15.528  1.7079  0.7692 -1.0254
 4281TIP3    H234335   4.352   1.783  15.424  2.2700  0.8021 -1.0888
 4282TIP3   OH234336   4.989   4.247  11.336  0.5326 -0.2436 -0.1006
 4282TIP3    H134337   5.003   4.333  11.377 -1.2298 -0.3139  0.7065
 4282TIP3    H234338   4.933   4.200  11.397  2.2314 -2.3706 -0.0592
 4283TIP3   OH234339   6.782   3.949  12.572  0.3368  0.0520  0.2582
 4283TIP3    H134340   6.837   4.013  12.617 -0.2623  0.6077  0.2104
 4283TIP3    H234341   6.725   4.001  12.515  0.4319 -0.5784 -0.4405
 4284TIP3   OH234342   5.792   4.976  12.686 -0.2582  0.6619  0.6394
 4284TIP3    H134343   5.848   5.045  12.651 -0.3308  2.0518  3.0129
 4284TIP3    H234344   5.745   5.017  12.759 -2.6883 -1.0764  0.2001
 4285TIP3   OH234345   4.041   4.387  15.444  0.3316 -0.2519  0.1299
 4285TIP3    H134346   4.127   4.428  15.439 -0.1174  0.5980 -2.5243
 4285TIP3    H234347   4.049   4.322  15.513  2.0776  2.0383  2.2529
 4286TIP3   OH234348   4.951   0.936   6.221 -0.4174 -0.1252  0.0728
 4286TIP3    H134349   4.856   0.928   6.232 -0.0538 -1.6523  3.0108
 4286TIP3    H234350   4.981   0.846   6.206  0.5986  0.3463 -0.8932
 4287TIP3   OH234351   5.439   5.841   4.178  0.9938 -0.4830 -0.3870
 4287TIP3    H134352   5.458   5.787   4.101  3.8642  0.0358 -0.1246
 4287TIP3    H234353   5.454   5.782   4.252 -1.5750 -0.9237 -0.1110
 4288TIP3   OH234354   0.072   3.038  14.130  0.1314  0.0765 -0.2324
 4288TIP3    H134355   0.162   3.007  14.132  0.9921  2.3210 -0.5835
 4288TIP3    H234356   0.049   3.053  14.222  0.6218  0.7197 -0.2014
 4289TIP3   OH234357   2.150   2.806   3.300  0.1806  0.1720  0.0223
 4289TIP3    H134358   2.108   2.830   3.383  2.5354 -1.6119  1.8499
 4289TIP3    H234359   2.240   2.837   3.308  0.6670 -0.6834 -1.5748
 4290TIP3   OH234360   1.446   6.215  10.175  0.2456 -0.4375 -0.0856
 4290TIP3    H134361   1.372   6.272  10.197  1.9854  0.6117  3.8467
 4290TIP3    H234362   1.513   6.275  10.143  1.1434 -0.5577  1.4680
 4291TIP3   OH234363   2.486   5.495  15.510  0.1237 -0.0884  0.1188
 4291TIP3    H134364   2.501   5.587  15.533  0.9825 -0.4822  1.1773
 4291TIP3    H234365   2.543   5.480  15.434  1.2889 -0.1966  0.9943
 4292TIP3   OH234366   5.368   6.481  13.525  0.0354  0.6712  0.4332
 4292TIP3    H134367   5.446   6.426  13.524  0.3296  1.0641 -1.0839
 4292TIP3    H234368   5.390   6.554  13.468 -1.9338  0.0544 -1.2308
 4293TIP3   OH234369   5.863   2.903   3.177  0.2191  0.6910  0.0095
 4293TIP3    H134370   5.789   2.852   3.142  0.3052 -0.1133  0.9700
 4293TIP3    H234371   5.843   2.912   3.270  0.8351  1.3530  0.0803
 4294TIP3   OH234372   1.770   3.253  13.420 -0.0437  0.3054  0.1041
 4294TIP3    H134373   1.714   3.190  13.375  0.3615  0.3709 -0.5089
 4294TIP3    H234374   1.748   3.337  13.381 -0.6022  0.5607  0.9393
 4295TIP3   OH234375   6.427   0.001   0.266 -0.1707 -0.0831  0.1065
 4295TIP3    H134376   6.410  -0.053   0.189 -2.0415  1.2104 -0.4626
 4295TIP3    H234377   6.372  -0.038   0.335  1.2694 -1.0550  0.7640
 4296TIP3   OH234378   1.576   0.579  10.547  0.5342  0.3730 -0.3484
 4296TIP3    H134379   1.489   0.616  10.560 -0.2998 -1.8638  1.0226
 4296TIP3    H234380   1.636   0.652  10.566 -0.9899  1.8468 -0.9127
 4297TIP3   OH234381   0.050   1.494   6.036  0.2336 -0.1592 -0.7688
 4297TIP3    H134382   0.130   1.483   6.088  0.1306  0.3298 -0.5015
 4297TIP3    H234383  -0.015   1.439   6.080 -0.1043  0.9565  0.1820
 4298TIP3   OH234384   4.794   1.299   3.175 -0.6963 -0.6042  0.0805
 4298TIP3    H134385   4.755   1.375   3.131  1.1564  0.6291  0.4434
 4298TIP3    H234386   4.721   1.258   3.221 -1.5593  1.6452  0.8581
 4299TIP3   OH234387   6.354   2.670  12.347 -0.1677  0.1178  0.2628
 4299TIP3    H134388   6.390   2.598  12.294 -0.8485 -1.3029  1.6521
 4299TIP3    H234389   6.340   2.741  12.284  0.7439 -0.8721 -1.1232
 4300TIP3   OH234390   4.044   2.795   6.823 -0.0097  0.1925 -0.3990
 4300TIP3    H134391   3.993   2.876   6.831  0.8430  0.6894  0.1132
 4300TIP3    H234392   4.119   2.819   6.769  1.7922  0.5374  2.0793
 4301TIP3   OH234393   5.060   5.736   1.364 -0.1909  0.6391 -0.1138
 4301TIP3    H134394   5.071   5.725   1.458  0.7354  1.1920 -0.1507
 4301TIP3    H234395   5.022   5.823   1.353 -0.1463  0.6396 -0.2716
 4302TIP3   OH234396   1.615   5.775  14.821  0.3047 -0.1117 -0.1881
 4302TIP3    H134397   1.599   5.769  14.915  1.4641 -0.4909  0.0112
 4302TIP3    H234398   1.575   5.858  14.795  0.2381  0.1465  0.7005
 4303TIP3   OH234399   2.501   5.000   4.457 -0.3712 -0.2052 -0.0940
 4303TIP3    H134400   2.437   4.933   4.481 -1.4619  0.5129 -0.9013
 4303TIP3    H234401   2.501   5.000   4.361  1.8051 -1.0565 -0.1472
 4304TIP3   OH234402   1.987   2.158  15.009 -0.7729 -0.3647  0.1749
 4304TIP3    H134403   1.942   2.196  14.933  0.9311 -1.5972 -1.5393
 4304TIP3    H234404   1.928   2.091  15.042 -0.6311 -1.3456 -1.4858
 4305TIP3   OH234405   6.046   0.840  14.614  0.4544 -0.1679 -0.4065
 4305TIP3    H134406   6.000   0.759  14.636 -0.2110  0.0338 -0.9898
 4305TIP3    H234407   6.138   0.816  14.612  0.3937 -0.5718  0.8662
 4306TIP3   OH234408   6.222   6.189   4.101 -0.3129  0.6230 -0.0293
 4306TIP3    H134409   6.155   6.203   4.169 -0.1745  1.0205  0.0319
 4306TIP3    H234410   6.173   6.189   4.019 -0.3844  0.9637  0.0119
 4307TIP3   OH234411   2.112   3.796   4.897  0.2314 -0.3648  0.1749
 4307TIP3    H134412   2.036   3.832   4.943 -0.1806 -0.9885 -0.0139
 4307TIP3    H234413   2.186   3.822   4.952 -0.0908  0.4163  0.2572
 4308TIP3   OH234414   2.179   1.059  13.346  0.3175 -0.7250  0.7631
 4308TIP3    H134415   2.130   1.030  13.423  1.4855 -0.0445  1.8256
 4308TIP3    H234416   2.267   1.077  13.380  0.8073 -0.1873 -0.7051
 4309TIP3   OH234417   2.746   3.002  11.744  0.2857 -0.5147 -0.0649
 4309TIP3    H134418   2.826   2.989  11.794 -0.1332 -1.2646  0.4399
 4309TIP3    H234419   2.774   3.010  11.653  0.9304 -0.7231  0.1170
 4310TIP3   OH234420   2.038   5.408  13.909  0.4653 -0.1211  0.7562
 4310TIP3    H134421   2.129   5.423  13.937  0.4537  0.3518  0.5482
 4310TIP3    H234422   1.988   5.404  13.990  0.4056  1.4173  0.8179
 4311TIP3   OH234423   2.888   4.768  15.143 -0.2744 -0.0931 -0.1017
 4311TIP3    H134424   2.933   4.721  15.073 -0.1425  0.4552 -0.3890
 4311TIP3    H234425   2.952   4.830  15.177 -1.1279  1.5232 -1.3076
 4312TIP3   OH234426   0.436   2.242   3.284 -0.4646 -0.1567  0.3667
 4312TIP3    H134427   0.452   2.311   3.348 -0.8167 -0.3924  0.7128
 4312TIP3    H234428   0.518   2.234   3.236 -0.7884  1.3392 -0.4938
 4313TIP3   OH234429   0.275   0.653   5.045  0.0284  0.2169 -0.1998
 4313TIP3    H134430   0.200   0.679   4.992  0.1520 -0.8561 -0.9466
 4313TIP3    H234431   0.351   0.668   4.988  0.1091 -1.6275 -0.6682
 4314TIP3   OH234432   4.340   5.525  11.563  0.3835 -0.2017 -0.1774
 4314TIP3    H134433   4.272   5.481  11.615 -1.6884  1.6961 -1.1197
 4314TIP3    H234434   4.362   5.462  11.494  0.2975 -1.1995  0.6736
 4315TIP3   OH234435   2.223   1.063  11.257  0.0484  0.0658  0.1013
 4315TIP3    H134436   2.198   1.145  11.215 -1.2834 -0.8620 -1.0272
 4315TIP3    H234437   2.241   1.003  11.185  0.7032 -0.7261  0.8955
 4316TIP3   OH234438   5.392   0.501   5.653 -0.1642  0.4060  0.1191
 4316TIP3    H134439   5.459   0.566   5.671 -0.5256  0.8093  0.0262
 4316TIP3    H234440   5.438   0.417   5.655  1.3220  0.8464 -4.1732
 4317TIP3   OH234441   0.332   0.898   0.501  0.0084 -0.5808 -0.1653
 4317TIP3    H134442   0.277   0.829   0.540  0.5081  0.1265  1.9139
 4317TIP3    H234443   0.415   0.855   0.483  0.6931 -0.3688  2.1345
 4318TIP3   OH234444   0.836   3.482  13.597 -0.2528 -0.4988 -0.5070
 4318TIP3    H134445   0.914   3.491  13.543 -0.7262  1.1778 -0.9609
 4318TIP3    H234446   0.772   3.540  13.557 -1.3333 -0.8901  0.5937
 4319TIP3   OH234447   3.580   1.106  11.501  0.7206  0.0660  0.5342
 4319TIP3    H134448   3.507   1.073  11.555  2.2532 -1.0212  2.0378
 4319TIP3    H234449   3.623   1.027  11.469  0.5840  0.7071 -1.3190
 4320TIP3   OH234450   1.905   1.754   1.993  0.1573 -0.1490 -0.3909
 4320TIP3    H134451   1.923   1.663   2.016  0.1937  0.2029  1.1070
 4320TIP3    H234452   1.981   1.802   2.026  1.3406  0.2066 -3.3318
 4321TIP3   OH234453   2.480   6.570  11.651  0.0478  0.0871 -0.3674
 4321TIP3    H134454   2.399   6.519  11.649  0.0763  0.0404 -0.3437
 4321TIP3    H234455   2.462   6.642  11.712 -0.1794  0.4167 -0.8191
 4322TIP3   OH234456   2.423   2.805  16.860  0.4948  0.1393 -0.0222
 4322TIP3    H134457   2.416   2.881  16.918  1.0969 -1.5575  2.4614
 4322TIP3    H234458   2.508   2.815  16.817 -0.9188  2.5998 -2.5986
 4323TIP3   OH234459   6.408   6.202   0.011  0.0564  0.3114  0.3450
 4323TIP3    H134460   6.417   6.107   0.022 -1.4556 -0.1231 -1.5223
 4323TIP3    H234461   6.330   6.225   0.062  1.6436  0.9985  2.5899
 4324TIP3   OH234462   2.759   2.048   0.679 -0.1056  0.0786  0.5644
 4324TIP3    H134463   2.768   2.049   0.774 -1.4182  1.3570  0.7144
 4324TIP3    H234464   2.680   1.996   0.663  1.0944 -1.6555  0.0229
 4325TIP3   OH234465   4.869   3.618  11.512 -0.7780 -0.5226  0.0215
 4325TIP3    H134466   4.779   3.648  11.516 -0.8524 -0.8618  1.6997
 4325TIP3    H234467   4.919   3.696  11.486 -1.3690  0.1044  0.7191
 4326TIP3   OH234468   3.596   3.060  12.911  0.5615 -0.0691  0.5085
 4326TIP3    H134469   3.652   3.132  12.939  0.4939 -0.4700  1.7163
 4326TIP3    H234470   3.652   2.983  12.917  1.6212  0.1354 -3.6836
 4327TIP3   OH234471   5.497   3.201  15.211  0.3204  0.3951  0.1348
 4327TIP3    H134472   5.469   3.285  15.249 -3.0971 -0.7068  0.3819
 4327TIP3    H234473   5.480   3.137  15.279 -0.2744 -0.8749 -1.1435
 4328TIP3   OH234474   2.446   1.865   4.966 -0.1542  0.5825 -0.7570
 4328TIP3    H134475   2.409   1.862   4.878  0.6332 -0.3198 -1.0731
 4328TIP3    H234476   2.540   1.855   4.953  0.3058  3.1851  0.0028
 4329TIP3   OH234477   5.007   2.200  17.115  0.5692  0.6651 -0.0991
 4329TIP3    H134478   4.985   2.213  17.023 -2.0003 -4.6685 -0.6394
 4329TIP3    H234479   5.069   2.128  17.116 -0.6980 -0.5448  2.2437
 4330TIP3   OH234480   4.168   5.966   5.125  0.0739  0.6588  0.7067
 4330TIP3    H134481   4.246   5.958   5.180  0.5276  1.9987  0.2979
 4330TIP3    H234482   4.117   6.036   5.166 -0.4958  0.3757  0.4840
 4331TIP3   OH234483   5.070   6.819   0.800  0.1462  0.0719 -0.2798
 4331TIP3    H134484   4.983   6.780   0.808  0.1584  0.0085 -0.4526
 4331TIP3    H234485   5.130   6.746   0.810  0.2124  0.2519  0.8087
 4332TIP3   OH234486   4.022   0.816  16.609 -0.7944 -0.4746  0.2003
 4332TIP3    H134487   3.937   0.794  16.571 -2.0509 -0.0769  2.5635
 4332TIP3    H234488   4.013   0.907  16.637  0.6331 -0.2385 -0.0254
 4333TIP3   OH234489   5.368   1.013  11.314 -0.4107  0.1730  0.2640
 4333TIP3    H134490   5.365   1.014  11.218 -0.6348  0.7954  0.2696
 4333TIP3    H234491   5.303   0.948  11.340 -1.4547  1.0942  0.0198
 4334TIP3   OH234492   0.795   1.344  14.465 -0.0725 -0.3612 -0.1496
 4334TIP3    H134493   0.764   1.381  14.548  0.9425 -2.8502  1.4545
 4334TIP3    H234494   0.847   1.414  14.425 -0.4537  0.8453  1.4016
 4335TIP3   OH234495   5.004   2.980  12.425 -0.0843 -0.1586 -0.1789
 4335TIP3    H134496   5.075   3.043  12.433 -0.1771 -0.1325  0.6024
 4335TIP3    H234497   5.047   2.894  12.432 -0.1276 -0.1412  0.3816
 4336TIP3   OH234498   6.209   5.299  13.050 -1.1291  0.1578 -0.6642
 4336TIP3    H134499   6.245   5.257  13.128 -0.7225  1.3778 -0.1739
 4336TIP3    H234500   6.183   5.387  13.079 -0.9604  0.6448 -1.8925
 4337TIP3   OH234501   0.815   2.124   2.228  0.5785  0.1130  0.5277
 4337TIP3    H134502   0.869   2.120   2.149  0.1078 -1.7471  0.2678
 4337TIP3    H234503   0.818   2.217   2.253  1.1950  0.6576 -1.3365
 4338TIP3   OH234504   1.700   3.491   4.093  0.2191  0.2522 -0.3324
 4338TIP3    H134505   1.788   3.469   4.064  0.7845 -0.2509  1.6196
 4338TIP3    H234506   1.658   3.530   4.016  1.3060 -1.7560 -2.0329
 4339TIP3   OH234507   2.330   0.606   3.474  0.2835  0.2449  0.1188
 4339TIP3    H134508   2.403   0.589   3.535  0.8717  1.3842 -0.2306
 4339TIP3    H234509   2.372   0.613   3.388 -0.4907 -0.9536 -0.3804
 4340TIP3   OH234510   6.584   2.002  16.831  0.1735 -0.0560 -0.4960
 4340TIP3    H134511   6.666   2.052  16.821 -0.9463  1.4043 -3.5858
 4340TIP3    H234512   6.521   2.067  16.864  0.0133 -1.0054  1.1942
 4341TIP3   OH234513   1.076   1.378  10.579 -0.2121 -0.5584  0.1165
 4341TIP3    H134514   1.059   1.427  10.498  1.4268 -0.2247 -0.0611
 4341TIP3    H234515   1.083   1.445  10.647 -0.3000 -0.7426  0.3096
 4342TIP3   OH234516   2.337   5.301  14.891 -0.2024  0.4877  0.0282
 4342TIP3    H134517   2.263   5.329  14.946 -0.4953  0.6158 -0.4224
 4342TIP3    H234518   2.410   5.354  14.922 -0.4056  0.6878  0.1783
 4343TIP3   OH234519   0.600   3.422   5.033 -0.0507 -0.2423  0.1240
 4343TIP3    H134520   0.690   3.392   5.019  0.3362  0.7266  0.4375
 4343TIP3    H234521   0.585   3.487   4.963  0.4147  1.4883  1.5465
 4344TIP3   OH234522   3.192   0.301   1.568  0.0660  0.1133  0.0823
 4344TIP3    H134523   3.131   0.350   1.624 -0.5982  0.4384 -0.9082
 4344TIP3    H234524   3.153   0.303   1.481  0.6221 -1.1926 -0.2219
 4345TIP3   OH234525   6.676   3.695   1.611  0.1079  0.8700  0.6949
 4345TIP3    H134526   6.611   3.649   1.558  0.9968  0.5534 -0.1508
 4345TIP3    H234527   6.684   3.781   1.570 -0.0625  1.0482  1.0347
 4346TIP3   OH234528   6.412   4.812  16.524  0.0753 -0.2904 -0.6895
 4346TIP3    H134529   6.374   4.801  16.611 -0.4422 -0.1149 -0.8906
 4346TIP3    H234530   6.507   4.808  16.539 -0.0005  0.0269 -0.0816
 4347TIP3   OH234531   0.251   3.559   0.622 -0.3181 -0.4615 -0.2442
 4347TIP3    H134532   0.218   3.638   0.579  0.1155 -1.0844 -1.8040
 4347TIP3    H234533   0.297   3.591   0.699  0.2415  0.8566 -1.0951
 4348TIP3   OH234534   5.876   2.045   1.308 -0.0188  0.1304 -0.8805
 4348TIP3    H134535   5.806   2.005   1.256 -0.4358  0.5057 -0.6147
 4348TIP3    H234536   5.846   2.134   1.324 -0.5321 -0.3506  1.1215
 4349TIP3   OH234537   2.070   6.109  11.474  0.0103 -0.7494  0.2603
 4349TIP3    H134538   2.131   6.182  11.461 -1.3517  0.0415 -2.3850
 4349TIP3    H234539   2.083   6.053  11.397  1.0958 -3.4841  2.2480
 4350TIP3   OH234540   3.598   6.567  13.693 -0.3781 -0.0591 -0.1014
 4350TIP3    H134541   3.561   6.539  13.777  0.9669 -2.2421 -0.1665
 4350TIP3    H234542   3.690   6.539  13.697  0.0317  0.9127 -1.8289
 4351TIP3   OH234543   1.842   2.612   0.977 -0.2881  0.0898  0.6459
 4351TIP3    H134544   1.902   2.676   0.937  1.7679 -1.1958  1.5093
 4351TIP3    H234545   1.759   2.626   0.932  0.8127  1.5417 -1.0776
 4352TIP3   OH234546   2.277   5.885  15.100 -0.3139  0.2974 -0.0360
 4352TIP3    H134547   2.188   5.887  15.065 -0.1816 -1.1457 -0.5612
 4352TIP3    H234548   2.331   5.926  15.033 -0.7807  3.0036  1.1362
 4353TIP3   OH234549   2.355   0.064  12.346 -0.2459 -0.3398  0.0942
 4353TIP3    H134550   2.394   0.148  12.367 -0.3593 -0.0576 -0.7903
 4353TIP3    H234551   2.355   0.016  12.429 -0.5316  0.6652  0.6936
 4354TIP3   OH234552   1.115   0.508  13.263 -0.6626 -0.2455  0.5165
 4354TIP3    H134553   1.196   0.558  13.276  0.3183 -1.3951 -0.9344
 4354TIP3    H234554   1.106   0.502  13.168 -1.3813 -1.8217  0.6592
 4355TIP3   OH234555   2.928   6.801   3.513  0.1845  0.0062  0.3567
 4355TIP3    H134556   2.858   6.865   3.529 -0.4862 -1.0249  1.6638
 4355TIP3    H234557   2.887   6.716   3.527  1.5119 -0.6557  0.3545
 4356TIP3   OH234558   0.129   3.682   3.422 -0.3223  0.0554  0.4110
 4356TIP3    H134559   0.180   3.621   3.369  1.3804  2.1003 -0.4689
 4356TIP3    H234560   0.053   3.704   3.368  0.5092  0.8032 -0.4863
 4357TIP3   OH234561   3.663   5.660   0.994  0.7030 -0.3538  0.3946
 4357TIP3    H134562   3.755   5.672   0.972  0.7071  0.3288  0.7495
 4357TIP3    H234563   3.640   5.575   0.957  1.1870 -0.0493 -0.6311
 4358TIP3   OH234564   1.277   6.724   2.572  0.0902 -0.2486 -0.3000
 4358TIP3    H134565   1.285   6.654   2.636  1.1872 -0.2346 -0.4055
 4358TIP3    H234566   1.363   6.767   2.572  0.0096 -0.0441 -1.5249
 4359TIP3   OH234567   0.736   0.768   2.605 -0.6164 -0.3317 -0.0715
 4359TIP3    H134568   0.798   0.732   2.668 -0.1460 -2.0864 -1.4336
 4359TIP3    H234569   0.782   0.842   2.565 -1.5959  2.0181  2.7762
 4360TIP3   OH234570   1.808   4.262   0.628 -0.0540  0.5288 -0.3307
 4360TIP3    H134571   1.718   4.282   0.600  0.4298  0.0860 -2.3767
 4360TIP3    H234572   1.800   4.244   0.722 -2.2526 -0.3183 -0.6067
 4361TIP3   OH234573   5.390   6.730  14.787  0.4130  0.0375  0.1866
 4361TIP3    H134574   5.468   6.750  14.735  1.3262  0.3487  1.6291
 4361TIP3    H234575   5.353   6.652  14.745  1.5210 -0.1480 -0.5002
 4362TIP3   OH234576   4.109   4.906  14.831  0.1886 -0.1667  0.8644
 4362TIP3    H134577   4.105   4.999  14.853 -0.0794 -0.0998  0.5426
 4362TIP3    H234578   4.202   4.884  14.836  0.3045  0.2264  0.4996
 4363TIP3   OH234579   2.018   4.101  12.956 -0.3577  0.4922 -0.4600
 4363TIP3    H134580   1.927   4.131  12.967 -0.5340 -0.0258 -0.5069
 4363TIP3    H234581   2.049   4.148  12.879 -0.7433  0.3082 -0.7314
 4364TIP3   OH234582   6.758   4.964  11.436  0.0165 -0.1956  0.2112
 4364TIP3    H134583   6.727   5.050  11.465  0.2043  0.1834 -0.6829
 4364TIP3    H234584   6.698   4.941  11.365  1.3910  0.2819 -1.1547
 4365TIP3   OH234585   5.752   4.732  14.074  0.4405  0.8220  0.1484
 4365TIP3    H134586   5.778   4.765  14.160  0.9771 -2.2556  1.3037
 4365TIP3    H234587   5.746   4.637  14.085  2.0413  0.0768 -3.5657
 4366TIP3   OH234588   0.454   6.537   2.085 -0.0576  0.5426 -0.1984
 4366TIP3    H134589   0.404   6.601   2.136 -1.4167 -0.3174 -0.4030
 4366TIP3    H234590   0.495   6.589   2.015 -0.7258  1.2556 -0.0783
 4367TIP3   OH234591   1.775   1.763  14.582 -0.7698  0.0450  0.1513
 4367TIP3    H134592   1.758   1.782  14.490 -0.1924 -0.4308 -0.0632
 4367TIP3    H234593   1.835   1.832  14.610 -0.3705 -0.2119 -0.0406
 4368TIP3   OH234594   4.465   0.676  11.984  0.3806 -0.3260 -0.2935
 4368TIP3    H134595   4.375   0.648  12.001  0.3334 -0.4629 -0.7443
 4368TIP3    H234596   4.472   0.763  12.024 -0.8743  1.0378 -2.8054
 4369TIP3   OH234597   3.523   6.859  14.953 -0.1734 -0.0893  0.0403
 4369TIP3    H134598   3.454   6.794  14.967 -1.1768  0.9772  0.1428
 4369TIP3    H234599   3.480   6.943  14.967  0.7278  0.6868 -1.5413
 4370TIP3   OH234600   3.321   6.411   0.425  0.6319  0.0285  0.4469
 4370TIP3    H134601   3.354   6.500   0.439 -0.0719  0.2059  1.0899
 4370TIP3    H234602   3.240   6.408   0.477 -0.8233 -0.0978 -1.6997
 4371TIP3   OH234603   0.860   0.120   5.049 -0.9440  0.2200 -0.3241
 4371TIP3    H134604   0.791   0.074   5.000 -0.9845 -0.2226  0.1361
 4371TIP3    H234605   0.816   0.152   5.127 -0.3514 -1.2960  0.6872
 4372TIP3   OH234606   1.767   1.231  15.543  0.0762  0.0598 -0.5303
 4372TIP3    H134607   1.785   1.168  15.612  1.0869  0.8775 -0.0160
 4372TIP3    H234608   1.685   1.202  15.504  0.3916 -1.4198 -0.1476
 4373TIP3   OH234609   4.490   4.735   5.135 -0.2032  0.3510 -0.0252
 4373TIP3    H134610   4.423   4.740   5.203 -1.2108  0.5943 -1.0012
 4373TIP3    H234611   4.563   4.787   5.170  0.1187 -1.1812  1.7175
 4374TIP3   OH234612   6.075   1.527  11.587  0.1834  0.2219  0.1098
 4374TIP3    H134613   6.125   1.605  11.565 -1.5194  1.1436 -0.6741
 4374TIP3    H234614   6.086   1.518  11.682  1.4529  0.6317  0.0201
 4375TIP3   OH234615   5.320   5.024  14.864  0.3166 -0.2117 -0.9761
 4375TIP3    H134616   5.403   4.982  14.842  1.2495  0.4108  1.0813
 4375TIP3    H234617   5.258   4.952  14.870  0.9988 -0.8412 -1.2632
 4376TIP3   OH234618   4.577   4.328  11.426  0.2759  0.6100 -0.1583
 4376TIP3    H134619   4.635   4.252  11.421 -0.4300  0.0604 -0.2994
 4376TIP3    H234620   4.501   4.303  11.373 -0.2553  1.1491  0.3303
 4377TIP3   OH234621   6.239   5.673  16.825  0.0931 -0.1338 -0.1789
 4377TIP3    H134622   6.295   5.603  16.859  1.9798  0.4941 -1.8144
 4377TIP3    H234623   6.254   5.746  16.885  0.9188 -0.0241 -0.5033
 4378TIP3   OH234624   6.421   0.424   6.169  0.8766  0.6678  0.1643
 4378TIP3    H134625   6.351   0.465   6.221  0.8612  1.8325 -0.7170
 4378TIP3    H234626   6.376   0.394   6.090  1.0903 -0.0951  0.3293
 4379TIP3   OH234627   2.524   0.294  12.366  0.5835  0.3598  0.0236
 4379TIP3    H134628   2.616   0.282  12.345  0.6753 -0.6253  0.8822
 4379TIP3    H234629   2.484   0.325  12.284  1.1528 -2.0096 -1.2430
 4380TIP3   OH234630   4.206   5.399  15.049  0.1082  0.2916 -0.1850
 4380TIP3    H134631   4.265   5.334  15.012 -1.1569 -0.6833 -0.5479
 4380TIP3    H234632   4.186   5.367  15.137 -1.0445 -0.1774 -0.6063
 4381TIP3   OH234633   6.826   0.859   5.088 -0.1579 -0.2716  0.3404
 4381TIP3    H134634   6.787   0.946   5.093  0.4045  0.0476 -0.6421
 4381TIP3    H234635   6.906   0.871   5.037  0.3888 -1.2076  0.9429
 4382TIP3   OH234636   5.909   1.170   6.476 -0.6893  0.3860  0.0120
 4382TIP3    H134637   5.943   1.091   6.433 -1.4577  1.1833 -2.2389
 4382TIP3    H234638   5.971   1.239   6.453 -0.0219  0.4936  1.9656
 4383TIP3   OH234639   0.813   3.645  12.391 -0.4109 -0.6288 -0.5852
 4383TIP3    H134640   0.727   3.673  12.421 -0.2933 -0.1645 -0.6825
 4383TIP3    H234641   0.802   3.551  12.373 -0.8862 -0.5796 -0.5724
 4384TIP3   OH234642   1.357   5.878  16.984 -0.3355  0.2209 -0.1067
 4384TIP3    H134643   1.425   5.933  16.945 -1.3517  0.1390 -2.1717
 4384TIP3    H234644   1.398   5.791  16.990  0.4080  0.6132  0.6579
 4385TIP3   OH234645   1.513   3.603  11.486  0.1417 -0.3101  0.3792
 4385TIP3    H134646   1.537   3.541  11.555 -0.9377 -1.9420 -0.6649
 4385TIP3    H234647   1.429   3.572  11.454  0.0132  1.1789 -0.8143
 4386TIP3   OH234648   3.893   3.723   3.169 -0.0826  0.0567  0.0319
 4386TIP3    H134649   3.985   3.744   3.182  0.0042 -0.5347  0.4111
 4386TIP3    H234650   3.879   3.642   3.219 -1.5267  1.7374  2.5529
 4387TIP3   OH234651   5.132   4.667  12.432 -0.1096  0.4482 -0.4706
 4387TIP3    H134652   5.105   4.713  12.511 -0.7788  1.4551 -1.2492
 4387TIP3    H234653   5.188   4.729  12.386  2.0658 -0.9026  0.1875
 4388TIP3   OH234654   1.707   3.788   0.242  0.2103  0.4964 -0.0539
 4388TIP3    H134655   1.752   3.829   0.168  0.0783 -0.1602 -0.5046
 4388TIP3    H234656   1.758   3.710   0.261 -0.9273 -0.4619 -0.8109
 4389TIP3   OH234657   3.729   4.573  10.998  0.1423  0.3158 -0.1030
 4389TIP3    H134658   3.644   4.551  11.036  0.0836  2.3406  1.0690
 4389TIP3    H234659   3.710   4.643  10.936  0.9276  0.6536  0.0321
 4390TIP3   OH234660   2.967   0.753  13.667 -0.5091 -0.0698 -0.0726
 4390TIP3    H134661   2.887   0.711  13.634 -0.8749 -0.6305  1.4527
 4390TIP3    H234662   3.003   0.797  13.591 -1.2278 -1.4251 -1.2574
 4391TIP3   OH234663   2.980   1.806  14.710 -0.0062 -0.2292 -0.5408
 4391TIP3    H134664   2.884   1.802  14.703  0.0179 -2.0581 -0.1450
 4391TIP3    H234665   3.012   1.743  14.646  0.8430 -1.1990  0.7763
 4392TIP3   OH234666   5.578   1.133   4.941  0.5344 -0.3250  0.4371
 4392TIP3    H134667   5.625   1.197   4.888 -0.8705 -2.0351 -3.1434
 4392TIP3    H234668   5.486   1.158   4.932 -0.0666 -2.7730 -1.1739
 4393TIP3   OH234669   4.178   4.585   1.321 -0.7249 -0.1941  0.4668
 4393TIP3    H134670   4.117   4.609   1.391 -1.8610 -0.3183 -0.4488
 4393TIP3    H234671   4.260   4.629   1.345 -1.5095  0.9792  1.1098
 4394TIP3   OH234672   1.352   1.191  10.313  0.4091  0.2646 -0.5227
 4394TIP3    H134673   1.406   1.131  10.261  1.5710  2.4696 -2.0174
 4394TIP3    H234674   1.380   1.177  10.403  3.4812  1.1810 -1.2164
 4395TIP3   OH234675   2.511   5.936   0.494  0.2402  0.2361 -0.1663
 4395TIP3    H134676   2.506   5.932   0.399 -0.0497  0.5018 -0.1628
 4395TIP3    H234677   2.542   5.849   0.520  0.2876  0.1524 -0.4989
 4396TIP3   OH234678   6.531   3.793   6.258  0.2131  0.4819 -0.1215
 4396TIP3    H134679   6.473   3.765   6.329  0.0120  0.3699 -0.3275
 4396TIP3    H234680   6.612   3.745   6.273 -0.9526 -2.3733 -1.9636
 4397TIP3   OH234681   6.011   2.146  12.034  0.3408 -0.9611 -0.3239
 4397TIP3    H134682   5.941   2.176  11.976  2.2316  0.9468 -1.7872
 4397TIP3    H234683   5.987   2.179  12.121 -0.8397 -0.8710 -0.6664
 4398TIP3   OH234684   0.278   5.100   1.826 -0.2237 -0.2058 -0.9079
 4398TIP3    H134685   0.194   5.056   1.813 -0.3699  0.1066 -1.0357
 4398TIP3    H234686   0.264   5.156   1.903  0.0784 -0.6663 -0.5115
 4399TIP3   OH234687   5.147   4.216  11.059 -0.2420  0.3723  0.0487
 4399TIP3    H134688   5.204   4.195  11.133  0.9985  1.1751 -0.6395
 4399TIP3    H234689   5.204   4.207  10.982 -1.9832 -2.4575 -1.0704
 4400TIP3   OH234690   3.444   0.206   1.658  0.0275 -0.0904  0.5887
 4400TIP3    H134691   3.442   0.216   1.753  0.8626  2.6559  0.4070
 4400TIP3    H234692   3.369   0.258   1.627  0.1378 -0.4324 -0.2750
 4401TIP3   OH234693   5.288   2.419  16.700  0.1498  0.0339  0.1759
 4401TIP3    H134694   5.216   2.466  16.743 -2.4260 -2.0307 -1.5635
 4401TIP3    H234695   5.316   2.478  16.631  0.0471  0.8058  0.7711
 4402TIP3   OH234696   6.119   1.957   5.975 -0.0479  0.2665  0.4355
 4402TIP3    H134697   6.026   1.971   5.961 -0.3425 -0.8932  1.0815
 4402TIP3    H234698   6.126   1.936   6.068  0.6572 -1.0380  0.1145
 4403TIP3   OH234699   1.679   0.378   3.231  0.6084  0.4583  0.7604
 4403TIP3    H134700   1.587   0.374   3.258  0.5776 -2.1230  0.5194
 4403TIP3    H234701   1.679   0.352   3.139  1.5642  0.2797  0.7913
 4404TIP3   OH234702   0.124   3.485   6.782 -0.3770 -0.0812  0.1575
 4404TIP3    H134703   0.124   3.574   6.746  1.7537 -0.5304 -1.1235
 4404TIP3    H234704   0.045   3.445   6.746 -2.5577  1.8135  2.4217
 4405TIP3   OH234705   3.805   6.215  16.954  0.2231  0.7934 -0.3827
 4405TIP3    H134706   3.784   6.122  16.942 -3.3320  0.9935  2.5831
 4405TIP3    H234707   3.895   6.215  16.988  0.5251 -1.4655 -0.9941
 4406TIP3   OH234708   3.738   0.278   1.344 -0.2634 -0.2443 -0.1603
 4406TIP3    H134709   3.778   0.210   1.289  0.7068  1.4899 -1.7260
 4406TIP3    H234710   3.650   0.246   1.363  0.2030 -1.9608 -0.7597
 4407TIP3   OH234711   0.229   4.643  15.731  0.1297 -0.7142  0.6174
 4407TIP3    H134712   0.188   4.597  15.659 -0.0431 -2.0913  1.5638
 4407TIP3    H234713   0.320   4.613  15.731  0.4649  0.2473  0.2155
 4408TIP3   OH234714   4.205   3.418   3.135 -0.6410  0.2362 -0.1791
 4408TIP3    H134715   4.277   3.358   3.151 -0.3233  0.6823  0.0798
 4408TIP3    H234716   4.161   3.426   3.220 -0.8373  0.1725 -0.2730
 4409TIP3   OH234717   4.542   5.066  12.925 -0.1830  0.0805 -0.9583
 4409TIP3    H134718   4.583   5.152  12.930 -0.7203  0.3372 -0.8283
 4409TIP3    H234719   4.613   5.007  12.901 -0.0670  0.7571 -2.3923
 4410TIP3   OH234720   4.995   0.510   0.652  0.0381 -0.5784  0.3246
 4410TIP3    H134721   5.087   0.512   0.627  0.3417  2.8907  1.2928
 4410TIP3    H234722   4.996   0.499   0.747 -0.4799  0.2017  0.4311
 4411TIP3   OH234723   1.750   2.476   2.750 -0.2593  0.2139  0.4039
 4411TIP3    H134724   1.811   2.537   2.707  1.9780 -1.3214  1.2309
 4411TIP3    H234725   1.712   2.425   2.679 -0.7129  1.2753 -0.1344
 4412TIP3   OH234726   5.546   4.445  11.694  0.1938 -0.2512 -0.0256
 4412TIP3    H134727   5.537   4.378  11.626  2.3393  0.7351 -1.3917
 4412TIP3    H234728   5.618   4.414  11.749 -2.2836 -1.6431  2.6851
 4413TIP3   OH234729   1.959   0.511   0.333  0.0422  0.4686 -0.2965
 4413TIP3    H134730   1.915   0.580   0.383  1.8914 -0.3478  2.7519
 4413TIP3    H234731   2.034   0.556   0.293  0.8516  0.4769  1.1209
 4414TIP3   OH234732   5.998   6.693  15.862  0.0790 -0.2173 -0.5163
 4414TIP3    H134733   6.081   6.738  15.878  1.1972 -2.3902  0.2208
 4414TIP3    H234734   5.948   6.707  15.942  0.2343  0.0919 -0.4715
 4415TIP3   OH234735   1.317   5.456   1.991  0.2285  0.7912 -0.3513
 4415TIP3    H134736   1.393   5.399   1.981  0.6008  1.0302  0.9937
 4415TIP3    H234737   1.242   5.395   1.993  0.3893  0.5407 -1.4045
 4416TIP3   OH234738   4.203   2.776  16.725  0.0166  0.4883 -0.2683
 4416TIP3    H134739   4.155   2.848  16.766  0.3672  0.0724  0.9327
 4416TIP3    H234740   4.207   2.709  16.793  0.9251 -0.1021 -0.8845
 4417TIP3   OH234741   0.398   2.050   4.397 -0.3190  0.1582  0.4372
 4417TIP3    H134742   0.360   2.058   4.310 -0.2005 -0.0131  0.3686
 4417TIP3    H234743   0.403   2.140   4.429  1.7654  0.5105 -0.6565
 4418TIP3   OH234744   4.899   2.958   6.055  0.5593  0.0173  0.1351
 4418TIP3    H134745   4.842   3.033   6.037 -1.2511 -0.9757  1.3891
 4418TIP3    H234746   4.915   2.963   6.149  0.5444 -1.0493  0.2087
 4419TIP3   OH234747   1.958   3.465  13.936 -0.4663  0.2501 -0.2707
 4419TIP3    H134748   1.864   3.447  13.933 -0.3021 -0.5422 -0.9593
 4419TIP3    H234749   1.967   3.553  13.899 -0.8697  0.0257 -0.9193
 4420TIP3   OH234750   0.138   3.671   5.854 -0.0763 -0.1319 -0.1208
 4420TIP3    H134751   0.055   3.660   5.900  0.4607  0.1799  0.9385
 4420TIP3    H234752   0.197   3.711   5.918  0.8147 -0.0788 -0.9436
 4421TIP3   OH234753   3.055   2.026  14.479 -0.0495 -0.1503 -0.1463
 4421TIP3    H134754   3.064   2.089  14.407 -0.7666 -0.5852 -0.6288
 4421TIP3    H234755   3.076   2.076  14.558 -1.2491  0.8876 -0.4494
 4422TIP3   OH234756   5.394   1.957   6.981 -0.2099  0.1132 -0.2899
 4422TIP3    H134757   5.428   1.939   6.893 -0.5253  0.7445 -0.5573
 4422TIP3    H234758   5.451   1.909   7.040  0.2509 -0.0029 -0.8210
 4423TIP3   OH234759   2.454   1.871  13.532  0.6299  0.2507 -0.7635
 4423TIP3    H134760   2.404   1.943  13.493 -1.2048 -0.9318 -0.7172
 4423TIP3    H234761   2.530   1.861  13.475  1.6866  3.0950  0.0169
 4424TIP3   OH234762   0.056   1.208   1.569 -0.5330  0.6726 -0.0755
 4424TIP3    H134763   0.010   1.230   1.488 -1.6761  1.8556  0.8562
 4424TIP3    H234764   0.069   1.292   1.613 -0.5106 -0.0035  1.2763
 4425TIP3   OH234765   4.543   5.992   1.693  0.2706  0.1954 -0.1581
 4425TIP3    H134766   4.610   6.046   1.735 -0.0198  3.4249 -3.3845
 4425TIP3    H234767   4.461   6.018   1.735  0.0595  2.8945 -2.0377
 4426TIP3   OH234768   3.704   1.878  13.770  0.1538 -0.1414 -0.0436
 4426TIP3    H134769   3.740   1.965  13.787 -0.4662  0.0287  0.4396
 4426TIP3    H234770   3.644   1.862  13.843  0.4782 -1.0971  0.0278
 4427TIP3   OH234771   1.119   5.448  12.407 -1.0375  0.0793  0.1867
 4427TIP3    H134772   1.146   5.359  12.430  0.9187  0.8881  1.2735
 4427TIP3    H234773   1.102   5.444  12.312  0.2449 -1.1750 -0.0270
 4428TIP3   OH234774   3.299   0.983   5.533 -0.0059 -0.9679  0.0749
 4428TIP3    H134775   3.371   0.954   5.589  0.2094  0.7795  0.7416
 4428TIP3    H234776   3.330   1.065   5.494 -1.1241 -0.8869 -0.6980
 4429TIP3   OH234777   0.357   1.913  17.060 -0.4551  0.4435  0.2341
 4429TIP3    H134778   0.270   1.900  17.095  0.1376  0.3895  1.7713
 4429TIP3    H234779   0.358   1.864  16.978 -1.1327 -1.5393  1.3461
 4430TIP3   OH234780   1.695   0.009   3.680 -0.0589  0.1144  0.5873
 4430TIP3    H134781   1.686  -0.084   3.703 -0.2174 -0.1622 -0.5173
 4430TIP3    H234782   1.709   0.053   3.763 -0.5132 -0.8402  1.1866
 4431TIP3   OH234783   6.434   6.061  13.981 -0.1853 -0.1659 -0.1308
 4431TIP3    H134784   6.389   5.977  13.970  1.1441 -0.7852 -1.2309
 4431TIP3    H234785   6.386   6.122  13.925  0.5120 -0.9045 -1.5869
 4432TIP3   OH234786   1.706   4.260  11.916 -0.0275 -0.0465 -0.4964
 4432TIP3    H134787   1.770   4.331  11.909  0.9886 -0.6760  1.4583
 4432TIP3    H234788   1.630   4.291  11.867  0.7827  1.9118 -0.6160
 4433TIP3   OH234789   5.217   3.142   2.065 -0.5060  0.0207  0.6935
 4433TIP3    H134790   5.287   3.083   2.094 -1.9335 -1.4359  1.3200
 4433TIP3    H234791   5.258   3.196   1.997  1.6773  0.3769  2.1871
 4434TIP3   OH234792   5.512   4.630  12.118  0.2654 -0.6129 -0.2486
 4434TIP3    H134793   5.533   4.537  12.117  0.1975 -0.6365  0.3562
 4434TIP3    H234794   5.590   4.672  12.081 -0.1831 -0.9932 -1.6589
 4435TIP3   OH234795   6.585   2.272   6.137  0.0995 -0.2480  0.5456
 4435TIP3    H134796   6.509   2.228   6.174 -0.9160 -0.5463 -1.6949
 4435TIP3    H234797   6.641   2.292   6.212 -0.1859 -3.7383  1.8569
 4436TIP3   OH234798   3.680   3.137   0.234 -0.1626 -0.1438 -0.4064
 4436TIP3    H134799   3.745   3.175   0.293 -1.3450  0.8709  0.2972
 4436TIP3    H234800   3.730   3.108   0.158  1.3131 -0.8681  0.7934
 4437TIP3   OH234801   4.819   0.078  11.681 -0.1613 -0.2558  0.1649
 4437TIP3    H134802   4.800   0.124  11.599  2.5758  0.8386  0.0384
 4437TIP3    H234803   4.788   0.138  11.749 -1.0607 -0.4924 -0.0140
 4438TIP3   OH234804   1.733   2.281   3.960 -0.2304 -0.1536 -0.1264
 4438TIP3    H134805   1.674   2.339   3.913  0.5584  0.0795 -0.8473
 4438TIP3    H234806   1.761   2.331   4.037  1.1127  0.7919 -1.1760
 4439TIP3   OH234807   5.942   5.761   0.935  0.4949  0.4302  0.1955
 4439TIP3    H134808   5.902   5.727   1.015 -1.9706  0.0723 -1.1029
 4439TIP3    H234809   5.976   5.683   0.891  2.0528  0.6508  0.9387
 4440TIP3   OH234810   5.938   5.642   3.565 -0.1867  0.5024  0.1824
 4440TIP3    H134811   5.968   5.732   3.555 -1.7386  0.9312 -0.9867
 4440TIP3    H234812   5.947   5.624   3.658 -0.6158  2.1527  0.5707
 4441TIP3   OH234813   0.474   2.014   1.304  0.2041 -0.4177  0.0589
 4441TIP3    H134814   0.439   1.925   1.314 -1.2782  0.0007 -1.0293
 4441TIP3    H234815   0.567   2.001   1.290  0.3310 -1.6761  1.6640
 4442TIP3   OH234816   3.531   6.579   2.185 -0.1739 -0.3150  0.2385
 4442TIP3    H134817   3.583   6.603   2.108  1.4409 -1.5486  0.9062
 4442TIP3    H234818   3.489   6.496   2.160  0.7612 -0.9815  0.8573
 4443TIP3   OH234819   2.255   2.674   0.809  0.1929  0.2964 -0.0001
 4443TIP3    H134820   2.204   2.748   0.775  0.5723 -0.3764 -2.2137
 4443TIP3    H234821   2.341   2.683   0.768 -0.0267 -1.8240 -1.0638
 4444TIP3   OH234822   3.347   3.900   4.224 -0.2622  0.2760 -0.3275
 4444TIP3    H134823   3.421   3.859   4.179  2.0404  1.9205  1.7261
 4444TIP3    H234824   3.373   3.991   4.235 -2.1877  0.6966  1.3340
 4445TIP3   OH234825   5.383   1.552  11.386  0.3601  0.2895  0.5725
 4445TIP3    H134826   5.375   1.550  11.291  0.3628 -0.5242  0.5859
 4445TIP3    H234827   5.416   1.466  11.409 -0.1831  0.2841  1.3658
 4446TIP3   OH234828   1.657   2.383   2.499  0.0356 -0.1866 -0.0308
 4446TIP3    H134829   1.574   2.425   2.521 -0.6411 -1.3405 -0.3145
 4446TIP3    H234830   1.681   2.419   2.414 -0.6585 -0.5404 -0.3821
 4447TIP3   OH234831   4.371   3.695   1.119  0.5160 -0.0434 -0.5069
 4447TIP3    H134832   4.466   3.693   1.113  0.4886  1.1872 -1.8419
 4447TIP3    H234833   4.342   3.614   1.075  0.9418 -0.9269  0.7868
 4448TIP3   OH234834   1.436   4.862  16.782  0.5412 -0.2815  0.0323
 4448TIP3    H134835   1.461   4.779  16.742  0.1996  0.6031 -2.1915
 4448TIP3    H234836   1.420   4.841  16.874 -1.0609 -2.9854 -0.7531
 4449TIP3   OH234837   3.014   0.617  15.648  0.5196 -0.0719 -0.4580
 4449TIP3    H134838   3.102   0.600  15.615  0.2100 -1.3284 -0.6924
 4449TIP3    H234839   2.995   0.543  15.705 -0.5858 -0.0949 -0.8382
 4450TIP3   OH234840   3.266   6.628  14.443  0.1481  0.3238  0.6548
 4450TIP3    H134841   3.318   6.657  14.368  1.3739  0.7375  1.6247
 4450TIP3    H234842   3.187   6.682  14.440  1.3007  2.1153  1.0359
 4451TIP3   OH234843   3.986   2.052   6.571 -0.1519  0.4826  0.1201
 4451TIP3    H134844   4.046   2.006   6.513  2.3175  1.2892  1.9125
 4451TIP3    H234845   3.924   1.984   6.599  0.2070 -0.5010 -1.3383
 4452TIP3   OH234846   4.511   2.890  12.187 -0.1298 -0.1179 -0.2086
 4452TIP3    H134847   4.606   2.898  12.179 -0.1764  0.1877 -0.4763
 4452TIP3    H234848   4.494   2.898  12.281  0.2102 -1.3349 -0.0353
 4453TIP3   OH234849   5.530   4.074  11.157 -0.2268 -0.2059 -0.0922
 4453TIP3    H134850   5.493   4.017  11.089 -2.5320  0.5286  0.4432
 4453TIP3    H234851   5.454   4.101  11.209  0.7941  2.9618 -0.0336
 4454TIP3   OH234852   6.751   4.273  13.768  0.7368 -0.2592 -0.2692
 4454TIP3    H134853   6.719   4.268  13.678 -0.1459 -0.1773  0.0294
 4454TIP3    H234854   6.692   4.336  13.811  1.0004 -0.4763  0.4213
 4455TIP3   OH234855   0.468   0.820   5.436 -0.1085 -0.5039 -0.2395
 4455TIP3    H134856   0.560   0.835   5.457 -0.3740  2.0863 -0.5444
 4455TIP3    H234857   0.430   0.783   5.516  1.3479 -2.5863 -0.4537
 4456TIP3   OH234858   2.227   6.451   1.823  0.3612 -0.2461  0.2729
 4456TIP3    H134859   2.182   6.535   1.829 -2.7887 -1.8113  0.7056
 4456TIP3    H234860   2.285   6.460   1.747 -0.0953  2.1800  0.1322
 4457TIP3   OH234861   0.106   5.414  12.973  0.4267  0.3732 -0.5765
 4457TIP3    H134862   0.166   5.473  12.928 -0.8913  1.4757 -0.9781
 4457TIP3    H234863   0.133   5.418  13.065  1.0190  0.7726 -0.7612
 4458TIP3   OH234864   0.961   2.377  15.468 -0.0264  0.3492 -0.1532
 4458TIP3    H134865   1.045   2.413  15.497  0.1714 -0.3648  0.1756
 4458TIP3    H234866   0.984   2.327  15.390 -0.0364 -0.3942  0.3171
 4459TIP3   OH234867   0.801   4.683  15.200 -0.8826  0.4516  0.0747
 4459TIP3    H134868   0.828   4.668  15.110  0.2021 -1.5475  0.6679
 4459TIP3    H234869   0.706   4.671  15.199 -0.8848  0.5093 -0.8056
 4460TIP3   OH234870   3.795   5.034  14.705  0.9430 -0.7140  0.3548
 4460TIP3    H134871   3.762   4.959  14.656 -0.1435 -0.2209  0.2896
 4460TIP3    H234872   3.884   5.010  14.729  1.3970 -1.1068 -1.5617
 4461TIP3   OH234873   2.143   1.558   2.214  0.7515 -0.2471 -0.1973
 4461TIP3    H134874   2.209   1.551   2.145  1.1704 -0.0859  0.1897
 4461TIP3    H234875   2.155   1.481   2.268  2.0126  0.8095  1.0910
 4462TIP3   OH234876   5.593   6.808  11.721  0.1262  0.1093 -0.2681
 4462TIP3    H134877   5.578   6.732  11.665  0.0365 -0.6019  0.6926
 4462TIP3    H234878   5.554   6.881  11.673  0.1966 -0.4456 -1.1998
 4463TIP3   OH234879   0.164   5.226   3.778  0.3703  0.4653 -0.2256
 4463TIP3    H134880   0.079   5.206   3.740  0.5586  1.5014 -1.2683
 4463TIP3    H234881   0.171   5.169   3.855 -0.9321 -0.1635 -0.5525
 4464TIP3   OH234882   2.302   4.558   4.479  0.0873  0.6601 -0.2656
 4464TIP3    H134883   2.291   4.505   4.400  1.5013  1.1350 -0.8186
 4464TIP3    H234884   2.342   4.497   4.542  1.5880  0.9953 -0.8577
 4465TIP3   OH234885   4.394   6.524  13.933 -0.2629 -0.2067  0.3775
 4465TIP3    H134886   4.344   6.501  13.855 -0.7808 -0.0866  0.6670
 4465TIP3    H234887   4.339   6.587  13.979  0.0252 -0.2917  0.8499
 4466TIP3   OH234888   2.301   6.590   1.575 -0.7161  0.3991  0.0539
 4466TIP3    H134889   2.212   6.616   1.550 -1.8111 -0.5448  2.5653
 4466TIP3    H234890   2.337   6.666   1.620 -0.3748  0.6593 -0.6498
 4467TIP3   OH234891   5.492   1.800   5.205 -0.5658  0.6578  0.5238
 4467TIP3    H134892   5.423   1.734   5.206 -0.2142  0.2579 -0.5797
 4467TIP3    H234893   5.502   1.826   5.297 -1.0766 -0.4356  0.8977
 4468TIP3   OH234894   3.680   0.095   5.391  0.0856  0.4062 -0.3147
 4468TIP3    H134895   3.587   0.116   5.401 -0.3927 -1.9482  0.6779
 4468TIP3    H234896   3.693   0.089   5.296 -1.4706 -1.8968 -0.4472
 4469TIP3   OH234897   0.778   4.398   0.483 -0.3424 -0.4461 -0.2985
 4469TIP3    H134898   0.770   4.412   0.389  0.4325 -1.5619 -0.5428
 4469TIP3    H234899   0.843   4.463   0.512 -1.1444  0.4142 -0.3827
 4470TIP3   OH234900   1.576   2.111  12.966 -0.2718 -0.5153 -0.4918
 4470TIP3    H134901   1.614   2.029  12.937 -2.6631 -2.6922  1.9141
 4470TIP3    H234902   1.599   2.117  13.059 -1.9018  0.3694 -0.0933
 4471TIP3   OH234903   0.927   4.049   4.887  0.4991  0.9507  0.3118
 4471TIP3    H134904   0.856   4.014   4.940 -0.7284  2.1338 -0.4765
 4471TIP3    H234905   0.917   4.006   4.802  1.3478  0.4043  0.4730
 4472TIP3   OH234906   6.185   4.594   1.342  0.4190  0.7902  0.5579
 4472TIP3    H134907   6.270   4.622   1.307  0.3154  0.2605 -0.1373
 4472TIP3    H234908   6.121   4.645   1.293  0.2797  0.1895  0.1081
 4473TIP3   OH234909   3.597   5.473   2.515 -0.9863  0.5322 -0.1058
 4473TIP3    H134910   3.612   5.455   2.422  0.2971 -1.3217  0.3802
 4473TIP3    H234911   3.685   5.471   2.553 -1.5995 -0.0064  1.3243
 4474TIP3   OH234912   5.414   0.268  11.078  0.0982  0.6443 -0.4340
 4474TIP3    H134913   5.353   0.309  11.140 -0.6978 -0.4051 -0.4950
 4474TIP3    H234914   5.392   0.309  10.994 -0.7204  0.0905 -0.5035
 4475TIP3   OH234915   2.520   1.581  13.753 -0.1162 -1.0114  0.1865
 4475TIP3    H134916   2.577   1.609  13.824  1.3824  1.6905 -1.8548
 4475TIP3    H234917   2.436   1.622  13.772  0.6238  0.7538 -0.1402
 4476TIP3   OH234918   6.761   6.784   3.868  0.1474 -0.1093  0.2386
 4476TIP3    H134919   6.687   6.746   3.914 -1.0704 -1.4611 -2.5726
 4476TIP3    H234920   6.730   6.795   3.778  3.7639 -2.2505 -1.4971
 4477TIP3   OH234921   0.601   2.177  13.155 -0.2398  0.0940  0.2651
 4477TIP3    H134922   0.556   2.183  13.239 -2.0875  0.1965 -0.6891
 4477TIP3    H234923   0.586   2.087  13.126 -0.2002  0.2575 -0.2721
 4478TIP3   OH234924   4.136   4.396  16.106  0.2834 -0.0081 -0.5034
 4478TIP3    H134925   4.083   4.457  16.157  1.9939  1.1062  0.0239
 4478TIP3    H234926   4.098   4.310  16.125 -1.3358  0.7376 -0.2055
 4479TIP3   OH234927   0.794   0.631   3.688 -0.3705  0.7124  0.0267
 4479TIP3    H134928   0.771   0.539   3.676  0.7067  0.4815 -0.3938
 4479TIP3    H234929   0.828   0.658   3.603  1.5929  0.7958  0.7769
 4480TIP3   OH234930   5.214   4.382  13.694  0.3002  0.0279 -0.2860
 4480TIP3    H134931   5.253   4.468  13.709 -1.4286  0.2783  4.2586
 4480TIP3    H234932   5.282   4.320  13.720  0.3894  0.1555 -0.2116
 4481TIP3   OH234933   5.952   2.769  15.670  0.0190 -0.1090 -0.4016
 4481TIP3    H134934   6.019   2.712  15.634 -0.3778 -1.5036  0.9703
 4481TIP3    H234935   6.001   2.838  15.716  0.4962 -0.1344 -0.8627
 4482TIP3   OH234936   5.948   0.054   0.070 -0.3258  0.1496 -0.9668
 4482TIP3    H134937   5.994   0.074   0.152 -1.3843  1.6788 -0.7186
 4482TIP3    H234938   6.013   0.071   0.002 -0.5380  2.5910 -0.6425
 4483TIP3   OH234939   3.665   2.945   4.777 -0.3463 -0.1809 -0.6733
 4483TIP3    H134940   3.635   3.026   4.818  0.4091 -0.8136  1.2455
 4483TIP3    H234941   3.706   2.895   4.848 -0.0404 -1.8916 -1.9653
 4484TIP3   OH234942   4.862   3.303   6.206  0.0213 -0.4335 -0.1593
 4484TIP3    H134943   4.834   3.385   6.164 -1.5596 -1.0038 -0.2996
 4484TIP3    H234944   4.941   3.327   6.254  0.0649  0.9819 -0.8612
 4485TIP3   OH234945   1.525   0.399   4.931  0.4682 -0.3145  0.6742
 4485TIP3    H134946   1.549   0.459   5.002  1.0956  0.2726 -0.0134
 4485TIP3    H234947   1.471   0.451   4.872 -1.4051 -1.2397  1.4872
 4486TIP3   OH234948   0.059   5.889   5.962  0.0070  0.0825  0.0475
 4486TIP3    H134949   0.124   5.919   6.027  0.8872 -0.5344 -0.5138
 4486TIP3    H234950   0.023   5.809   6.001  0.4252 -0.2043 -0.1444
 4487TIP3   OH234951   1.996   4.591  16.378 -0.1105 -0.0052 -0.4508
 4487TIP3    H134952   2.087   4.561  16.378  0.3874  1.3784  0.9151
 4487TIP3    H234953   1.995   4.663  16.315  0.1320  0.9499  0.5943
 4488TIP3   OH234954   5.280   3.557  11.668  0.0160  0.6681  0.1654
 4488TIP3    H134955   5.201   3.550  11.614 -1.1335  0.4709  1.8026
 4488TIP3    H234956   5.325   3.634  11.635 -1.2801  1.2625 -0.2685
 4489TIP3   OH234957   6.658   6.201   0.950 -0.1532 -0.5655  0.0303
 4489TIP3    H134958   6.692   6.254   1.023 -0.6580 -0.6405  0.3243
 4489TIP3    H234959   6.563   6.209   0.957 -0.2121  0.4956 -1.4117
 4490TIP3   OH234960   0.626   2.138  12.482 -0.2697  0.0570 -0.4784
 4490TIP3    H134961   0.654   2.117  12.393 -1.8763 -0.6154 -0.8743
 4490TIP3    H234962   0.687   2.090  12.539  3.2946  3.5319 -0.9468
 4491TIP3   OH234963   0.121   3.492  12.231 -0.0771  0.5192 -0.1846
 4491TIP3    H134964   0.157   3.529  12.150 -2.0617  0.3369 -1.2089
 4491TIP3    H234965   0.124   3.565  12.293  0.0607  1.1171 -0.8756
 4492TIP3   OH234966   3.614   2.722  13.555 -0.1694 -0.5897  0.0230
 4492TIP3    H134967   3.691   2.670  13.574  1.3029  1.2632 -0.5204
 4492TIP3    H234968   3.570   2.732  13.639  0.2521 -1.5492  0.3682
 4493TIP3   OH234969   2.487   4.254  10.958 -0.7638  0.0976 -0.5484
 4493TIP3    H134970   2.421   4.263  10.890 -0.7077 -0.4178 -0.6774
 4493TIP3    H234971   2.466   4.171  11.001 -3.2902  2.2158  2.7763
 4494TIP3   OH234972   1.524   3.452   4.316 -0.2777  0.4359  0.3889
 4494TIP3    H134973   1.588   3.448   4.244 -0.3532  1.5543  0.2442
 4494TIP3    H234974   1.536   3.369   4.363  1.0022  0.4553  0.1322
 4495TIP3   OH234975   6.609   2.502   2.022 -0.5432  0.2074  0.4837
 4495TIP3    H134976   6.669   2.538   1.957 -1.2782  2.1907  0.8160
 4495TIP3    H234977   6.632   2.547   2.104 -1.3369 -0.2923  1.0008
 4496TIP3   OH234978   0.402   2.506   5.519  0.0586  0.0658  0.0453
 4496TIP3    H134979   0.425   2.418   5.490 -0.4546 -0.6762  1.7478
 4496TIP3    H234980   0.398   2.499   5.614 -3.7798  0.9245  0.1199
 4497TIP3   OH234981   5.601   3.815  14.187  0.3505  0.3470 -0.0035
 4497TIP3    H134982   5.510   3.814  14.214  0.3992 -0.6035  0.1531
 4497TIP3    H234983   5.637   3.895  14.227 -0.6169  1.2071 -0.8241
 4498TIP3   OH234984   3.311   1.099  13.663 -0.1055 -0.0961  0.2448
 4498TIP3    H134985   3.290   1.073  13.753 -0.5694 -1.1961 -0.1607
 4498TIP3    H234986   3.371   1.031  13.632 -0.2777  0.0473 -0.4177
 4499TIP3   OH234987   5.097   5.401  16.577  0.0244 -0.2979 -0.2281
 4499TIP3    H134988   5.146   5.394  16.659 -1.3386 -0.3411  0.6212
 4499TIP3    H234989   5.163   5.420  16.511  0.9255  2.1408  1.2227
 4500TIP3   OH234990   5.926   3.966  11.951 -0.4399  0.2793  0.2520
 4500TIP3    H134991   5.845   4.013  11.972 -1.2513 -1.0624  0.2272
 4500TIP3    H234992   5.904   3.874  11.963 -0.1787 -0.4909 -3.7300
 4501TIP3   OH234993   4.076   3.045  15.124 -0.3183 -0.0848  0.1868
 4501TIP3    H134994   4.065   2.952  15.104  0.2476  0.1709 -1.4888
 4501TIP3    H234995   4.072   3.050  15.220 -1.0805 -1.7266  0.2765
 4502TIP3   OH234996   3.516   1.564  13.834  0.5203  0.2888 -0.3414
 4502TIP3    H134997   3.600   1.554  13.879  1.6777  1.5862 -2.0624
 4502TIP3    H234998   3.478   1.477  13.834  1.1413 -0.0537  1.7576
 4503TIP3   OH234999   2.239   0.390  10.811  0.6141  0.0097  0.4695
 4503TIP3    H135000   2.201   0.395  10.723  1.0124  0.7221  0.3199
 4503TIP3    H235001   2.225   0.300  10.839  2.2488 -0.8143 -1.1507
 4504TIP3   OH235002   4.681   4.483  16.937  0.1560  0.1702  0.2412
 4504TIP3    H135003   4.679   4.578  16.928  0.1188  0.1450 -0.0273
 4504TIP3    H235004   4.640   4.450  16.857  2.3488 -0.1332 -0.8210
 4505TIP3   OH235005   0.483   2.690   2.464 -0.2548  0.0615 -0.0012
 4505TIP3    H135006   0.401   2.729   2.435  0.1246  2.1010  1.4570
 4505TIP3    H235007   0.543   2.702   2.390 -0.4572  1.3147  0.0185
 4506TIP3   OH235008   4.550   6.685  16.510  0.0238  0.3012 -0.1078
 4506TIP3    H135009   4.596   6.688  16.426 -0.8086  1.1222 -0.5491
 4506TIP3    H235010   4.614   6.718  16.573  0.8056 -0.7380 -0.3213
 4507TIP3   OH235011   6.113   4.386   5.541  0.1329 -0.3227 -0.3345
 4507TIP3    H135012   6.046   4.440   5.582 -1.1425  0.3123 -3.0553
 4507TIP3    H235013   6.189   4.443   5.533 -0.6338  0.5544 -1.6092
 4508TIP3   OH235014   1.665   2.461  11.559  0.3691 -0.5863 -0.0277
 4508TIP3    H135015   1.591   2.439  11.501  0.9801 -0.0757 -1.0369
 4508TIP3    H235016   1.624   2.484  11.642 -0.5864 -0.6550 -0.4578
 4509TIP3   OH235017   1.156   5.295   0.257 -0.1722  0.0694  0.1290
 4509TIP3    H135018   1.149   5.364   0.191  0.0552  1.1559  1.2038
 4509TIP3    H235019   1.234   5.246   0.232 -0.4882  0.0148 -0.8008
 4510TIP3   OH235020   1.018   3.854   2.930 -0.3455  0.1057 -0.5345
 4510TIP3    H135021   1.028   3.809   2.846  0.6239  0.8290 -0.8275
 4510TIP3    H235022   0.954   3.923   2.913 -1.1290 -0.5569 -0.3277
 4511TIP3   OH235023   2.534   1.069   6.424  0.2670  0.6478  0.3474
 4511TIP3    H135024   2.461   1.080   6.364  0.0409  0.3623  0.5674
 4511TIP3    H235025   2.609   1.048   6.367  0.5779  2.6303 -0.0238
 4512TIP3   OH235026   3.654   2.344   5.152 -0.2742 -0.0679 -0.5629
 4512TIP3    H135027   3.565   2.332   5.184  0.5935 -0.4985  1.8638
 4512TIP3    H235028   3.682   2.428   5.188  0.4140 -0.0955 -1.0069
 4513TIP3   OH235029   6.265   2.236  15.551  0.2514 -0.1902  0.6327
 4513TIP3    H135030   6.173   2.263  15.558  0.0724 -0.5794 -0.1401
 4513TIP3    H235031   6.309   2.283  15.622 -0.8924 -1.4656  2.2895
 4514TIP3   OH235032   4.170   3.769  14.596 -0.2165 -0.2829  0.9139
 4514TIP3    H135033   4.196   3.833  14.530 -2.4598 -0.0002  0.2230
 4514TIP3    H235034   4.227   3.693  14.578 -0.0107  0.1860 -0.6248
 4515TIP3   OH235035   3.139   5.918  15.921  0.4816 -0.1296  0.2878
 4515TIP3    H135036   3.055   5.874  15.935 -0.5475  2.2204  2.0334
 4515TIP3    H235037   3.183   5.864  15.854 -1.9716 -1.9585  0.0067
 4516TIP3   OH235038   3.804   6.082  11.295  0.0199  0.1304  0.1478
 4516TIP3    H135039   3.722   6.034  11.309 -0.0407  0.5898  1.4848
 4516TIP3    H235040   3.872   6.015  11.301 -0.2607 -0.3280 -1.4142
 4517TIP3   OH235041   5.343   2.128   4.652  0.7343 -0.1274 -0.2817
 4517TIP3    H135042   5.300   2.201   4.697 -0.9782 -0.6556 -0.9736
 4517TIP3    H235043   5.335   2.055   4.713  1.1813 -0.0958 -0.1810
 4518TIP3   OH235044   5.828   0.942   5.224 -0.2609  0.2870  0.0607
 4518TIP3    H135045   5.878   0.975   5.149  0.9449  1.9060  1.4913
 4518TIP3    H235046   5.870   0.860   5.247  3.4170  2.5605  2.5392
 4519TIP3   OH235047   6.521   2.490  15.444  0.3364 -0.0404 -0.2308
 4519TIP3    H135048   6.483   2.402  15.450 -0.2241  0.1763 -0.5756
 4519TIP3    H235049   6.614   2.474  15.424  0.1985 -0.5493 -0.4857
 4520TIP3   OH235050   4.291   4.598  11.320 -0.0381 -0.1407  0.1735
 4520TIP3    H135051   4.201   4.577  11.343  0.1472 -1.8021 -0.4631
 4520TIP3    H235052   4.285   4.636  11.232  0.0364 -2.5213 -0.9351
 4521TIP3   OH235053   4.770   2.260   5.273  0.1840  0.1510  0.0590
 4521TIP3    H135054   4.749   2.347   5.306  0.1708  0.0535  0.3105
 4521TIP3    H235055   4.828   2.223   5.339 -2.7272 -1.4662  1.9453
 4522TIP3   OH235056   6.813   3.397  12.855 -0.3407 -0.1239  0.2608
 4522TIP3    H135057   6.846   3.434  12.937 -1.8901  0.2061  0.7804
 4522TIP3    H235058   6.835   3.461  12.788  0.0081  0.1085  0.5928
 4523TIP3   OH235059   5.318   1.265  13.991 -0.0201  0.1122  0.4223
 4523TIP3    H135060   5.400   1.314  13.993 -0.0762  0.2085  2.1993
 4523TIP3    H235061   5.251   1.329  14.017 -0.8757  0.3007 -1.9439
 4524TIP3   OH235062   3.394   0.762  11.767  0.0931  0.0448  0.3000
 4524TIP3    H135063   3.464   0.749  11.832  1.0193  0.1982 -0.6298
 4524TIP3    H235064   3.315   0.773  11.819  0.7400 -0.2418  1.3908
 4525TIP3   OH235065   6.394   0.454   3.810  0.3186  0.3787 -0.0755
 4525TIP3    H135066   6.350   0.479   3.729 -0.4451 -2.1119 -0.5364
 4525TIP3    H235067   6.481   0.492   3.804 -0.0875  1.1444 -1.5522
 4526TIP3   OH235068   2.722   3.248  12.425  0.3864  0.4071  0.5353
 4526TIP3    H135069   2.759   3.324  12.380 -1.1007  1.0839  0.3969
 4526TIP3    H235070   2.754   3.254  12.514  3.0459 -0.7215 -0.2536
 4527TIP3   OH235071   4.995   0.720  16.411 -0.8036  0.2910  0.3770
 4527TIP3    H135072   4.937   0.723  16.488 -1.1410  0.5686  0.1160
 4527TIP3    H235073   5.081   0.745  16.446 -0.9297  0.3081  0.6850
 4528TIP3   OH235074   2.891   3.866   4.007 -0.8024  1.0097 -0.1704
 4528TIP3    H135075   2.830   3.896   4.075 -1.2473 -1.1750  0.4998
 4528TIP3    H235076   2.954   3.937   3.997 -1.5979  1.9978  1.4636
 4529TIP3   OH235077   2.729   6.787  16.133 -0.3833  0.0215  0.0021
 4529TIP3    H135078   2.785   6.808  16.058  0.0656 -0.3895  0.2147
 4529TIP3    H235079   2.641   6.809  16.104  0.0352  2.0551  0.1685
 4530TIP3   OH235080   0.821   1.531  15.065  0.2119 -0.0874 -0.3100
 4530TIP3    H135081   0.746   1.476  15.088  0.6229  0.0848  1.6688
 4530TIP3    H235082   0.897   1.478  15.089  0.6225  1.1254  1.1845
 4531TIP3   OH235083   6.654   3.462  16.321 -0.4963  0.4737 -0.0786
 4531TIP3    H135084   6.728   3.457  16.260  1.4840 -0.3741  2.2259
 4531TIP3    H235085   6.648   3.374  16.359 -0.8487  1.2712  1.8224
 4532TIP3   OH235086   6.666   5.495   1.649 -0.0165 -0.2533  0.5565
 4532TIP3    H135087   6.647   5.415   1.698 -0.2416 -0.3969  0.2415
 4532TIP3    H235088   6.739   5.471   1.592 -0.0706 -0.2301  0.4775
 4533TIP3   OH235089   5.180   4.370  12.994  0.1705 -0.0820  0.0984
 4533TIP3    H135090   5.130   4.433  12.940 -0.3610 -0.1313  0.5237
 4533TIP3    H235091   5.247   4.337  12.935 -0.4746 -0.2219 -0.5762
 4534TIP3   OH235092   5.444   0.945   1.751  0.3312  0.0910  0.2394
 4534TIP3    H135093   5.413   0.855   1.757  0.7887 -0.0481  0.5757
 4534TIP3    H235094   5.534   0.942   1.784  1.1688  0.2505 -1.8516
 4535TIP3   OH235095   6.846   4.654  13.673 -0.5007 -0.6432  0.3844
 4535TIP3    H135096   6.933   4.630  13.706 -1.0533 -1.3877  1.3339
 4535TIP3    H235097   6.846   4.622  13.582  0.5671  0.2799  0.0345
 4536TIP3   OH235098   3.025   3.503   2.216  0.0732  0.2403 -0.5040
 4536TIP3    H135099   2.943   3.454   2.208 -0.4451  1.1104 -0.6162
 4536TIP3    H235100   3.039   3.541   2.129  0.0997  0.8720 -0.2242
 4537TIP3   OH235101   6.686   2.300  14.987 -0.5719  0.0818  0.0426
 4537TIP3    H135102   6.605   2.351  14.985 -1.1588 -0.8417 -0.2990
 4537TIP3    H235103   6.687   2.260  15.074 -0.2466  0.4680  0.2155
 4538TIP3   OH235104   2.225   5.551   0.832 -0.3719  0.0710  0.3958
 4538TIP3    H135105   2.172   5.624   0.799 -0.5411 -0.3488 -0.2638
 4538TIP3    H235106   2.315   5.584   0.827 -0.5347  0.7033  1.3101
 4539TIP3   OH235107   5.845   0.947   5.723  0.3714 -0.0779 -0.2027
 4539TIP3    H135108   5.885   0.925   5.807  2.7825  0.0495 -1.2423
 4539TIP3    H235109   5.815   1.037   5.733  2.0412  0.4821  0.0947
 4540TIP3   OH235110   3.626   6.303   0.704  0.1090  0.7694  0.1657
 4540TIP3    H135111   3.688   6.367   0.739 -0.3117  0.7770  0.9222
 4540TIP3    H235112   3.605   6.335   0.617 -0.3469  1.8421  0.6569
 4541TIP3   OH235113   0.913   5.165   2.279  0.3512 -0.2598  1.0177
 4541TIP3    H135114   0.886   5.110   2.353 -2.6382  0.5138  0.6212
 4541TIP3    H235115   0.864   5.246   2.290  0.8439  0.3859 -1.1161
 4542TIP3   OH235116   6.588   4.801   0.968 -0.0991 -0.6743  0.1929
 4542TIP3    H135117   6.546   4.881   0.935  1.7146  0.1334 -0.2837
 4542TIP3    H235118   6.529   4.731   0.941 -1.8504  0.4960  0.8141
 4543TIP3   OH235119   0.818   4.185  14.404  0.3233  0.7176  0.3807
 4543TIP3    H135120   0.748   4.229  14.356 -0.0998 -1.9075 -1.6715
 4543TIP3    H235121   0.886   4.170  14.338  0.7466 -0.9241  1.1449
 4544TIP3   OH235122   4.363   0.310   2.918 -0.0541 -0.1174 -0.0063
 4544TIP3    H135123   4.406   0.262   2.848 -2.1428 -0.0279 -1.4590
 4544TIP3    H235124   4.312   0.243   2.965 -1.0319  0.2623 -0.4975
 4545TIP3   OH235125   3.181   5.785  14.099 -0.4209  0.2187 -0.3820
 4545TIP3    H135126   3.107   5.728  14.122  0.9102 -0.9762  1.2548
 4545TIP3    H235127   3.208   5.823  14.183  1.2956 -0.0043 -0.8000
 4546TIP3   OH235128   4.354   3.501  13.072 -0.0558 -0.1934 -0.1399
 4546TIP3    H135129   4.309   3.433  13.122  0.3489  0.4349  1.1285
 4546TIP3    H235130   4.432   3.457  13.037 -0.0571 -0.5183  0.2548
 4547TIP3   OH235131   1.393   0.035  13.215  0.2738 -0.1052  0.1004
 4547TIP3    H135132   1.337   0.112  13.218  0.7395  0.2043  2.5145
 4547TIP3    H235133   1.346  -0.026  13.158 -1.0710  1.2028 -0.2522
 4548TIP3   OH235134   5.522   1.973   3.553 -0.4882  0.0644 -0.2086
 4548TIP3    H135135   5.604   1.927   3.571 -0.2635  0.1830 -0.8979
 4548TIP3    H235136   5.532   2.007   3.464  0.1308  3.1867  0.9649
 4549TIP3   OH235137   2.330   5.334   4.741 -0.0460  0.5294  0.5326
 4549TIP3    H135138   2.324   5.259   4.800 -0.6365  0.6040  0.5723
 4549TIP3    H235139   2.240   5.353   4.716  0.1916  0.4822 -0.4166
 4550TIP3   OH235140   3.267   5.133  11.977  0.4202 -0.0503 -0.8165
 4550TIP3    H135141   3.190   5.090  12.012 -0.0261 -0.3431 -2.0952
 4550TIP3    H235142   3.336   5.117  12.042  0.2525 -2.5846 -1.1567
 4551TIP3   OH235143   4.877   4.719  12.312  0.3921 -0.2287 -0.2533
 4551TIP3    H135144   4.965   4.707  12.347  0.7460  1.6943 -0.3376
 4551TIP3    H235145   4.820   4.704  12.387  0.7304 -1.8103 -0.2728
 4552TIP3   OH235146   4.084   2.187  13.368  0.1944 -0.7265 -0.9575
 4552TIP3    H135147   4.029   2.122  13.412  0.3425 -0.5525 -0.4992
 4552TIP3    H235148   4.066   2.177  13.275 -3.1504  1.5366 -0.7268
 4553TIP3   OH235149   4.672   1.098   0.780  0.2297 -0.4033  0.2179
 4553TIP3    H135150   4.640   1.167   0.838 -1.4197 -0.0365 -1.0473
 4553TIP3    H235151   4.656   1.017   0.828  2.0557  0.0401  1.6595
 4554TIP3   OH235152   2.991   3.454  14.984  0.0416 -0.3400 -0.3577
 4554TIP3    H135153   2.965   3.456  15.076 -0.4985  0.0743 -0.5170
 4554TIP3    H235154   3.084   3.477  14.984 -0.6910  3.1484 -0.1750
 4555TIP3   OH235155   4.903   2.094  14.222  0.0886  0.3855 -0.3277
 4555TIP3    H135156   4.818   2.106  14.178 -0.1687 -0.8340 -0.1916
 4555TIP3    H235157   4.897   2.149  14.299  0.9502  3.4471 -2.2688
 4556TIP3   OH235158   0.836   0.720   5.656 -0.1123 -0.0304 -0.1348
 4556TIP3    H135159   0.927   0.737   5.632  0.8815 -1.2000  2.5369
 4556TIP3    H235160   0.817   0.633   5.620  0.2287 -0.3016  0.3374
 4557TIP3   OH235161   5.977   2.196  12.895  0.7987 -0.1719 -0.3339
 4557TIP3    H135162   5.955   2.218  12.986  1.8861  1.0623 -0.3475
 4557TIP3    H235163   6.003   2.279  12.856  0.6815 -0.7491 -1.6958
 4558TIP3   OH235164   6.065   4.636  10.598 -0.3982  0.3271 -0.0689
 4558TIP3    H135165   6.046   4.572  10.530  0.0937  0.5513 -0.4166
 4558TIP3    H235166   5.995   4.701  10.589 -1.3718 -0.5554  0.8052
 4559TIP3   OH235167   0.796   2.607  11.634  0.0995  0.0812  0.1299
 4559TIP3    H135168   0.835   2.677  11.582 -0.4897 -0.8246 -1.6047
 4559TIP3    H235169   0.836   2.526  11.601 -1.1777 -0.6229  0.2140
 4560TIP3   OH235170   0.703   1.829   4.858 -0.4286 -0.1778  0.2107
 4560TIP3    H135171   0.679   1.784   4.939 -0.8250 -0.2561  0.0498
 4560TIP3    H235172   0.744   1.761   4.804 -1.4585 -0.4727 -0.2243
 4561TIP3   OH235173   2.618   2.929   4.227 -0.2255 -0.7004  0.2102
 4561TIP3    H135174   2.545   2.967   4.177 -1.6345 -0.0570  2.5725
 4561TIP3    H235175   2.584   2.920   4.316  2.4782 -0.7398  1.3469
 4562TIP3   OH235176   5.792   2.576  16.561  0.1969 -0.3712 -0.2635
 4562TIP3    H135177   5.871   2.624  16.585  0.1170 -0.2832 -0.1762
 4562TIP3    H235178   5.731   2.643  16.531 -0.1325 -0.3499  0.4447
 4563TIP3   OH235179   6.195   3.034  14.065 -0.0728 -0.0744 -0.0300
 4563TIP3    H135180   6.290   3.029  14.059  0.0568  2.7027 -1.9154
 4563TIP3    H235181   6.170   3.106  14.007 -3.6293 -2.7151 -2.2501
 4564TIP3   OH235182   2.340   0.576  15.760  0.2012  0.3833  0.7452
 4564TIP3    H135183   2.423   0.559  15.714 -1.1250 -0.0050 -1.6841
 4564TIP3    H235184   2.350   0.665  15.795  0.6453  1.5834 -2.1058
 4565TIP3   OH235185   1.111   2.458  15.699  0.0561 -0.3239 -0.0267
 4565TIP3    H135186   1.169   2.388  15.668 -0.4972  0.0631 -2.1022
 4565TIP3    H235187   1.141   2.536  15.652 -3.0044 -0.4077 -2.4230
 4566TIP3   OH235188   0.269   0.675   2.680  0.0195  0.2218  0.1433
 4566TIP3    H135189   0.270   0.753   2.736 -0.2252  1.4980 -1.5480
 4566TIP3    H235190   0.196   0.623   2.713  1.0914 -0.0651  2.2449
 4567TIP3   OH235191   1.630   2.442   1.630 -0.3847 -0.0840 -0.5712
 4567TIP3    H135192   1.549   2.415   1.588 -0.6082  0.0874 -0.2539
 4567TIP3    H235193   1.603   2.478   1.714 -0.0898  1.0029 -0.9259
 4568TIP3   OH235194   2.249   4.915   3.673 -0.4395 -0.2280 -0.3431
 4568TIP3    H135195   2.324   4.938   3.619 -0.1383 -0.3229  0.0234
 4568TIP3    H235196   2.175   4.960   3.634 -0.0957  0.2838 -0.4064
 4569TIP3   OH235197   4.353   3.573   4.575 -0.1734 -0.0635 -0.4413
 4569TIP3    H135198   4.365   3.663   4.543  0.2325  0.3831  0.9234
 4569TIP3    H235199   4.301   3.531   4.506 -2.3511  1.8312 -0.1031
 4570TIP3   OH235200   3.733   1.659  14.271 -0.1432 -0.1325  0.0341
 4570TIP3    H135201   3.723   1.576  14.225  0.0548 -0.4612  0.5848
 4570TIP3    H235202   3.698   1.643  14.358 -0.2218  0.4008  0.1073
 4571TIP3   OH235203   0.825   0.518  17.112 -0.3314  0.5948 -0.4369
 4571TIP3    H135204   0.910   0.563  17.118 -1.3952  2.5173  1.4773
 4571TIP3    H235205   0.844   0.427  17.134  1.5405  0.4869 -2.1888
 4572TIP3   OH235206   5.733   6.145  11.488 -0.0856 -0.3686  0.3449
 4572TIP3    H135207   5.646   6.124  11.453 -0.5851  1.2226  0.5562
 4572TIP3    H235208   5.717   6.214  11.552  1.3227 -0.1972  0.5409
 4573TIP3   OH235209   2.631   5.130   5.731  0.2358  0.4421 -0.1403
 4573TIP3    H135210   2.623   5.187   5.807  1.4091  0.6369 -0.1372
 4573TIP3    H235211   2.543   5.127   5.693 -0.0766  1.3780  0.4795
 4574TIP3   OH235212   2.484   5.452   0.329  0.0372 -0.1145 -0.2773
 4574TIP3    H135213   2.513   5.496   0.249 -0.5676  1.6344  0.4174
 4574TIP3    H235214   2.565   5.419   0.369  0.4335 -0.2285 -1.1436
 4575TIP3   OH235215   2.055   5.233  15.619 -0.3305 -0.1095 -0.2429
 4575TIP3    H135216   2.034   5.224  15.712 -0.9160 -2.7278 -0.5731
 4575TIP3    H235217   2.086   5.147  15.592  0.1810  0.6860 -2.4174
 4576TIP3   OH235218   6.129   6.243   0.122  0.4201 -0.4341 -0.3910
 4576TIP3    H135219   6.135   6.337   0.107  1.1602 -0.4924 -0.4813
 4576TIP3    H235220   6.186   6.226   0.197 -1.8151 -0.4224  1.4332
 4577TIP3   OH235221   3.694   5.462   4.604 -0.2276 -0.2233 -0.3091
 4577TIP3    H135222   3.752   5.523   4.559 -1.2247 -0.3376 -1.8149
 4577TIP3    H235223   3.608   5.506   4.603 -0.9982 -1.6905 -1.5703
 4578TIP3   OH235224   0.791   1.003  11.550 -0.0043 -0.4160  0.2481
 4578TIP3    H135225   0.777   0.960  11.635 -0.1742 -0.9520 -0.0489
 4578TIP3    H235226   0.884   0.989  11.531 -0.1182 -0.8950  0.0252
 4579TIP3   OH235227   5.092   2.857  15.834  0.0088  0.7801  0.5744
 4579TIP3    H135228   5.000   2.834  15.846 -0.1655  1.7895  1.3525
 4579TIP3    H235229   5.103   2.862  15.739 -0.8184  0.9307  0.4754
 4580TIP3   OH235230   5.057   0.540  16.215 -0.0902 -0.1104 -0.5322
 4580TIP3    H135231   4.992   0.538  16.145 -0.1116  0.6937 -0.5502
 4580TIP3    H235232   5.018   0.599  16.281  0.7214  0.5791 -0.6570
 4581TIP3   OH235233   6.653   5.888   2.714  0.0962  0.6486  0.8161
 4581TIP3    H135234   6.580   5.848   2.761 -0.9682  0.4143 -0.9367
 4581TIP3    H235235   6.721   5.821   2.713 -1.3067 -0.8576 -1.2503
 4582TIP3   OH235236   3.893   5.178   4.405  0.0451  0.2033  0.1664
 4582TIP3    H135237   3.828   5.153   4.471 -0.4542 -0.8887 -0.7038
 4582TIP3    H235238   3.920   5.095   4.365 -0.6193  0.9011 -1.8689
 4583TIP3   OH235239   5.920   2.691  16.851 -0.2145 -0.3776 -0.0397
 4583TIP3    H135240   5.944   2.784  16.847 -0.4584 -0.2205  1.3486
 4583TIP3    H235241   5.998   2.645  16.822 -0.1277  0.2545 -0.8693
 4584TIP3   OH235242   1.380   0.067  11.940  0.0374 -0.6040 -0.4334
 4584TIP3    H135243   1.376   0.124  11.863  1.1487 -0.1594 -0.1745
 4584TIP3    H235244   1.294   0.077  11.981 -0.2551 -0.1601 -1.1269
 4585TIP3   OH235245   1.325   2.935  10.465  0.3150  0.2999 -0.4574
 4585TIP3    H135246   1.379   2.880  10.408 -1.6109 -0.7281 -1.3717
 4585TIP3    H235247   1.312   3.015  10.416  0.1441  0.1227 -0.7053
 4586TIP3   OH235248   5.656   2.332  16.584 -0.3088 -0.7789 -0.1296
 4586TIP3    H135249   5.622   2.312  16.497 -0.1534 -0.5642 -0.2388
 4586TIP3    H235250   5.678   2.425  16.581  0.3735 -0.9354 -0.0921
 4587TIP3   OH235251   3.156   2.611  12.612 -0.1386 -0.4548 -0.3599
 4587TIP3    H135252   3.099   2.654  12.548 -0.2005 -0.3068 -0.2053
 4587TIP3    H235253   3.218   2.561  12.559 -0.5633 -0.8067 -0.5225
 4588TIP3   OH235254   4.081   0.067   5.396  0.4998 -0.1983 -0.1732
 4588TIP3    H135255   4.063   0.057   5.489 -0.5625 -0.7155 -0.4169
 4588TIP3    H235256   4.162   0.118   5.392 -0.9598  2.3730  1.0150
 4589TIP3   OH235257   3.195   6.389   5.578 -0.7945  0.3705 -0.6230
 4589TIP3    H135258   3.231   6.311   5.619 -1.3658 -0.6546 -1.9896
 4589TIP3    H235259   3.189   6.453   5.649 -1.1706 -1.1226  0.7420
 4590TIP3   OH235260   4.830   5.040   6.063 -0.1301  0.2238 -0.6095
 4590TIP3    H135261   4.777   4.969   6.027 -1.5711  1.2715 -0.6497
 4590TIP3    H235262   4.850   5.011   6.152 -0.5078 -0.3404 -0.6993
 4591TIP3   OH235263   5.893   5.468   0.620 -0.2590  0.1892  0.2213
 4591TIP3    H135264   5.872   5.506   0.534  2.4648 -1.3428 -1.2823
 4591TIP3    H235265   5.838   5.390   0.626 -1.0976  0.7813  0.2757
 4592TIP3   OH235266   1.834   4.162  14.242  0.0511  0.4889  0.4522
 4592TIP3    H135267   1.881   4.134  14.321 -0.3792  0.0696  0.5659
 4592TIP3    H235268   1.780   4.087  14.219 -0.4231  0.9007  0.2116
 4593TIP3   OH235269   1.211   0.066  12.594  0.1635  0.1290 -0.2290
 4593TIP3    H135270   1.138   0.011  12.562  0.3296 -0.6553  0.7094
 4593TIP3    H235271   1.286   0.037  12.542  0.4614 -1.2362  0.9090
 4594TIP3   OH235272   3.519   4.372   4.837 -0.1411  0.0702  0.4216
 4594TIP3    H135273   3.443   4.424   4.863 -0.2052 -0.3655  1.1343
 4594TIP3    H235274   3.526   4.385   4.742 -3.8181 -3.3285 -0.5716
 4595TIP3   OH235275   0.325   6.489  15.462  0.0938 -0.4445  0.6015
 4595TIP3    H135276   0.269   6.456  15.532 -0.8424  1.2191  0.6711
 4595TIP3    H235277   0.321   6.584  15.470  0.9380 -0.2435 -0.9693
 4596TIP3   OH235278   2.727   0.508   2.514  0.1025  0.1515 -0.0273
 4596TIP3    H135279   2.699   0.554   2.435  1.6292 -0.8431 -1.2044
 4596TIP3    H235280   2.720   0.415   2.492  0.1999 -0.1431  1.1378
 4597TIP3   OH235281   3.593   1.525  16.229  0.2479 -0.1112 -0.9425
 4597TIP3    H135282   3.611   1.587  16.158  0.6419  1.2930  0.3258
 4597TIP3    H235283   3.552   1.451  16.185  1.4637  0.2143 -2.7889
 4598TIP3   OH235284   1.019   1.570   4.926  0.4263 -0.2901 -0.1206
 4598TIP3    H135285   1.013   1.519   5.007 -1.4948 -1.4688 -0.9134
 4598TIP3    H235286   0.997   1.659   4.953  2.4431 -0.0932  1.0574
 4599TIP3   OH235287   4.011   5.166  10.976  0.3412  0.2078  0.0973
 4599TIP3    H135288   3.934   5.140  10.924 -0.7333  1.2327  1.1209
 4599TIP3    H235289   4.080   5.179  10.911 -1.0053  1.6122 -1.1357
 4600TIP3   OH235290   4.932   6.363  13.903  0.5307 -0.3823 -0.2719
 4600TIP3    H135291   5.021   6.355  13.936  0.3547 -0.0006  0.3099
 4600TIP3    H235292   4.894   6.437  13.952  0.0788 -0.1727 -0.9187
 4601TIP3   OH235293   5.140   3.420  15.674  0.3172  0.8108 -0.3068
 4601TIP3    H135294   5.116   3.510  15.652  0.3215  0.5927 -1.2797
 4601TIP3    H235295   5.078   3.394  15.743 -1.0480  0.8909 -1.4528
 4602TIP3   OH235296   1.047   3.198   2.488 -0.5641 -0.3805 -0.2646
 4602TIP3    H135297   1.094   3.124   2.449  0.7539  0.4079 -0.2170
 4602TIP3    H235298   1.053   3.267   2.423 -1.8742 -0.3195 -0.3485
 4603TIP3   OH235299   1.367   4.607   2.752  0.0310  0.1833  0.2714
 4603TIP3    H135300   1.335   4.561   2.830 -0.8912  0.8041  0.2757
 4603TIP3    H235301   1.422   4.543   2.708 -1.7557 -1.2065 -0.0818
 4604TIP3   OH235302   0.848   3.897   1.177 -0.1689 -0.5503 -0.8238
 4604TIP3    H135303   0.780   3.875   1.240 -1.1701 -1.5009 -2.1923
 4604TIP3    H235304   0.911   3.825   1.183  0.3004 -0.0996 -0.1706
 4605TIP3   OH235305   4.415   2.112  13.754  0.7536  0.6443  0.6046
 4605TIP3    H135306   4.363   2.045  13.798 -1.0052  1.8436  0.4815
 4605TIP3    H235307   4.445   2.071  13.673  1.5061 -0.6283  1.4885
 4606TIP3   OH235308   0.114   4.626   2.935  0.1776 -0.2139 -0.3332
 4606TIP3    H135309   0.199   4.623   2.891 -0.3160  0.4305 -1.3777
 4606TIP3    H235310   0.135   4.645   3.027  1.1000  1.2635 -0.8122
 4607TIP3   OH235311   3.856   1.904  14.321  0.2587  0.2590 -0.4126
 4607TIP3    H135312   3.807   1.823  14.306  2.3829 -1.2361  0.2052
 4607TIP3    H235313   3.834   1.929  14.410 -1.3328  1.0981 -0.9979
 4608TIP3   OH235314   5.009   3.455   5.512 -0.0672 -0.0338 -0.1663
 4608TIP3    H135315   4.981   3.411   5.592 -2.5277 -0.3424 -1.1063
 4608TIP3    H235316   5.103   3.441   5.509 -0.3473 -2.9883  0.9686
 4609TIP3   OH235317   2.555   3.440  15.226  0.5578  0.4523  0.3011
 4609TIP3    H135318   2.646   3.420  15.204  0.1148 -1.8313  0.3524
 4609TIP3    H235319   2.558   3.468  15.317  1.2441  0.9387  0.1450
 4610TIP3   OH235320   6.122   1.088  12.700 -0.0891  1.0798  0.0771
 4610TIP3    H135321   6.163   1.133  12.775  0.2395  0.1966  0.4493
 4610TIP3    H235322   6.194   1.040  12.659  0.0278  2.6547 -1.6821
 4611TIP3   OH235323   1.081   0.350   3.552 -0.1403  0.1621  0.3909
 4611TIP3    H135324   1.032   0.424   3.516 -0.0094  0.3129  0.5205
 4611TIP3    H235325   1.163   0.350   3.502  0.1437  0.5195  0.8500
 4612TIP3   OH235326   2.620   0.190   3.997 -0.0418 -1.2468  0.1283
 4612TIP3    H135327   2.531   0.215   4.023  1.1581  0.5799  2.9479
 4612TIP3    H235328   2.632   0.231   3.911 -1.0398  0.8665  0.9351
 4613TIP3   OH235329   3.130   0.435  12.344 -0.2529 -0.5174 -0.1948
 4613TIP3    H135330   3.212   0.397  12.377 -0.4181 -0.5540  0.1697
 4613TIP3    H235331   3.119   0.395  12.258  1.0285  0.7741 -1.0244
 4614TIP3   OH235332   2.939   0.083  16.872  0.2543 -0.0978  0.3093
 4614TIP3    H135333   2.994   0.159  16.891  1.0202 -0.3969 -0.6721
 4614TIP3    H235334   2.984   0.037  16.802 -0.5365 -1.1179  0.4470
 4615TIP3   OH235335   4.457   1.234   3.209  0.6000  0.8971 -0.2612
 4615TIP3    H135336   4.455   1.281   3.292 -0.7789 -0.9028  0.8114
 4615TIP3    H235337   4.403   1.287   3.150 -1.8299  0.2585  1.2290
 4616TIP3   OH235338   0.998   0.251  15.659 -0.1533 -0.2328  0.5496
 4616TIP3    H135339   0.993   0.345  15.642 -1.0857 -0.3261  0.2121
 4616TIP3    H235340   1.081   0.238  15.703  0.4127  0.6284 -0.2357
 4617TIP3   OH235341   6.082   2.887  14.384  0.0425 -0.5532  0.1665
 4617TIP3    H135342   6.130   2.957  14.341 -0.3723  0.5008  1.3743
 4617TIP3    H235343   5.991   2.915  14.382 -0.0741 -0.8259  1.0526
 4618TIP3   OH235344   1.411   1.601  11.480  0.4664  0.0723 -0.3139
 4618TIP3    H135345   1.382   1.528  11.534 -1.0269 -0.2862 -1.5235
 4618TIP3    H235346   1.505   1.587  11.469 -0.1892 -3.5723 -3.1311
 4619TIP3   OH235347   4.992   5.395   1.511 -0.0748 -0.1297  0.2947
 4619TIP3    H135348   5.044   5.329   1.556 -0.0738 -0.4442 -0.1673
 4619TIP3    H235349   5.046   5.474   1.515 -0.0084 -0.1927  0.7068
 4620TIP3   OH235350   2.825   2.451   4.122 -0.6953 -0.2653 -0.1975
 4620TIP3    H135351   2.794   2.538   4.143  0.2403  0.4600 -1.6158
 4620TIP3    H235352   2.870   2.461   4.038  0.0119 -1.9752 -0.0798
 4621TIP3   OH235353   0.960   2.858  15.585  0.7290  0.7210 -0.2317
 4621TIP3    H135354   1.002   2.941  15.608  1.9503  0.1537 -0.3518
 4621TIP3    H235355   1.032   2.796  15.577 -0.1481 -0.3084 -0.3720
 4622TIP3   OH235356   3.319   6.089   5.939 -0.5277 -0.9002  0.0527
 4622TIP3    H135357   3.398   6.053   5.979 -0.4591 -3.4891 -2.1504
 4622TIP3    H235358   3.251   6.025   5.959 -1.4596 -0.0572 -0.3277
 4623TIP3   OH235359   3.921   1.877  12.759 -0.5298 -0.0991 -0.2309
 4623TIP3    H135360   4.016   1.864  12.755 -0.5116 -1.3007  2.2727
 4623TIP3    H235361   3.904   1.945  12.694  1.8100 -0.9107 -1.8439
 4624TIP3   OH235362   2.915   5.796  16.647  0.5036  0.2595 -0.2056
 4624TIP3    H135363   2.945   5.749  16.724  2.5496  0.9472 -0.5320
 4624TIP3    H235364   2.959   5.881  16.651 -0.4739  0.8630 -1.3897
 4625TIP3   OH235365   2.605   0.911  11.620 -0.3241  0.3681  0.2109
 4625TIP3    H135366   2.628   0.966  11.545  0.6208  2.2674  1.8037
 4625TIP3    H235367   2.510   0.917  11.626 -0.3266  0.9177 -0.2894
 4626TIP3   OH235368   2.499   5.605   4.812  0.4047  0.0967  0.8842
 4626TIP3    H135369   2.525   5.561   4.731 -1.3758 -1.2388  0.9643
 4626TIP3    H235370   2.537   5.552   4.882  0.4769  0.2196  0.9370
 4627TIP3   OH235371   1.415   0.798  15.200  0.0061  0.3049 -0.2000
 4627TIP3    H135372   1.404   0.884  15.159  1.1975  0.4125 -0.3116
 4627TIP3    H235373   1.352   0.798  15.272 -0.5822  0.9451 -0.6980
 4628TIP3   OH235374   1.105   5.374   5.124 -0.8500  0.3873  0.3321
 4628TIP3    H135375   1.143   5.300   5.078  0.6615  0.9532  0.6200
 4628TIP3    H235376   1.011   5.357   5.124 -0.6618 -0.7614 -0.9163
 4629TIP3   OH235377   5.735   2.280   3.640  0.1375 -0.0749 -0.3100
 4629TIP3    H135378   5.830   2.290   3.630  0.4340 -1.7077  0.5881
 4629TIP3    H235379   5.722   2.187   3.654 -1.5400  0.2224  0.3237
 4630TIP3   OH235380   0.604   1.385  11.021 -0.5864 -0.0217 -0.1443
 4630TIP3    H135381   0.661   1.462  11.033  0.7784 -1.1376  0.8681
 4630TIP3    H235382   0.594   1.377  10.926 -0.2457  1.0405 -0.2885
 4631TIP3   OH235383   1.499   5.455   2.745 -0.0836 -0.2055 -0.5162
 4631TIP3    H135384   1.558   5.529   2.732  0.3414 -0.3231  0.6062
 4631TIP3    H235385   1.458   5.442   2.660  0.6276  0.6372 -1.0103
 4632TIP3   OH235386   1.929   3.755  16.716  0.2528 -0.0773 -0.6042
 4632TIP3    H135387   1.927   3.829  16.655 -0.3638  0.1027 -0.3747
 4632TIP3    H235388   1.929   3.796  16.803 -0.7237 -0.3435 -0.4655
 4633TIP3   OH235389   4.558   4.174  12.939 -0.3696  0.1786  0.7318
 4633TIP3    H135390   4.545   4.214  13.025  0.3569  0.1966  0.8366
 4633TIP3    H235391   4.491   4.106  12.934 -0.5812  0.3443  1.2067
 4634TIP3   OH235392   2.942   4.201  10.935  0.1900  0.2854 -0.3409
 4634TIP3    H135393   2.915   4.188  11.026  2.1376 -1.3646  0.0937
 4634TIP3    H235394   2.860   4.203  10.886 -0.8864  0.6227  1.3813
 4635TIP3   OH235395   0.977   2.117  15.664  0.0753  0.0081 -0.0373
 4635TIP3    H135396   0.999   2.194  15.612 -0.0539  0.3470  0.4042
 4635TIP3    H235397   1.057   2.099  15.714 -0.2036  0.4217  0.5577
 4636TIP3   OH235398   0.533   4.950  15.720  0.5961 -0.3618  0.5179
 4636TIP3    H135399   0.544   5.011  15.793  0.3983  1.5201 -0.9407
 4636TIP3    H235400   0.442   4.961  15.694  1.0049 -0.0136 -0.8249
 4637TIP3   OH235401   1.844   2.969  17.090  0.2310  0.3237 -0.6205
 4637TIP3    H135402   1.813   2.881  17.067 -0.6058  0.0756  1.2842
 4637TIP3    H235403   1.846   3.016  17.007  0.7249 -1.4879 -1.6938
 4638TIP3   OH235404   0.821   4.899  11.598  0.0753  0.4243 -0.4498
 4638TIP3    H135405   0.825   4.806  11.574  0.8660  0.4432 -0.3961
 4638TIP3    H235406   0.841   4.946  11.517 -2.1235  0.6211 -0.9595
 4639TIP3   OH235407   4.092   0.360  13.131  0.4353  0.1627  0.3569
 4639TIP3    H135408   4.169   0.350  13.075  0.1362 -2.7373  0.3447
 4639TIP3    H235409   4.017   0.344  13.074 -0.1364  1.3165  0.7416
 4640TIP3   OH235410   5.371   4.289  16.520 -0.5208  0.0698 -0.7648
 4640TIP3    H135411   5.300   4.248  16.471 -2.2339 -1.7968  2.8604
 4640TIP3    H235412   5.391   4.227  16.590  1.2127  2.7438  1.3267
 4641TIP3   OH235413   5.247   1.824  10.799 -0.2453  0.0970  0.1540
 4641TIP3    H135414   5.235   1.733  10.773 -0.2858  0.2694 -0.4725
 4641TIP3    H235415   5.234   1.825  10.893  3.0572 -1.1322  0.7458
 4642TIP3   OH235416   2.639   4.225   0.075  0.2285 -0.1812  0.3544
 4642TIP3    H135417   2.700   4.155   0.050 -0.3159 -0.5411  0.0072
 4642TIP3    H235418   2.657   4.296   0.012  1.0463  0.1549  0.9460
 4643TIP3   OH235419   1.116   6.320   2.561 -0.0009  0.1182  0.5146
 4643TIP3    H135420   1.145   6.231   2.585  2.1766  0.6290  0.0099
 4643TIP3    H235421   1.135   6.372   2.639 -0.2940  0.3318  0.4405
 4644TIP3   OH235422   0.291   4.404   3.706  0.0035 -0.2911 -0.1054
 4644TIP3    H135423   0.203   4.419   3.671 -0.4821 -1.2277  0.6579
 4644TIP3    H235424   0.347   4.398   3.629 -0.7629 -0.5922 -0.6511
 4645TIP3   OH235425   2.409   4.971   1.920  0.6260  0.1082 -0.8631
 4645TIP3    H135426   2.458   5.017   1.851  1.0384 -0.1603 -0.7542
 4645TIP3    H235427   2.355   5.038   1.961  0.9104  0.4102 -0.9826
 4646TIP3   OH235428   1.211   1.764  15.074 -0.0068  0.7975 -0.0232
 4646TIP3    H135429   1.280   1.806  15.126  0.9098  1.4799 -1.7178
 4646TIP3    H235430   1.141   1.747  15.137  1.9206 -0.5303  1.9191
 4647TIP3   OH235431   0.699   3.391   2.818  0.2663 -0.4870 -0.1133
 4647TIP3    H135432   0.690   3.357   2.729  0.5623  0.5459 -0.5485
 4647TIP3    H235433   0.730   3.481   2.807 -0.1126 -0.1976  1.0202
 4648TIP3   OH235434   2.995   3.564   2.902 -0.4411 -0.1122  0.6730
 4648TIP3    H135435   3.021   3.603   2.818  1.4214 -2.6662 -0.0232
 4648TIP3    H235436   2.899   3.565   2.899 -0.4194  0.7841 -1.0295
 4649TIP3   OH235437   0.350   6.195   4.469 -0.2094  0.7685 -0.1392
 4649TIP3    H135438   0.273   6.240   4.434 -1.0903 -0.9702 -0.5018
 4649TIP3    H235439   0.318   6.148   4.546  0.0995 -1.2626 -1.1994
 4650TIP3   OH235440   2.285   4.825   4.447  0.2288 -0.9424 -0.4411
 4650TIP3    H135441   2.193   4.847   4.462 -0.0526  0.5180 -3.4418
 4650TIP3    H235442   2.286   4.730   4.440 -1.5004 -0.9089 -2.2589
 4651TIP3   OH235443   0.850   1.654   2.834  0.3549 -0.3311 -0.2174
 4651TIP3    H135444   0.757   1.662   2.810  0.3004  0.0088  0.0838
 4651TIP3    H235445   0.890   1.734   2.799  0.2075  0.3452  1.0817
 4652TIP3   OH235446   2.075   6.176   1.354 -0.0615  0.3554  0.0496
 4652TIP3    H135447   2.104   6.117   1.285 -0.9375 -1.9218  1.5285
 4652TIP3    H235448   2.150   6.183   1.414  0.7774  2.5031 -1.1172
 4653TIP3   OH235449   3.853   1.893   2.350  0.4591 -0.1554  0.1393
 4653TIP3    H135450   3.775   1.934   2.386  0.2128 -0.8248  0.3855
 4653TIP3    H235451   3.877   1.827   2.414  1.6439  0.5018  0.4126
 4654TIP3   OH235452   3.071   0.094  14.512 -0.1889  0.1777  0.7972
 4654TIP3    H135453   3.089   0.174  14.461  1.9706 -1.2900 -0.9522
 4654TIP3    H235454   3.110   0.111  14.597  2.6970  0.1181 -0.3969
 4655TIP3   OH235455   3.759   4.023   1.031  0.0759  0.3647  0.9373
 4655TIP3    H135456   3.726   3.995   1.117  0.8829  0.4884  1.2965
 4655TIP3    H235457   3.851   4.044   1.047  0.4428 -0.3598 -0.1293
 4656TIP3   OH235458   3.858   1.865  13.007  0.0053 -0.2346  0.1396
 4656TIP3    H135459   3.876   1.880  12.915  0.2096  1.5426  0.4330
 4656TIP3    H235460   3.845   1.770  13.014  1.2583 -0.5700 -1.4662
 4657TIP3   OH235461   0.432   5.482  11.360  0.2366  0.0895 -0.7367
 4657TIP3    H135462   0.474   5.549  11.307  0.3102  1.5900  1.0900
 4657TIP3    H235463   0.357   5.527  11.400  0.6046 -0.7067  0.9621
 4658TIP3   OH235464   0.862   3.222  12.806 -0.1580  0.1504  0.1903
 4658TIP3    H135465   0.807   3.171  12.866 -0.3413  1.3727  1.1034
 4658TIP3    H235466   0.831   3.312  12.816  0.3666  0.5054 -1.1461
 4659TIP3   OH235467   4.003   3.487   4.394 -0.0839 -0.1575 -0.2752
 4659TIP3    H135468   4.087   3.450   4.366 -0.2403 -0.2336 -0.6493
 4659TIP3    H235469   3.940   3.416   4.380  0.0463 -0.7041  1.6054
 4660TIP3   OH235470   4.253   0.260  12.336  0.0153  0.0436 -0.0346
 4660TIP3    H135471   4.185   0.304  12.386 -3.3095 -0.9460 -3.2085
 4660TIP3    H235472   4.270   0.317  12.261  3.3878  0.5759  0.9364
 4661TIP3   OH235473   2.425   4.588  12.430  0.3942 -0.3599  0.8418
 4661TIP3    H135474   2.438   4.677  12.463 -0.7908 -1.1877  3.8463
 4661TIP3    H235475   2.404   4.600  12.337  1.0998  2.3872  0.9423
 4662TIP3   OH235476   5.075   3.854   3.732 -0.2767 -0.1925  0.1435
 4662TIP3    H135477   5.028   3.933   3.759  0.0223  0.0704 -0.0978
 4662TIP3    H235478   5.007   3.790   3.713 -0.5238  0.0431  0.2375
 4663TIP3   OH235479   3.764   1.240  13.110  0.4267  0.5421 -0.6526
 4663TIP3    H135480   3.809   1.157  13.127  0.9080  0.6290 -1.4317
 4663TIP3    H235481   3.819   1.284  13.046 -0.3520  1.0080 -1.0190
 4664TIP3   OH235482   3.294   3.556   2.613  0.2741  0.6356 -0.1244
 4664TIP3    H135483   3.384   3.587   2.610  0.4070  0.3904  0.9943
 4664TIP3    H235484   3.276   3.526   2.523  1.4830  0.1768 -0.2320
 4665TIP3   OH235485   1.414   3.100  16.342  0.2298 -0.7032  0.7680
 4665TIP3    H135486   1.429   3.195  16.337  1.8135 -0.9797 -0.2920
 4665TIP3    H235487   1.422   3.070  16.252  1.7914 -2.1182  1.3386
 4666TIP3   OH235488   2.594   2.493   0.891  0.1952  0.2791  0.0434
 4666TIP3    H135489   2.540   2.496   0.970  0.0393  1.5399 -0.0917
 4666TIP3    H235490   2.574   2.408   0.851  1.0475 -0.8546  1.8743
 4667TIP3   OH235491   4.703   3.847   3.146  0.0534 -0.1441  0.4921
 4667TIP3    H135492   4.628   3.865   3.202  0.9631  0.0583  1.6777
 4667TIP3    H235493   4.715   3.752   3.152 -0.0411 -0.1647  0.3724
 4668TIP3   OH235494   4.604   1.538   2.360  0.7354  0.1414 -0.5454
 4668TIP3    H135495   4.612   1.592   2.281 -0.2153  0.2041 -0.6081
 4668TIP3    H235496   4.540   1.584   2.414 -0.2125 -0.9868 -0.6653
 4669TIP3   OH235497   1.248   0.927   4.901 -0.0673 -0.2706  0.2808
 4669TIP3    H135498   1.319   0.977   4.942 -0.2565 -0.7815  1.2490
 4669TIP3    H235499   1.196   0.993   4.856  2.0553 -0.0634 -2.0951
 4670TIP3   OH235500   0.868   2.873  15.965  0.1807  0.2275 -0.0389
 4670TIP3    H135501   0.894   2.798  15.913 -0.6540 -0.3159  0.3012
 4670TIP3    H235502   0.897   2.949  15.915 -1.6941 -0.2289 -1.9591
 4671TIP3   OH235503   3.526   2.658  13.298 -0.0601 -0.0612 -0.5711
 4671TIP3    H135504   3.490   2.738  13.260 -1.7826 -0.9252 -0.8612
 4671TIP3    H235505   3.541   2.679  13.390 -0.7078  0.5363 -0.5963
 4672TIP3   OH235506   1.129   2.758  13.698  0.2328  0.4794  0.3257
 4672TIP3    H135507   1.177   2.677  13.679  0.5362  0.0961  2.4413
 4672TIP3    H235508   1.046   2.748  13.651  0.5310 -0.7828  0.0328
 4673TIP3   OH235509   2.712   4.734  13.312  0.0225  0.6889 -0.4016
 4673TIP3    H135510   2.733   4.812  13.261  1.4867  1.4391  1.2500
 4673TIP3    H235511   2.728   4.759  13.403  0.8465 -1.6127  0.1787
 4674TIP3   OH235512   3.067   1.492   0.325 -0.5201  0.2291  0.1973
 4674TIP3    H135513   3.101   1.499   0.236  1.4876 -0.3506  0.8657
 4674TIP3    H235514   3.123   1.428   0.367 -2.7541 -1.1308  1.3183
 4675TIP3   OH235515   3.447   1.767  12.170 -0.0017 -0.8593  0.0802
 4675TIP3    H135516   3.426   1.751  12.262  0.3761  0.5523  0.4477
 4675TIP3    H235517   3.362   1.781  12.128 -0.1724 -1.4413  0.2295
 4676TIP3   OH235518   0.457   6.799   3.735 -0.6327  0.3838  0.1605
 4676TIP3    H135519   0.439   6.705   3.732 -0.1525  0.2675  0.8335
 4676TIP3    H235520   0.400   6.836   3.667 -2.3211 -0.1528  1.2056
 4677TIP3   OH235521   3.649   1.616   5.060 -0.0146  0.4817  0.0760
 4677TIP3    H135522   3.651   1.537   5.115  0.1446 -0.7093 -1.5539
 4677TIP3    H235523   3.587   1.595   4.991  1.6150  0.9018 -1.6088
 4678TIP3   OH235524   3.567   4.377  15.905  0.6755  0.1630  0.0102
 4678TIP3    H135525   3.574   4.412  15.994  3.4301 -1.5689  0.5979
 4678TIP3    H235526   3.609   4.444  15.850  2.1748 -0.2767  0.5556
 4679TIP3   OH235527   1.778   1.483   2.374 -0.3539 -0.3077  0.1708
 4679TIP3    H135528   1.848   1.462   2.436  1.4317  2.1837 -0.8151
 4679TIP3    H235529   1.760   1.576   2.388  0.2164  0.4080 -3.0208
 4680TIP3   OH235530   4.882   4.522   2.663  0.6887  0.2159 -0.2636
 4680TIP3    H135531   4.874   4.499   2.570 -1.0532 -3.2981  0.5813
 4680TIP3    H235532   4.797   4.558   2.687  1.1368  1.1233  0.0079
 4681TIP3   OH235533   0.032   4.497  15.955 -0.5732 -0.0371  0.1712
 4681TIP3    H135534   0.043   4.545  15.873  0.6343 -1.2388 -0.4276
 4681TIP3    H235535   0.117   4.506  15.999 -0.9185 -0.1378  0.8578
 4682TIP3   OH235536   6.180   4.367   6.835 -0.5094 -0.1389 -0.4664
 4682TIP3    H135537   6.161   4.277   6.861 -2.8760  0.6108  0.7605
 4682TIP3    H235538   6.093   4.408   6.828  0.5327  2.5776  1.0720
 4683TIP3   OH235539   6.746   0.633   0.377  0.5353 -0.1560 -0.4230
 4683TIP3    H135540   6.669   0.607   0.427  1.4079  0.5502  1.3758
 4683TIP3    H235541   6.711   0.680   0.301 -0.8669 -2.1183 -1.0922
 4684TIP3   OH235542   6.800   6.751  14.752  0.6530 -0.0680  0.0450
 4684TIP3    H135543   6.711   6.783  14.738  0.3702 -1.6218 -2.0178
 4684TIP3    H235544   6.809   6.676  14.694  3.1264 -0.3342  0.6480
 4685TIP3   OH235545   6.060   0.671  10.141  0.2762 -0.5828 -0.2177
 4685TIP3    H135546   6.014   0.741  10.094  0.4383 -1.2569 -1.4250
 4685TIP3    H235547   6.138   0.713  10.177 -0.4572  0.2150  0.5019
 4686TIP3   OH235548   5.825   5.572  11.614  0.1288 -0.4581 -0.1876
 4686TIP3    H135549   5.741   5.537  11.643  0.1771  0.3862  1.0014
 4686TIP3    H235550   5.803   5.632  11.543 -0.2054 -0.7555 -0.3354
 4687TIP3   OH235551   0.708   2.881  15.705 -0.3647 -0.9721  0.3848
 4687TIP3    H135552   0.727   2.956  15.761 -1.8163  0.4929 -1.0016
 4687TIP3    H235553   0.794   2.840  15.691  0.2694 -0.3719  2.2299
 4688TIP3   OH235554   6.597   6.536  12.745  0.8604 -0.1291  0.1990
 4688TIP3    H135555   6.516   6.500  12.780  0.6731 -0.3082 -0.4073
 4688TIP3    H235556   6.642   6.462  12.706  1.6245 -0.1514  1.0790
 4689TIP3   OH235557   1.484   0.267   2.437  0.1019 -0.5259 -0.2950
 4689TIP3    H135558   1.498   0.279   2.343  0.9442 -0.1592 -0.1335
 4689TIP3    H235559   1.389   0.262   2.447 -0.0902  1.2542 -0.9515
 4690TIP3   OH235560   1.661   2.012   1.068  0.5395  0.1128  0.0606
 4690TIP3    H135561   1.591   2.026   1.005  1.8904  0.7995 -1.3547
 4690TIP3    H235562   1.677   1.918   1.065 -0.5377 -0.1057  0.6683
 4691TIP3   OH235563   2.413   3.392   2.117  0.0212  0.0914 -0.5631
 4691TIP3    H135564   2.478   3.331   2.083  0.6485 -0.4174  1.3965
 4691TIP3    H235565   2.365   3.341   2.183 -0.6480  1.2037 -0.1704
 4692TIP3   OH235566   4.482   1.470  14.815 -0.3364  0.4561 -0.4603
 4692TIP3    H135567   4.479   1.378  14.839  2.3692 -0.3850 -2.7876
 4692TIP3    H235568   4.551   1.507  14.870 -0.0475  0.5987 -0.9155
 4693TIP3   OH235569   3.091   5.401   3.756 -0.5301 -0.0062 -0.2433
 4693TIP3    H135570   3.171   5.375   3.802 -0.2368  0.4722 -0.4785
 4693TIP3    H235571   3.080   5.333   3.689 -1.2430 -0.9835  0.8475
 4694TIP3   OH235572   5.434   5.186   3.605  0.0144  0.2769  0.1609
 4694TIP3    H135573   5.376   5.227   3.668  0.5498  0.5667  0.4778
 4694TIP3    H235574   5.521   5.191   3.646 -0.2294 -3.7550  1.5981
 4695TIP3   OH235575   5.758   5.303   1.004  0.0336  0.2735  0.2795
 4695TIP3    H135576   5.712   5.280   1.085  2.2336  3.1250  2.5278
 4695TIP3    H235577   5.832   5.243   1.001 -1.9047 -2.2671 -1.7342
 4696TIP3   OH235578   2.473   6.851   1.653 -0.5240  0.4742  0.3453
 4696TIP3    H135579   2.486   6.945   1.636  0.6822  0.6413  1.9608
 4696TIP3    H235580   2.531   6.808   1.590 -0.9717  0.8112 -0.3077
 4697TIP3   OH235581   0.044   0.153  13.767 -0.4006 -0.3147  0.2391
 4697TIP3    H135582   0.055   0.223  13.831  0.6903  0.1575 -0.4229
 4697TIP3    H235583   0.052   0.072  13.817  0.3473  0.0429  0.7087
 4698TIP3   OH235584   5.967   5.505  13.400  0.3728 -0.1360 -0.0273
 4698TIP3    H135585   6.003   5.506  13.311 -0.8850 -0.3168 -0.5696
 4698TIP3    H235586   6.040   5.528  13.456  1.0884  0.4333 -1.1574
 4699TIP3   OH235587   6.065   0.882   1.504 -0.2811  0.6359  0.1968
 4699TIP3    H135588   6.133   0.830   1.546 -1.2556  0.4042  1.5563
 4699TIP3    H235589   6.110   0.928   1.433  0.8386 -1.1314 -0.2866
 4700TIP3   OH235590   1.097   4.486  14.278  0.4572  0.8159  0.1485
 4700TIP3    H135591   1.156   4.436  14.334 -1.3393 -0.8269  0.6952
 4700TIP3    H235592   1.056   4.420  14.221 -0.7732  1.8838 -0.2643
 4701TIP3   OH235593   4.790   4.424  11.137 -0.2347  0.1922 -0.2512
 4701TIP3    H135594   4.837   4.486  11.193  0.5601 -0.7347  0.1154
 4701TIP3    H235595   4.762   4.478  11.062  0.8862  0.9028 -0.1899
 4702TIP3   OH235596   1.107   3.239   0.306 -0.1463  0.1148 -0.1737
 4702TIP3    H135597   1.160   3.163   0.283 -0.6857 -0.4858  0.5254
 4702TIP3    H235598   1.166   3.314   0.294  0.8713 -0.5389  0.5966
 4703TIP3   OH235599   4.562   1.356   5.360  0.5006 -0.1298  0.4426
 4703TIP3    H135600   4.534   1.361   5.451 -0.9883  0.9447 -0.0333
 4703TIP3    H235601   4.590   1.445   5.338  1.8028 -0.5951  0.1153
 4704TIP3   OH235602   1.373   4.624  13.678 -0.0969  0.0871  0.4920
 4704TIP3    H135603   1.303   4.658  13.622  0.1890  1.0602  0.7092
 4704TIP3    H235604   1.380   4.688  13.749  0.8084 -0.1549  0.6324
 4705TIP3   OH235605   1.441   5.504   0.349  0.6917  0.0938  0.4101
 4705TIP3    H135606   1.486   5.420   0.346  0.9176  0.2094  0.5069
 4705TIP3    H235607   1.380   5.496   0.422 -0.2289 -0.4491 -0.3902
 4706TIP3   OH235608   0.973   6.494  14.313  0.2831  0.0336 -0.5616
 4706TIP3    H135609   1.048   6.489  14.373 -1.0232 -0.9373  1.0572
 4706TIP3    H235610   0.995   6.566  14.254  1.8096  0.7818  0.8407
 4707TIP3   OH235611   5.643   0.309   4.805 -0.3811 -0.3011 -0.6863
 4707TIP3    H135612   5.634   0.259   4.724  0.1386  0.4283 -1.2084
 4707TIP3    H235613   5.684   0.392   4.778  0.0825 -0.1698  0.3638
 4708TIP3   OH235614   3.808   6.206  12.977 -0.1321  0.3214  0.1631
 4708TIP3    H135615   3.828   6.217  13.070 -0.8270 -1.1877  0.5147
 4708TIP3    H235616   3.775   6.292  12.950 -0.8289  0.5292  1.5528
 4709TIP3   OH235617   6.181   6.521   0.122 -0.8654  0.1051  1.2365
 4709TIP3    H135618   6.141   6.531   0.035  2.1504 -2.8453 -0.7832
 4709TIP3    H235619   6.121   6.564   0.182 -3.9339  0.9711 -2.1196
 4710TIP3   OH235620   6.563   6.253  15.703  0.4099  0.2039  0.0585
 4710TIP3    H135621   6.557   6.343  15.735  1.3043 -0.1638  1.3585
 4710TIP3    H235622   6.551   6.260  15.609  1.8517  1.8605 -0.0547
 4711TIP3   OH235623   1.588   3.244  11.315 -0.2322  0.6461  0.0292
 4711TIP3    H135624   1.499   3.279  11.313 -0.3057  0.4245 -0.8726
 4711TIP3    H235625   1.593   3.186  11.240  1.1160  1.7492 -0.7802
 4712TIP3   OH235626   1.846   0.115  15.439 -1.0334  0.7210  0.2327
 4712TIP3    H135627   1.930   0.150  15.409 -1.3761  0.4691 -1.0873
 4712TIP3    H235628   1.802   0.190  15.479  0.1376  0.6626  1.7338
 4713TIP3   OH235629   0.185   1.858  13.009 -0.0585  0.3569  0.1746
 4713TIP3    H135630   0.144   1.945  13.003 -1.2726  0.0042  2.2445
 4713TIP3    H235631   0.112   1.797  13.002  0.4742 -0.4027  0.9914
 4714TIP3   OH235632   6.088   1.511  12.123  0.6663 -0.8033  0.3173
 4714TIP3    H135633   6.025   1.439  12.126  0.1851 -0.5483 -1.9079
 4714TIP3    H235634   6.146   1.496  12.198 -2.8853 -0.1979  3.4933
 4715TIP3   OH235635   0.988   1.377   4.725  0.3873  0.0175  0.2572
 4715TIP3    H135636   0.896   1.404   4.719 -0.1963 -1.5373  1.3270
 4715TIP3    H235637   1.032   1.450   4.769 -0.6125  0.2359  0.9204
 4716TIP3   OH235638   6.279   5.191  16.812 -0.2552 -0.4405  0.2687
 4716TIP3    H135639   6.280   5.229  16.724 -0.3739 -0.8291  0.0976
 4716TIP3    H235640   6.188   5.162  16.825 -0.5801  0.8495  1.0596
 4717TIP3   OH235641   1.252   2.676  16.457  0.2726  0.4523  0.3546
 4717TIP3    H135642   1.305   2.643  16.384  0.2899  0.2780  0.4436
 4717TIP3    H235643   1.164   2.641  16.440  0.0740  1.1331 -0.0481
 4718TIP3   OH235644   6.699   6.323  12.623  0.5628 -0.1952 -0.5686
 4718TIP3    H135645   6.641   6.289  12.556 -0.0475 -1.3344  0.5049
 4718TIP3    H235646   6.728   6.246  12.672 -1.0925  0.7702  2.1329
 4719TIP3   OH235647   2.542   1.579  15.404  0.1694 -0.3603  0.2384
 4719TIP3    H135648   2.555   1.498  15.454 -0.8984 -0.0962  0.9844
 4719TIP3    H235649   2.627   1.623  15.409  0.2451 -0.5820  1.4207
 4720TIP3   OH235650   2.762   6.398   0.618  0.0826  0.0608 -0.4602
 4720TIP3    H135651   2.696   6.329   0.610  0.6464 -0.5541  0.0945
 4720TIP3    H235652   2.719   6.466   0.669 -0.5090  0.1678 -1.0869
 4721TIP3   OH235653   1.302   3.664   6.251  0.8537  0.6174  0.6756
 4721TIP3    H135654   1.349   3.580   6.253 -0.7673 -0.3241  1.5880
 4721TIP3    H235655   1.371   3.730   6.247  2.1842 -0.7494 -0.7932
 4722TIP3   OH235656   6.635   0.040  16.354 -0.1720  0.6155 -0.5650
 4722TIP3    H135657   6.724   0.034  16.389 -0.3917 -0.5779 -0.1544
 4722TIP3    H235658   6.585  -0.025  16.405 -1.5192  1.9706 -0.0904
 4723TIP3   OH235659   1.699   3.152   3.677 -0.2447 -0.4094 -0.0772
 4723TIP3    H135660   1.637   3.190   3.739  0.1772 -0.2485  0.2536
 4723TIP3    H235661   1.731   3.228   3.628 -2.1451 -0.7393 -1.9809
 4724TIP3   OH235662   4.898   3.495  12.518 -0.7543  0.0291 -0.0521
 4724TIP3    H135663   4.960   3.442  12.469 -1.9545 -1.0696 -0.4495
 4724TIP3    H235664   4.940   3.511  12.602  0.0762 -0.6200 -0.3330
 4725TIP3   OH235665   2.412   2.951  13.226  0.1782  0.0847  0.4469
 4725TIP3    H135666   2.505   2.952  13.250  0.1108  0.2446  0.7076
 4725TIP3    H235667   2.405   2.883  13.159  0.8656  1.5295 -1.1537
 4726TIP3   OH235668   0.615   0.053   5.505 -0.0884  0.5847  0.2084
 4726TIP3    H135669   0.611   0.147   5.522  1.2974  1.0662 -1.8448
 4726TIP3    H235670   0.557   0.015   5.571 -2.2838  3.0086 -0.1587
 4727TIP3   OH235671   1.265   3.170  14.480 -0.1816  0.5019 -0.5208
 4727TIP3    H135672   1.340   3.214  14.441 -0.4908 -0.6972 -2.5711
 4727TIP3    H235673   1.192   3.229  14.463 -0.3779 -0.1668 -2.1595
 4728TIP3   OH235674   5.925   2.064   2.254  0.0292  0.5418 -0.0770
 4728TIP3    H135675   5.832   2.084   2.265 -0.3264 -1.5572  1.1963
 4728TIP3    H235676   5.970   2.122   2.315 -0.7289 -0.3963  1.4346
 4729TIP3   OH235677   5.111   3.141  13.354  0.2465  0.3156  0.5075
 4729TIP3    H135678   5.195   3.187  13.362  0.5734 -0.1521 -0.1193
 4729TIP3    H235679   5.046   3.210  13.357  0.5299  0.5443  2.8186
 4730TIP3   OH235680   2.501   4.481   4.958  0.0946  0.0315  0.1296
 4730TIP3    H135681   2.476   4.516   5.044  0.3507 -0.8538  0.5800
 4730TIP3    H235682   2.581   4.529   4.936 -1.1867  1.8882 -0.6864
 4731TIP3   OH235683   2.714   4.241  12.972 -0.0245  0.1731  0.1865
 4731TIP3    H135684   2.721   4.281  12.885 -0.2670  0.9745  0.5262
 4731TIP3    H235685   2.699   4.314  13.031  0.3563 -0.3443  0.9409
 4732TIP3   OH235686   3.571   2.404  16.051 -0.1999 -0.4477  0.5317
 4732TIP3    H135687   3.634   2.378  16.119 -1.1208  1.9241  2.4259
 4732TIP3    H235688   3.490   2.359  16.076 -1.2098  2.2200  2.5867
 4733TIP3   OH235689   3.501   3.536  15.758  0.0798  0.5346  0.1737
 4733TIP3    H135690   3.449   3.527  15.679  0.0985  0.2447  0.1945
 4733TIP3    H235691   3.495   3.451  15.801  2.7960 -0.4692 -1.1944
 4734TIP3   OH235692   2.721   6.517  15.830  0.6057 -0.3685  0.2742
 4734TIP3    H135693   2.663   6.442  15.842  1.6528 -0.9140  2.4856
 4734TIP3    H235694   2.667   6.593  15.851  0.2427 -0.7311  0.6734
 4735TIP3   OH235695   0.572   1.800  11.450 -0.3213  0.6677  0.0650
 4735TIP3    H135696   0.592   1.706  11.455  1.3694  0.8824 -1.5184
 4735TIP3    H235697   0.478   1.805  11.466 -0.6841 -1.4466 -0.9633
 4736TIP3   OH235698   5.011   3.827  14.111  0.5612 -0.0233 -0.9296
 4736TIP3    H135699   5.088   3.855  14.061  0.4730 -0.2404 -1.1903
 4736TIP3    H235700   5.035   3.741  14.146  1.6728  1.2292  1.6797
 4737TIP3   OH235701   1.035   5.945  12.542  0.1155  0.1560  0.2584
 4737TIP3    H135702   1.127   5.956  12.566 -0.2789  0.3106  1.7941
 4737TIP3    H235703   1.027   5.992  12.459  1.6224 -0.7037 -0.4371
 4738TIP3   OH235704   4.142   3.648   6.375 -0.4751  0.3667 -0.0527
 4738TIP3    H135705   4.158   3.567   6.423 -2.0369 -0.2866 -0.5406
 4738TIP3    H235706   4.155   3.718   6.439  0.5611 -0.2820  0.4629
 4739TIP3   OH235707   3.612   1.000   3.123 -0.1596  0.8006  0.4442
 4739TIP3    H135708   3.610   0.905   3.111  1.7273  0.8180 -0.3915
 4739TIP3    H235709   3.599   1.013   3.217 -0.6284 -0.2560  0.5386
 4740TIP3   OH235710   0.127   5.641   1.142 -0.3066 -0.0012  0.1741
 4740TIP3    H135711   0.097   5.730   1.122  1.8974  0.7131 -0.2030
 4740TIP3    H235712   0.157   5.645   1.233  2.7288  0.5822 -0.7466
 4741TIP3   OH235713   2.240   3.378  13.384  0.0751  0.1244 -0.4395
 4741TIP3    H135714   2.162   3.339  13.345  0.6636 -0.4651 -1.0456
 4741TIP3    H235715   2.313   3.330  13.345  0.7452  0.6975  0.0866
 4742TIP3   OH235716   1.757   0.774  10.598 -0.4057  0.4703  0.0882
 4742TIP3    H135717   1.785   0.864  10.613 -1.4817  0.5635  1.7728
 4742TIP3    H235718   1.826   0.720  10.637  0.4559  0.5049 -1.3006
 4743TIP3   OH235719   6.342   3.975   5.729  0.0441  0.9366 -0.6449
 4743TIP3    H135720   6.353   4.070   5.716  0.1749  1.2989  1.6529
 4743TIP3    H235721   6.432   3.941   5.727  0.2798  1.3289  1.2671
 4744TIP3   OH235722   6.644   4.370   3.618 -0.6140  0.4352 -0.3268
 4744TIP3    H135723   6.677   4.280   3.619  0.5494  0.8449  0.4441
 4744TIP3    H235724   6.655   4.400   3.528 -1.4207 -0.3350 -0.6874
 4745TIP3   OH235725   2.508   5.480  12.192  0.2183 -0.3366 -0.1787
 4745TIP3    H135726   2.574   5.434  12.141 -0.5788 -1.3698 -0.3016
 4745TIP3    H235727   2.549   5.563  12.215  1.3995 -0.7888 -0.6065
 4746TIP3   OH235728   2.254   6.481  14.829  0.3765  0.1789 -0.1970
 4746TIP3    H135729   2.269   6.516  14.742 -0.2208 -1.3023 -0.9298
 4746TIP3    H235730   2.251   6.386  14.817  0.0848 -0.0518  1.4061
 4747TIP3   OH235731   3.632   4.233   5.242  0.3811  1.0331 -0.5956
 4747TIP3    H135732   3.697   4.223   5.311 -0.8235 -0.0779  0.4426
 4747TIP3    H235733   3.592   4.319   5.259 -0.1084  0.6463  0.3136
 4748TIP3   OH235734   4.944   1.177   0.895  0.3387 -0.1818  0.4045
 4748TIP3    H135735   4.950   1.125   0.974  0.2907  0.0426  0.5565
 4748TIP3    H235736   4.859   1.154   0.857 -0.6401  1.3051  1.5550
 4749TIP3   OH235737   1.298   5.573   6.057 -0.3460 -0.1603 -0.7025
 4749TIP3    H135738   1.345   5.633   5.999  0.2965 -0.4798 -0.5187
 4749TIP3    H235739   1.266   5.628   6.128 -0.1889  0.0491 -0.7944
 4750TIP3   OH235740   2.324   1.090  11.984 -0.3876 -0.0107  0.5416
 4750TIP3    H135741   2.256   1.103  11.917 -0.3427 -0.0590  0.4861
 4750TIP3    H235742   2.281   1.111  12.066 -0.5724 -0.3844  0.5440
 4751TIP3   OH235743   4.022   4.564   5.864 -0.3132  0.6514  0.0854
 4751TIP3    H135744   4.112   4.597   5.870 -0.3323  0.9853 -1.1749
 4751TIP3    H235745   3.986   4.606   5.786 -1.0953 -0.6204 -0.2672
 4752TIP3   OH235746   4.405   2.082  16.479 -0.4100  0.2024 -0.3612
 4752TIP3    H135747   4.408   2.143  16.406  0.4767 -0.3895 -0.8282
 4752TIP3    H235748   4.355   2.007  16.446 -2.8368  1.2369  0.6805
 4753TIP3   OH235749   0.441   2.662  11.555  0.5490  0.0658  0.3527
 4753TIP3    H135750   0.461   2.751  11.586  2.0440  0.6124 -1.9787
 4753TIP3    H235751   0.527   2.622  11.540  0.0270 -0.0439 -3.1460
 4754TIP3   OH235752   6.104   6.446  12.075  0.1320  0.0563  0.0427
 4754TIP3    H135753   6.157   6.373  12.043 -0.0099 -0.6350  1.3222
 4754TIP3    H235754   6.164   6.521  12.075  0.4444 -0.1817 -0.7182
 4755TIP3   OH235755   4.969   2.176   4.781 -0.2955 -0.5501  0.0601
 4755TIP3    H135756   4.899   2.190   4.717  0.3329 -2.6178 -1.1718
 4755TIP3    H235757   5.004   2.089   4.760  1.0425 -0.6011  2.1870
 4756TIP3   OH235758   1.088   1.048  12.656 -0.3869  1.0462 -0.4142
 4756TIP3    H135759   1.108   1.122  12.713  1.6273  0.4056 -0.2142
 4756TIP3    H235760   1.174   1.014  12.630 -1.2570 -1.0885 -0.6621
 4757TIP3   OH235761   1.020   0.281   4.613  0.0428 -0.3043  0.1905
 4757TIP3    H135762   1.040   0.193   4.644  0.4829 -0.4342 -0.4527
 4757TIP3    H235763   1.021   0.335   4.692  1.3816 -0.5858  0.3877
 4758TIP3   OH235764   0.122   4.453  16.624 -0.5512 -0.1697  0.1561
 4758TIP3    H135765   0.137   4.536  16.578 -0.3796 -0.1266  0.2884
 4758TIP3    H235766   0.128   4.387  16.555  0.9699 -0.2245  0.2898
 4759TIP3   OH235767   5.883   2.585  13.194 -0.2977 -0.3317 -0.3014
 4759TIP3    H135768   5.801   2.595  13.146 -1.4897 -1.6360  1.3356
 4759TIP3    H235769   5.944   2.549  13.129 -1.4971 -0.9517 -1.1297
 4760TIP3   OH235770   3.716   1.786  12.469 -0.5445 -0.1471 -0.0747
 4760TIP3    H135771   3.702   1.857  12.406  1.7408  0.0011 -0.5121
 4760TIP3    H235772   3.811   1.781  12.479 -0.6017  2.1612  5.9715
 4761TIP3   OH235773   0.613   4.319   3.087 -0.3088  0.0106 -0.3464
 4761TIP3    H135774   0.610   4.390   3.151 -0.4596 -0.3830  0.0897
 4761TIP3    H235775   0.671   4.253   3.126  1.3990  0.6884 -1.5915
 4762TIP3   OH235776   3.199   4.293  16.660  0.2886 -0.2192 -0.2157
 4762TIP3    H135777   3.280   4.342  16.671  0.3430 -0.1282 -0.9350
 4762TIP3    H235778   3.134   4.359  16.637  0.4382 -0.5015 -1.5412
 4763TIP3   OH235779   3.768   4.078  11.326 -0.2806 -0.1637  0.2731
 4763TIP3    H135780   3.743   4.019  11.255 -0.2715  2.2799 -1.9065
 4763TIP3    H235781   3.686   4.100  11.370 -0.3827 -1.1068  0.5781
 4764TIP3   OH235782   1.887   3.439   6.281  0.2511  0.5456 -0.2592
 4764TIP3    H135783   1.824   3.509   6.265 -1.7230 -0.6706  1.5572
 4764TIP3    H235784   1.906   3.446   6.375 -0.1084 -1.3823 -0.0041
 4765TIP3   OH235785   0.099   4.306  14.911 -0.3916  0.3092  0.4351
 4765TIP3    H135786   0.065   4.330  14.825 -0.7264 -1.6565 -0.0255
 4765TIP3    H235787   0.192   4.289  14.896 -0.2709  0.7685  0.6444
 4766TIP3   OH235788   0.326   5.518   4.896 -0.0668 -0.0812 -0.1212
 4766TIP3    H135789   0.327   5.515   4.800  0.1548 -1.3993 -0.0920
 4766TIP3    H235790   0.418   5.512   4.921 -0.2038 -0.9444  0.1943
 4767TIP3   OH235791   0.751   3.703   3.331  0.1490 -0.0815  0.2056
 4767TIP3    H135792   0.834   3.740   3.359  0.7967 -0.4745 -1.0994
 4767TIP3    H235793   0.775   3.638   3.265 -1.2018 -0.0648 -0.3383
 4768TIP3   OH235794   1.300   1.087  15.970  0.3842  0.4702 -0.0073
 4768TIP3    H135795   1.312   1.109  16.062 -0.4934  2.8487 -0.4128
 4768TIP3    H235796   1.211   1.054  15.964  0.7975 -0.7373  0.1322
 4769TIP3   OH235797   5.386   1.151   5.457  0.1689 -0.5884  0.0219
 4769TIP3    H135798   5.379   1.202   5.538  0.1297 -1.1189  0.3627
 4769TIP3    H235799   5.446   1.080   5.480  0.0132 -0.8441 -0.3607
 4770TIP3   OH235800   1.719   5.472   1.910 -0.3238 -0.0193 -0.0820
 4770TIP3    H135801   1.645   5.412   1.906 -0.2159 -0.2497  0.9573
 4770TIP3    H235802   1.762   5.451   1.993  0.0237  1.1203  0.0515
 4771TIP3   OH235803   5.620   5.222   6.238  0.2599 -0.1234 -0.4269
 4771TIP3    H135804   5.646   5.170   6.162  1.9141 -2.4054  1.5267
 4771TIP3    H235805   5.547   5.173   6.276  2.3810 -1.7072  1.9227
 4772TIP3   OH235806   1.844   0.457   1.106 -0.5669  0.4647 -0.2341
 4772TIP3    H135807   1.758   0.452   1.064 -0.5534  0.5572 -0.2733
 4772TIP3    H235808   1.907   0.443   1.035 -0.5731 -1.2252  0.0479
 4773TIP3   OH235809   5.932   1.682  14.349 -0.0789 -0.0568  0.2175
 4773TIP3    H135810   6.027   1.672  14.356  0.0324 -0.1336 -1.2286
 4773TIP3    H235811   5.899   1.642  14.429  0.9786 -2.1171 -0.2904
 4774TIP3   OH235812   5.270   6.399   5.319  0.6912  0.6425 -0.4182
 4774TIP3    H135813   5.331   6.441   5.380  0.4669  0.7927 -0.2973
 4774TIP3    H235814   5.222   6.471   5.279  0.6976  0.5315 -0.6268
 4775TIP3   OH235815   1.584   2.473  16.007  0.4320  0.4176 -0.0530
 4775TIP3    H135816   1.657   2.411  15.998  0.0309 -0.0982  0.2036
 4775TIP3    H235817   1.586   2.524  15.925  1.8265  1.2429  0.4703
 4776TIP3   OH235818   5.059   1.070   1.482  0.1153  0.3797 -0.1874
 4776TIP3    H135819   5.040   1.031   1.567  0.4099  0.7628  0.0590
 4776TIP3    H235820   5.152   1.052   1.468 -0.1341 -0.4541 -0.8372
 4777TIP3   OH235821   5.646   3.465   2.545  0.1024  0.1377 -0.5775
 4777TIP3    H135822   5.668   3.390   2.489 -0.0447  0.1492 -0.6490
 4777TIP3    H235823   5.723   3.521   2.540  1.2933 -1.1707  1.4233
 4778TIP3   OH235824   6.013   6.361  13.345  0.1507  0.3443  0.3630
 4778TIP3    H135825   6.054   6.447  13.354  1.0134  0.0287 -0.3712
 4778TIP3    H235826   6.086   6.299  13.344 -0.0697 -0.0592 -3.2468
 4779TIP3   OH235827   4.894   3.673  16.910  0.1910 -0.0899 -0.0424
 4779TIP3    H135828   4.819   3.718  16.871 -1.5497 -0.6369  2.4449
 4779TIP3    H235829   4.951   3.744  16.942 -0.0634  0.3246 -0.4918
 4780TIP3   OH235830   4.272   3.258   3.573  0.2648 -0.0969  0.8419
 4780TIP3    H135831   4.319   3.212   3.642 -0.3258 -0.1439  1.2221
 4780TIP3    H235832   4.328   3.251   3.496  0.6519 -0.5600  1.1652
 4781TIP3   OH235833   3.773   6.812  13.042 -0.1325 -0.0595  0.8488
 4781TIP3    H135834   3.686   6.825  13.004 -0.0047  2.5635  1.3190
 4781TIP3    H235835   3.762   6.827  13.135  0.6893 -0.5781  1.0459
 4782TIP3   OH235836   0.652   1.171   4.213  0.2195  0.0062  0.6473
 4782TIP3    H135837   0.664   1.159   4.307  0.5499 -1.9657  0.3965
 4782TIP3    H235838   0.558   1.190   4.203  0.4555  1.8352  1.4573
 4783TIP3   OH235839   3.724   0.159   2.947  0.3985 -0.1866  0.5856
 4783TIP3    H135840   3.731   0.129   2.856  0.3194  1.6145 -0.0466
 4783TIP3    H235841   3.807   0.133   2.987  1.1516  0.4634 -0.4835
 4784TIP3   OH235842   6.606   0.835  13.948  0.6055 -0.0192  0.1004
 4784TIP3    H135843   6.573   0.746  13.937  2.2212 -0.4201 -2.2855
 4784TIP3    H235844   6.536   0.881  13.994 -0.3363 -2.4491  1.2741
 4785TIP3   OH235845   1.575   4.058   4.634  0.1590 -0.0275 -0.7709
 4785TIP3    H135846   1.584   4.070   4.729  0.1273  0.6749 -0.8536
 4785TIP3    H235847   1.522   3.979   4.625 -0.7907  0.5180 -0.1725
 4786TIP3   OH235848   1.880   1.250   4.171  0.0680  0.5046  0.6738
 4786TIP3    H135849   1.874   1.284   4.261 -1.2532 -0.0196  0.8062
 4786TIP3    H235850   1.971   1.262   4.147  0.3537  1.0365  1.9450
 4787TIP3   OH235851   1.142   4.493  10.604  0.0850 -0.1895  0.4181
 4787TIP3    H135852   1.059   4.533  10.580 -0.5907 -2.1941 -0.7343
 4787TIP3    H235853   1.171   4.544  10.680 -1.5657  1.3176  0.1176
 4788TIP3   OH235854   3.925   5.428  14.659 -0.3778 -0.0403  0.3134
 4788TIP3    H135855   3.868   5.371  14.608 -0.8669 -1.8572  2.7217
 4788TIP3    H235856   4.013   5.410  14.625 -0.7160 -0.8641 -0.1571
 4789TIP3   OH235857   3.743   4.133   1.932  0.1555 -0.2873  0.2304
 4789TIP3    H135858   3.693   4.056   1.957 -0.0703 -1.3318 -2.9568
 4789TIP3    H235859   3.721   4.199   1.997 -0.9745 -2.3923  2.0881
 4790TIP3   OH235860   1.133   0.082   5.531 -0.4557 -0.1514  0.2826
 4790TIP3    H135861   1.178   0.082   5.615  1.0945 -0.7414 -0.5111
 4790TIP3    H235862   1.088  -0.003   5.529  0.1192 -0.4565  0.2045
 4791TIP3   OH235863   2.674   3.536  11.769  0.0048 -0.5301  0.1999
 4791TIP3    H135864   2.658   3.616  11.720  1.1246 -0.1551  0.4266
 4791TIP3    H235865   2.675   3.563  11.860 -1.3880 -1.1128  0.4123
 4792TIP3   OH235866   0.090   5.127  12.370 -0.3484  0.1765  0.1110
 4792TIP3    H135867   0.183   5.141  12.353 -0.2249  0.6957  1.1416
 4792TIP3    H235868   0.087   5.058  12.436 -0.7464 -0.6198 -0.7239
 4793TIP3   OH235869   3.741   1.291  11.892 -1.0686 -1.0277 -0.0979
 4793TIP3    H135870   3.719   1.198  11.900  2.6308 -2.0873 -0.1655
 4793TIP3    H235871   3.811   1.305  11.956 -1.2544  1.6573 -0.3558
 4794TIP3   OH235872   0.075   1.043  13.114 -0.1665 -0.1928  0.1552
 4794TIP3    H135873   0.163   1.071  13.090 -0.3911 -0.3970 -0.9499
 4794TIP3    H235874   0.046   1.109  13.178 -0.0644  1.1885 -1.1682
 4795TIP3   OH235875   6.174   5.070  13.364  0.8404  0.4104 -0.4404
 4795TIP3    H135876   6.093   5.120  13.351  0.3447 -0.2473  0.0481
 4795TIP3    H235877   6.190   5.029  13.278  0.6123  0.4858 -0.5211
 4796TIP3   OH235878   4.776   1.994   0.643  0.0716 -0.0909  0.1609
 4796TIP3    H135879   4.807   1.908   0.613  0.4818 -0.6200  2.0040
 4796TIP3    H235880   4.856   2.039   0.672  0.2703  1.9377 -2.9472
 4797TIP3   OH235881   6.499   4.589   0.707  0.1646  0.5066 -0.1646
 4797TIP3    H135882   6.427   4.615   0.649 -1.0811 -2.6101 -0.2173
 4797TIP3    H235883   6.462   4.595   0.795 -0.0796 -0.6918 -0.1654
 4798TIP3   OH235884   2.545   3.083  11.030  0.2267 -0.2561  0.0706
 4798TIP3    H135885   2.488   3.153  11.062 -1.4621 -0.9805 -1.2141
 4798TIP3    H235886   2.486   3.008  11.016  1.0937 -0.5072 -3.0227
 4799TIP3   OH235887   3.848   1.938   1.944 -0.1058 -0.5668  0.2123
 4799TIP3    H135888   3.935   1.976   1.933  0.0022 -0.5695  1.0201
 4799TIP3    H235889   3.788   2.005   1.908  0.2539 -0.8231 -0.9029
 4800TIP3   OH235890   6.392   2.170  16.917  0.0053  0.4889 -0.1480
 4800TIP3    H135891   6.303   2.203  16.902 -0.8389 -1.8742 -0.8306
 4800TIP3    H235892   6.433   2.235  16.974 -1.2940  2.9189 -1.8137
 4801TIP3   OH235893   0.142   2.481  12.079 -0.3075  0.3786 -0.1469
 4801TIP3    H135894   0.050   2.464  12.058 -0.5989  0.3763  1.1023
 4801TIP3    H235895   0.176   2.524  12.000 -1.2590 -0.0130 -0.7935
 4802TIP3   OH235896   5.253   0.563   0.376  0.9432 -0.6629  0.3438
 4802TIP3    H135897   5.246   0.469   0.393  2.8491 -0.6245  1.7266
 4802TIP3    H235898   5.347   0.578   0.361  0.5034  0.8363 -1.1525
 4803TIP3   OH235899   3.717   4.244   3.918  0.0715 -0.2825 -0.0200
 4803TIP3    H135900   3.683   4.167   3.872  2.3671 -0.8856 -0.8481
 4803TIP3    H235901   3.752   4.210   4.000 -0.5998  0.1925  0.4718
 4804TIP3   OH235902   4.186   0.653  11.957 -0.3774  0.3792  0.2170
 4804TIP3    H135903   4.115   0.654  12.022 -0.5026 -1.3643  0.1353
 4804TIP3    H235904   4.151   0.700  11.882 -1.3372 -0.1826  0.3037
 4805TIP3   OH235905   6.236   5.747   1.436 -0.5173  0.1865  0.1779
 4805TIP3    H135906   6.227   5.676   1.372 -0.1125  0.7089 -0.4713
 4805TIP3    H235907   6.315   5.724   1.485  0.5558  0.9688 -1.0883
 4806TIP3   OH235908   1.612   6.445   4.736 -0.6918 -0.0553  0.1533
 4806TIP3    H135909   1.556   6.485   4.670 -0.1901  0.6918  0.1700
 4806TIP3    H235910   1.666   6.517   4.768 -0.1947 -0.6290  0.6191
 4807TIP3   OH235911   3.168   3.637  11.523  0.1151  0.2078  0.0878
 4807TIP3    H135912   3.241   3.579  11.544  0.7483  1.4173  1.3622
 4807TIP3    H235913   3.189   3.670  11.435 -0.6092 -1.9604 -0.9698
 4808TIP3   OH235914   2.217   3.009   1.058 -0.1361  0.2386  0.4285
 4808TIP3    H135915   2.296   3.063   1.064 -1.0434  1.5444  0.9575
 4808TIP3    H235916   2.202   3.000   0.964 -0.7562  2.1468  0.3038
 4809TIP3   OH235917   4.465   6.669  11.740 -0.2102  0.4967  0.2069
 4809TIP3    H135918   4.555   6.684  11.711  0.0213 -0.2407  0.5150
 4809TIP3    H235919   4.453   6.728  11.814  0.2263  0.1677  0.5463
 4810TIP3   OH235920   2.158   6.642  11.029  0.2848  0.4922 -0.4093
 4810TIP3    H135921   2.109   6.560  11.021  1.0497  0.1368 -1.7713
 4810TIP3    H235922   2.096   6.705  11.064 -1.2684  0.1674 -2.4273
 4811TIP3   OH235923   2.875   4.776   0.797 -0.2775  0.3496  0.6417
 4811TIP3    H135924   2.823   4.772   0.717  0.1014  1.3070  0.3297
 4811TIP3    H235925   2.913   4.864   0.797  1.3666 -0.3167  0.8390
 4812TIP3   OH235926   2.567   3.260  11.793 -0.0026  0.4360  0.1758
 4812TIP3    H135927   2.644   3.205  11.781 -0.2388  0.2014 -0.2949
 4812TIP3    H235928   2.577   3.330  11.728 -1.1270 -0.6623 -1.2559
 4813TIP3   OH235929   4.474   2.359   4.547 -0.0810 -0.1494 -0.1102
 4813TIP3    H135930   4.444   2.400   4.466 -1.4191 -1.8367 -0.5287
 4813TIP3    H235931   4.510   2.432   4.599  0.5961  0.9967 -2.0831
 4814TIP3   OH235932   5.117   4.567  14.482 -0.5708 -0.1768 -0.6002
 4814TIP3    H135933   5.152   4.503  14.544  2.2097 -0.4504 -2.2836
 4814TIP3    H235934   5.098   4.645  14.536 -1.0219 -1.3266  0.9828
 4815TIP3   OH235935   3.040   4.089  11.996 -0.3595 -0.0004  0.3990
 4815TIP3    H135936   3.135   4.101  11.991 -0.4592  0.5415 -0.2392
 4815TIP3    H235937   3.028   3.995  11.982  0.1412 -0.2431  1.4803
 4816TIP3   OH235938   6.602   5.653   4.327 -0.0519 -0.0063  0.3749
 4816TIP3    H135939   6.633   5.564   4.312 -0.2753  0.0395 -0.3928
 4816TIP3    H235940   6.604   5.663   4.423 -0.9313 -1.1669  0.5446
 4817TIP3   OH235941   3.597   3.709   5.700  0.0262 -0.1396  0.6539
 4817TIP3    H135942   3.612   3.672   5.787 -0.4986  0.0944  0.8464
 4817TIP3    H235943   3.510   3.679   5.676  0.0287  0.0910  0.3546
 4818TIP3   OH235944   3.258   2.662  14.908 -0.3391 -0.2084  0.1007
 4818TIP3    H135945   3.346   2.626  14.914 -0.1345  0.2081 -0.2870
 4818TIP3    H235946   3.241   2.668  14.814 -0.4319  0.5329  0.1566
 4819TIP3   OH235947   5.244   5.074   0.621 -0.0461  0.2984 -0.3516
 4819TIP3    H135948   5.279   5.001   0.569  1.7720  0.4179  0.6294
 4819TIP3    H235949   5.260   5.151   0.566 -0.4591  0.1485 -0.6879
 4820TIP3   OH235950   6.370   2.036   4.110  0.0165  0.5671  0.3117
 4820TIP3    H135951   6.308   1.971   4.078  0.7830 -1.1617  2.1112
 4820TIP3    H235952   6.454   2.012   4.072  0.6880 -0.7640  2.4646
 4821TIP3   OH235953   3.038   0.322   1.337 -0.2217 -0.1707  0.2224
 4821TIP3    H135954   3.034   0.406   1.291 -0.9407  1.1826  2.5963
 4821TIP3    H235955   2.953   0.282   1.320 -0.7622  0.6458  0.9247
 4822TIP3   OH235956   3.530   3.647  15.319  0.3825 -0.3471 -0.1109
 4822TIP3    H135957   3.523   3.553  15.337 -0.5612 -0.3072 -0.2101
 4822TIP3    H235958   3.546   3.686  15.405 -0.6124 -0.4842  0.1578
 4823TIP3   OH235959   1.698   1.604  11.928  0.0076  0.3938  0.1544
 4823TIP3    H135960   1.666   1.516  11.906  1.7111  0.1537 -1.7460
 4823TIP3    H235961   1.778   1.588  11.978 -0.5021  0.9137  1.1588
 4824TIP3   OH235962   4.559   4.282  13.198 -0.4835  0.1960  0.0007
 4824TIP3    H135963   4.514   4.308  13.278 -0.1659 -0.4827  0.4032
 4824TIP3    H235964   4.652   4.284  13.221 -0.4535 -1.7212  0.1947
 4825TIP3   OH235965   0.551   2.705   1.087 -0.1808  0.1685  0.0504
 4825TIP3    H135966   0.521   2.684   0.999  0.1595 -0.0395 -0.0181
 4825TIP3    H235967   0.489   2.661   1.145  0.0024 -0.2848 -0.0908
 4826TIP3   OH235968   6.489   1.211   0.144 -0.4178  0.6142  0.5649
 4826TIP3    H135969   6.507   1.269   0.218  0.0814  2.3411 -0.8377
 4826TIP3    H235970   6.574   1.175   0.119 -0.9854 -2.8870  2.9752
 4827TIP3   OH235971   2.302   3.410   4.208  0.3893 -0.2293 -0.3236
 4827TIP3    H135972   2.363   3.388   4.278 -1.2010 -0.6717  0.9948
 4827TIP3    H235973   2.279   3.325   4.169  1.5540  0.0368 -1.7132
 4828TIP3   OH235974   3.365   1.601   0.450 -0.3381 -0.2388 -0.2934
 4828TIP3    H135975   3.453   1.628   0.476 -0.4210 -0.6880  0.4731
 4828TIP3    H235976   3.366   1.506   0.456 -0.9539 -0.2331 -0.0230
 4829TIP3   OH235977   5.405   3.392   0.907 -0.5139 -0.8464  0.3820
 4829TIP3    H135978   5.426   3.478   0.873  0.5042 -0.9242  0.7725
 4829TIP3    H235979   5.334   3.360   0.851  0.3150 -0.4991 -0.9118
 4830TIP3   OH235980   3.707   1.822   2.122 -0.0436 -0.4081 -0.9631
 4830TIP3    H135981   3.769   1.875   2.071 -0.1461 -1.0897 -1.8073
 4830TIP3    H235982   3.691   1.875   2.200  1.5214 -0.1666 -0.7588
 4831TIP3   OH235983   6.493   0.037  11.349  0.1084  0.2547 -0.4360
 4831TIP3    H135984   6.403   0.069  11.341  0.7274  2.3282  0.2997
 4831TIP3    H235985   6.546   0.116  11.360  1.7745 -1.0321  1.4406
 4832TIP3   OH235986   0.567   4.624  14.827  0.5410 -0.3062  0.4175
 4832TIP3    H135987   0.618   4.704  14.834  1.4387 -0.9433  1.4286
 4832TIP3    H235988   0.625   4.561  14.785 -0.3558 -0.2960 -0.9114
 4833TIP3   OH235989   5.933   2.485   3.205 -0.2917  0.0079 -0.2808
 4833TIP3    H135990   5.991   2.559   3.191  0.1146 -0.1706  0.4286
 4833TIP3    H235991   5.991   2.410   3.212 -0.6029 -0.1751  0.4324
 4834TIP3   OH235992   5.562   1.714  17.096 -0.1759  0.1366  0.2385
 4834TIP3    H135993   5.640   1.695  17.148  0.8171 -0.3552 -1.3506
 4834TIP3    H235994   5.493   1.661  17.136  1.2199 -2.5166 -0.6374
 4835TIP3   OH235995   3.140   6.120   0.876  0.0326  1.1256 -0.2705
 4835TIP3    H135996   3.061   6.067   0.889  0.4443 -0.3107 -2.9181
 4835TIP3    H235997   3.212   6.058   0.889  0.5549  1.3111 -2.0527
 4836TIP3   OH235998   6.266   0.324  11.703 -0.2276  1.1275 -0.2659
 4836TIP3    H135999   6.253   0.378  11.626  0.5267  3.2337  1.0055
 4836TIP3    H236000   6.357   0.296  11.699 -0.7924 -0.7854 -1.2917
 4837TIP3   OH236001   0.715   6.202  11.949 -0.3041  0.2375 -0.0528
 4837TIP3    H136002   0.675   6.254  12.018  1.7260  0.4178  1.0864
 4837TIP3    H236003   0.672   6.117  11.954  0.0381  0.1231  1.7383
 4838TIP3   OH236004   3.136   2.382  10.959 -0.6582 -0.4034  0.6288
 4838TIP3    H136005   3.059   2.402  10.905  1.4896  1.9943 -1.8650
 4838TIP3    H236006   3.170   2.300  10.924 -0.4541  0.0784 -0.3559
 4839TIP3   OH236007   4.650   6.347  14.711  0.4516 -0.4033 -0.5309
 4839TIP3    H136008   4.647   6.391  14.626  1.3978 -1.1416 -0.9616
 4839TIP3    H236009   4.734   6.300  14.711  0.1243 -1.0178  0.5042
 4840TIP3   OH236010   6.775   4.519   1.456  1.0799  0.1929 -0.4012
 4840TIP3    H136011   6.789   4.479   1.370  1.6985 -1.9277  0.5980
 4840TIP3    H236012   6.838   4.474   1.514  0.0772  0.9016  1.3308
 4841TIP3   OH236013   3.512   0.023   3.451 -0.5340  0.0794 -0.7098
 4841TIP3    H136014   3.599  -0.009   3.475 -1.0180 -1.0603 -0.4245
 4841TIP3    H236015   3.516   0.034   3.356 -0.4001 -1.0497 -0.8537
 4842TIP3   OH236016   2.907   1.814   3.634 -0.4901 -0.8607  0.1586
 4842TIP3    H136017   2.840   1.751   3.661 -2.2583  1.1147  0.7744
 4842TIP3    H236018   2.905   1.881   3.703  2.7399 -1.0591  0.6046
 4843TIP3   OH236019   0.783   2.247  11.240 -0.2514  0.1937  0.0296
 4843TIP3    H136020   0.755   2.308  11.172  0.7183 -0.7427 -1.2657
 4843TIP3    H236021   0.707   2.239  11.298 -2.0582 -0.8841 -2.3326
 4844TIP3   OH236022   1.655   3.775   0.730  0.5200  0.1666  0.1132
 4844TIP3    H136023   1.583   3.740   0.784 -1.0356 -0.7802 -2.4025
 4844TIP3    H236024   1.725   3.792   0.793 -1.2732 -0.4933  2.4752
 4845TIP3   OH236025   4.577   3.555   5.052 -0.9945 -0.1979 -0.5650
 4845TIP3    H136026   4.543   3.484   5.106 -0.8248 -0.3206 -0.6177
 4845TIP3    H236027   4.671   3.539   5.049 -0.8690  0.3938 -0.0432
 4846TIP3   OH236028   0.378   0.474   1.266  0.1174  0.4955  0.3336
 4846TIP3    H136029   0.323   0.426   1.329  0.8285  0.7901  1.2026
 4846TIP3    H236030   0.464   0.433   1.275  0.3119  0.7884 -0.1949
 4847TIP3   OH236031   0.873   3.305   3.266 -0.1558  0.4392 -0.1186
 4847TIP3    H136032   0.859   3.327   3.358  0.6503  1.6491 -0.2774
 4847TIP3    H236033   0.834   3.217   3.257  0.5250 -0.0790  1.5682
 4848TIP3   OH236034   2.375   4.050   1.090  0.2342 -0.5079 -0.2442
 4848TIP3    H136035   2.313   3.987   1.055 -2.6969  1.7167  0.5097
 4848TIP3    H236036   2.381   4.118   1.022  2.3745 -0.9309 -0.5449
 4849TIP3   OH236037   4.986   6.526   1.027  0.6209 -0.4310  0.0793
 4849TIP3    H136038   5.005   6.499   0.937  0.6416 -2.2521  0.5710
 4849TIP3    H236039   5.027   6.457   1.081 -1.4456 -0.7186  1.3824
 4850TIP3   OH236040   5.434   0.529  12.212 -0.8207  0.0657 -0.5614
 4850TIP3    H136041   5.460   0.618  12.185 -0.8386  1.1987  2.6702
 4850TIP3    H236042   5.365   0.543  12.276 -1.4169 -2.3725 -0.5788
 4851TIP3   OH236043   4.553   5.733  10.450  0.0837  0.3064 -0.3932
 4851TIP3    H136044   4.627   5.741  10.510 -0.2708 -0.3073  0.1404
 4851TIP3    H236045   4.565   5.805  10.387  0.4584  0.9698  0.4131
 4852TIP3   OH236046   2.962   2.861   3.079  0.1219  0.3974 -0.3401
 4852TIP3    H136047   2.924   2.947   3.064 -1.2990 -0.1981 -0.3211
 4852TIP3    H236048   3.007   2.839   2.997  0.0213  0.9112 -0.5352
 4853TIP3   OH236049   0.360   4.508   0.691  0.0463  0.2557 -0.4635
 4853TIP3    H136050   0.399   4.467   0.769 -0.2769 -1.2839 -1.0753
 4853TIP3    H236051   0.430   4.561   0.654  1.1232 -1.2479 -0.6884
 4854TIP3   OH236052   5.674   2.314   6.173 -0.3012  0.2671  0.1454
 4854TIP3    H136053   5.603   2.326   6.235  0.4801 -0.8704  1.3098
 4854TIP3    H236054   5.753   2.339   6.221  0.2441  0.0343 -0.6063
 4855TIP3   OH236055   2.783   0.711  17.079 -0.1356  0.4358  0.2637
 4855TIP3    H136056   2.732   0.698  17.159  0.7863  1.0849  0.9771
 4855TIP3    H236057   2.719   0.707  17.009 -0.6217 -2.9849  0.7503
 4856TIP3   OH236058   4.005   2.898   5.481 -0.5817 -0.0336 -0.4008
 4856TIP3    H136059   4.062   2.875   5.407 -1.3564 -1.2619 -0.6316
 4856TIP3    H236060   4.036   2.985   5.508  2.4329 -1.2280  0.4481
 4857TIP3   OH236061   2.133   0.838  11.418 -0.3561  0.4980  0.1174
 4857TIP3    H136062   2.210   0.795  11.381 -0.1806  0.0429  0.9881
 4857TIP3    H236063   2.136   0.927  11.384  0.9258  0.6753  0.6620
 4858TIP3   OH236064   5.697   2.783   0.090 -0.3031 -0.1159 -0.8893
 4858TIP3    H136065   5.758   2.713   0.068 -2.0074 -1.6637 -0.8721
 4858TIP3    H236066   5.698   2.787   0.185 -1.4800 -1.3421 -0.8018
 4859TIP3   OH236067   2.257   0.465   0.708  0.1641 -0.0205 -0.1066
 4859TIP3    H136068   2.335   0.494   0.755 -0.4319 -0.9663  1.5668
 4859TIP3    H236069   2.280   0.474   0.616  1.7021  1.1201  0.3410
 4860TIP3   OH236070   5.374   2.878   2.664 -0.9297  0.8211  0.0342
 4860TIP3    H136071   5.306   2.926   2.712 -2.0971  0.7692 -1.4964
 4860TIP3    H236072   5.390   2.931   2.586 -0.4020 -0.0077 -0.4312
 4861TIP3   OH236073   6.343   5.545  11.896  0.5877 -0.3013 -0.6055
 4861TIP3    H136074   6.266   5.576  11.943  0.1933 -1.8347 -0.1933
 4861TIP3    H236075   6.390   5.625  11.871  0.0652  0.5903  1.1380
 4862TIP3   OH236076   5.750   6.181  15.685  0.1250  0.1057  0.5750
 4862TIP3    H136077   5.843   6.172  15.708  0.0286  2.0088  1.9091
 4862TIP3    H236078   5.719   6.091  15.677  1.8881 -0.5808  0.9425
 4863TIP3   OH236079   6.770   3.923   4.052 -0.1800  0.4150  1.0306
 4863TIP3    H136080   6.760   3.843   4.002 -2.3043  0.5626  1.1469
 4863TIP3    H236081   6.856   3.958   4.024  0.0269 -1.0127 -0.2489
 4864TIP3   OH236082   1.765   1.321  14.342  0.1907 -0.2430  0.2004
 4864TIP3    H136083   1.818   1.353  14.269 -0.3914  2.6540  0.9073
 4864TIP3    H236084   1.675   1.342  14.317 -0.2972 -1.7022  0.6232
 4865TIP3   OH236085   5.949   4.725  12.094  0.0483 -0.0550 -0.2937
 4865TIP3    H136086   5.966   4.730  12.188 -1.2755 -0.8772  0.0224
 4865TIP3    H236087   5.860   4.760  12.084  0.4153  0.6428 -1.3385
 4866TIP3   OH236088   5.731   5.072  12.187 -0.3502 -0.2451  0.2510
 4866TIP3    H136089   5.765   5.022  12.114 -1.9024 -0.5608 -0.3033
 4866TIP3    H236090   5.636   5.074  12.172 -0.4584  1.8189  0.9011
 4867TIP3   OH236091   3.405   3.731   5.258 -0.3229  0.1588 -0.3393
 4867TIP3    H136092   3.454   3.803   5.219 -1.8933  1.8620  0.6788
 4867TIP3    H236093   3.313   3.754   5.247 -0.8724 -1.3367  0.6495
 4868TIP3   OH236094   6.680   0.898  12.035  0.3148 -0.3567 -0.1095
 4868TIP3    H136095   6.587   0.889  12.054  0.4399 -0.2452  0.6074
 4868TIP3    H236096   6.694   0.992  12.023  0.5917 -0.1919  1.3021
 4869TIP3   OH236097   2.096   2.449  12.474  0.1815  0.0884 -0.0747
 4869TIP3    H136098   2.169   2.390  12.457  1.8913  1.3708  2.1983
 4869TIP3    H236099   2.023   2.391  12.498  1.7161 -1.2043  1.7946
 4870TIP3   OH236100   6.472   5.221   2.481 -0.5971 -0.0845 -0.0030
 4870TIP3    H136101   6.465   5.217   2.577 -2.2839  0.7594 -0.0665
 4870TIP3    H236102   6.434   5.139   2.451 -0.1187 -0.3245  0.0331
 4871TIP3   OH236103   3.238   4.423   5.301  0.4721  0.1563 -0.6198
 4871TIP3    H136104   3.212   4.334   5.323  1.3721 -0.3270 -1.4640
 4871TIP3    H236105   3.156   4.465   5.274  0.3997 -1.2465 -2.9133
 4872TIP3   OH236106   4.455   4.814  16.898 -0.4769 -0.1633  0.2428
 4872TIP3    H136107   4.528   4.757  16.918 -0.9387 -0.9495 -0.2500
 4872TIP3    H236108   4.437   4.799  16.805  0.1909  1.7268 -0.2273
 4873TIP3   OH236109   1.808   0.644   5.656  0.7144  0.0379  0.0164
 4873TIP3    H136110   1.901   0.661   5.668  0.5863  0.6854  0.1549
 4873TIP3    H236111   1.779   0.713   5.596  0.8054 -1.5825 -1.9953
 4874TIP3   OH236112   0.295   2.940   4.387 -0.0386  0.2330  0.2402
 4874TIP3    H136113   0.279   3.000   4.461 -1.3876  0.2773 -0.0540
 4874TIP3    H236114   0.213   2.891   4.379  0.0311  0.3454 -1.3436
 4875TIP3   OH236115   2.712   4.153  13.259 -0.6793  0.0866 -0.4401
 4875TIP3    H136116   2.735   4.240  13.292 -0.9338  0.5020 -1.3331
 4875TIP3    H236117   2.684   4.168  13.169 -1.3758 -0.8378 -0.3906
 4876TIP3   OH236118   2.580   4.364  12.144  0.5129 -0.1167 -0.2174
 4876TIP3    H136119   2.587   4.419  12.066 -0.4511  0.6742  0.2334
 4876TIP3    H236120   2.578   4.275  12.111  0.2662  0.2036 -1.0902
 4877TIP3   OH236121   2.032   6.291   5.179  0.2908  0.0706 -0.0722
 4877TIP3    H136122   1.962   6.231   5.202  0.2656 -0.7981 -2.1933
 4877TIP3    H236123   2.112   6.248   5.210  0.0841 -0.0167  0.3387
 4878TIP3   OH236124   6.105   3.113  12.701 -0.9807 -0.1017  0.2099
 4878TIP3    H136125   6.014   3.103  12.672 -0.6865  1.3478 -1.3423
 4878TIP3    H236126   6.117   3.207  12.712  0.9015 -0.0645 -1.6396
 4879TIP3   OH236127   6.737   0.089  11.093 -0.4541  0.5022 -0.1340
 4879TIP3    H136128   6.713   0.004  11.131  0.3978  1.0450  1.7443
 4879TIP3    H236129   6.794   0.068  11.019  0.9044 -0.5631  1.1601
 4880TIP3   OH236130   6.463   3.332   3.299 -0.3585  0.4085  0.4603
 4880TIP3    H136131   6.489   3.343   3.390  0.5155  1.9842  0.0410
 4880TIP3    H236132   6.412   3.410   3.278  1.3956  1.2312 -1.0368
 4881TIP3   OH236133   0.560   6.701  15.748 -0.3361 -0.5794  0.2220
 4881TIP3    H136134   0.599   6.713  15.661  1.1410 -1.4697  0.7253
 4881TIP3    H236135   0.540   6.790  15.777 -1.2046 -0.2908 -1.1586
 4882TIP3   OH236136   2.109   6.592   1.227 -0.4932 -0.1494  0.3984
 4882TIP3    H136137   2.031   6.608   1.174  0.2596  0.2376 -0.6042
 4882TIP3    H236138   2.158   6.673   1.224  0.4616 -0.7235  0.1628
 4883TIP3   OH236139   6.501   5.887   3.266 -0.2927  0.0724  0.4380
 4883TIP3    H136140   6.441   5.886   3.341 -1.7177 -3.4218 -0.5574
 4883TIP3    H236141   6.571   5.827   3.292 -0.2286 -0.3037 -0.5805
 4884TIP3   OH236142   1.509   6.652  12.033 -0.1837  0.0012 -0.1387
 4884TIP3    H136143   1.494   6.745  12.017  1.8482  0.6749  1.5040
 4884TIP3    H236144   1.460   6.632  12.113  0.2860 -0.0430  0.1430
 4885TIP3   OH236145   1.262   0.202   2.784  0.4551 -0.2175 -0.1461
 4885TIP3    H136146   1.322   0.275   2.767 -0.1578  0.1684 -0.7186
 4885TIP3    H236147   1.224   0.221   2.869  0.6755 -0.1332 -0.0661
 4886TIP3   OH236148   0.760   3.152  11.016 -0.4675  0.5213 -0.2991
 4886TIP3    H136149   0.668   3.179  11.010 -0.4893  0.5978  0.3491
 4886TIP3    H236150   0.809   3.227  10.984 -0.6846 -0.0797 -2.1389
 4887TIP3   OH236151   3.366   2.484  13.028 -0.4744 -0.0653  0.2661
 4887TIP3    H136152   3.297   2.476  12.962 -0.7284 -0.5930  0.5906
 4887TIP3    H236153   3.419   2.405  13.016 -1.0042 -0.5893  1.2295
 4888TIP3   OH236154   6.340   2.462   3.694  0.1554 -0.4806 -0.2714
 4888TIP3    H136155   6.262   2.507   3.726  1.3234  2.3842 -1.0623
 4888TIP3    H236156   6.377   2.419   3.771 -1.7525 -1.2912  0.2526
 4889TIP3   OH236157   0.072   5.505   5.033 -0.0782  0.2395 -0.2185
 4889TIP3    H136158   0.062   5.449   5.110 -1.9559 -0.8209 -1.1731
 4889TIP3    H236159   0.165   5.498   5.011  0.4910  0.5018  1.8577
 4890TIP3   OH236160   4.662   1.791  11.387  0.1926 -0.1139 -0.7572
 4890TIP3    H136161   4.660   1.833  11.473  2.3026 -0.8597 -0.2942
 4890TIP3    H236162   4.645   1.863  11.326  2.1390  1.1941  0.1090
 4891TIP3   OH236163   5.602   4.223  13.031 -0.7077 -0.0327  0.1972
 4891TIP3    H136164   5.578   4.183  13.114 -1.9598 -1.4939 -0.7913
 4891TIP3    H236165   5.588   4.317  13.043 -1.2031 -0.2614  1.5184
 4892TIP3   OH236166   0.592   4.579  10.886 -0.7254  0.6639 -0.1645
 4892TIP3    H136167   0.669   4.571  10.831 -1.1880 -0.2763 -0.7054
 4892TIP3    H236168   0.520   4.595  10.825 -1.3985 -1.3838  0.0300
 4893TIP3   OH236169   2.715   5.371  12.791 -0.3695  0.7461 -0.2243
 4893TIP3    H136170   2.650   5.402  12.854 -1.8571  0.2242 -1.4233
 4893TIP3    H236171   2.707   5.275  12.794 -1.6239  0.6998 -2.2337
 4894TIP3   OH236172   1.374   4.696   1.255 -0.0825  0.2083 -0.3445
 4894TIP3    H136173   1.419   4.718   1.336  1.3967  1.6676 -1.5052
 4894TIP3    H236174   1.298   4.755   1.253  0.9159  1.5213 -0.8782
 4895TIP3   OH236175   0.611   2.563  13.946 -0.4509 -0.2395 -0.1806
 4895TIP3    H136176   0.593   2.471  13.969 -0.5882 -0.2876 -0.4738
 4895TIP3    H236177   0.560   2.578  13.866  0.5219 -0.2639 -0.8270
 4896TIP3   OH236178   0.195   3.061   2.884 -0.2752 -0.1660 -0.2109
 4896TIP3    H136179   0.259   3.000   2.923 -0.3661  1.0452  1.9643
 4896TIP3    H236180   0.110   3.025   2.909 -0.4269 -0.6783 -1.3973
 4897TIP3   OH236181   1.345   1.590   2.404 -0.1322 -0.2761 -0.3615
 4897TIP3    H136182   1.382   1.652   2.341 -0.6376  0.5405  0.1411
 4897TIP3    H236183   1.417   1.572   2.464  0.3791 -1.1215 -1.1933
 4898TIP3   OH236184   5.996   5.505   5.948  0.3567  0.2781 -0.4006
 4898TIP3    H136185   5.973   5.447   6.021 -2.4206  1.2428 -0.3898
 4898TIP3    H236186   5.962   5.461   5.870  2.7737 -0.4574 -1.1404
 4899TIP3   OH236187   3.648   0.611  13.485  0.1933  0.3202  0.0106
 4899TIP3    H136188   3.690   0.534  13.524 -0.0791 -0.3087 -0.8846
 4899TIP3    H236189   3.572   0.627  13.540  0.5487  0.2899  0.5222
 4900TIP3   OH236190   2.668   6.270  11.943 -0.0485 -0.2581 -0.0435
 4900TIP3    H136191   2.633   6.187  11.911 -2.4293 -0.1788  1.9754
 4900TIP3    H236192   2.744   6.246  11.996 -1.8127 -1.4795  2.1070
 4901TIP3   OH236193   2.344   2.755  11.951  0.6633  0.2015 -0.7742
 4901TIP3    H136194   2.258   2.755  11.910  0.8729 -2.6825 -1.3860
 4901TIP3    H236195   2.401   2.713  11.887  1.6048 -1.7932  1.2458
 4902TIP3   OH236196   0.863   1.207  15.912 -0.8236 -0.0627  0.1275
 4902TIP3    H136197   0.902   1.273  15.855 -2.7295  0.4499 -0.6595
 4902TIP3    H236198   0.898   1.228  15.999  2.8078 -1.3793 -0.8132
 4903TIP3   OH236199   6.470   2.238   5.600  0.1701  0.0848 -0.1226
 4903TIP3    H136200   6.406   2.253   5.529 -0.6982  0.5900  0.7467
 4903TIP3    H236201   6.537   2.183   5.559 -1.2911 -1.2923 -0.8251
 4904TIP3   OH236202   3.967   0.110  12.882  0.4756 -0.2017 -0.3297
 4904TIP3    H136203   3.919   0.046  12.935  0.7782 -0.4240 -0.3182
 4904TIP3    H236204   3.918   0.191  12.891  1.7115  0.3574  2.0969
 4905TIP3   OH236205   4.234   4.195  11.417 -0.2907  0.2956  0.2151
 4905TIP3    H136206   4.158   4.227  11.369 -0.3748  1.0474  0.8271
 4905TIP3    H236207   4.308   4.212  11.359 -0.4671  0.5480  0.0622
 4906TIP3   OH236208   4.677   1.754  13.756 -0.5666  0.2798  0.3341
 4906TIP3    H136209   4.628   1.705  13.821  0.0152  0.8523  1.2212
 4906TIP3    H236210   4.763   1.712  13.753 -1.3936 -1.4463 -2.0424
 4907TIP3   OH236211   6.846   1.479  12.982 -0.0485  0.0888  0.2191
 4907TIP3    H136212   6.923   1.460  13.036 -0.4316 -1.8801  0.1403
 4907TIP3    H236213   6.835   1.574  12.989  3.1264  0.6465 -0.7868
 4908TIP3   OH236214   1.820   3.131  16.857 -0.0651  0.1474 -0.3128
 4908TIP3    H136215   1.801   3.211  16.906  2.1699  0.5795 -0.0527
 4908TIP3    H236216   1.883   3.158  16.791 -0.4393 -1.1322 -1.2240
 4909TIP3   OH236217   6.049   4.512   2.900 -0.4374  0.2856 -0.7281
 4909TIP3    H136218   6.051   4.571   2.975  0.6209 -1.1856  0.4700
 4909TIP3    H236219   6.131   4.464   2.905 -1.4210 -1.5756 -1.3971
 4910TIP3   OH236220   3.754   1.410   3.470  0.3706 -0.1881  0.1763
 4910TIP3    H136221   3.659   1.415   3.481  0.4721  2.3205  0.3080
 4910TIP3    H236222   3.785   1.379   3.555 -0.2400  0.1868  0.5453
 4911TIP3   OH236223   0.223   0.546  14.105  0.2174 -0.1059  0.1536
 4911TIP3    H136224   0.307   0.501  14.114 -0.1917 -0.7326  0.9242
 4911TIP3    H236225   0.237   0.630  14.149  0.8259  0.3368 -0.8497
 4912TIP3   OH236226   6.514   1.778  15.412  0.2534  0.0896 -0.2329
 4912TIP3    H136227   6.581   1.802  15.475  0.2247  1.0504 -0.5522
 4912TIP3    H236228   6.432   1.782  15.461  0.2558  0.6004 -0.2683
 4913TIP3   OH236229   4.769   5.332  14.823 -0.0193  0.0638 -0.0762
 4913TIP3    H136230   4.820   5.290  14.754  0.3195  0.7504 -0.2618
 4913TIP3    H236231   4.714   5.263  14.859 -1.1164 -0.0664 -1.8755
 4914TIP3   OH236232   4.559   2.568   4.708  0.2736 -0.1093  0.2370
 4914TIP3    H136233   4.620   2.641   4.718  0.0842  0.1554 -0.4835
 4914TIP3    H236234   4.507   2.570   4.788 -2.2503  2.9257 -1.2348
 4915TIP3   OH236235   0.085   3.996  15.909 -0.0307  0.5241  0.0553
 4915TIP3    H136236   0.061   4.065  15.847  0.7051 -0.4272 -1.3414
 4915TIP3    H236237   0.178   4.008  15.924  0.3861 -0.8658 -1.1709
 4916TIP3   OH236238   1.267   4.920  13.352 -0.4512 -0.1916  0.0628
 4916TIP3    H136239   1.324   4.986  13.313  1.8166 -1.2686  1.3943
 4916TIP3    H236240   1.307   4.836  13.330 -2.1992 -1.0924  0.0730
 4917TIP3   OH236241   6.334   4.709   3.725  0.6763 -0.0030  0.2403
 4917TIP3    H136242   6.393   4.707   3.650  1.2117  1.7618  0.5602
 4917TIP3    H236243   6.326   4.618   3.752  1.2255 -0.5537 -1.3725
 4918TIP3   OH236244   5.563   0.248   1.788 -0.1164  0.1116  0.0447
 4918TIP3    H136245   5.574   0.230   1.881 -0.5250  1.8447  0.4534
 4918TIP3    H236246   5.645   0.220   1.748 -0.8411 -3.0560  0.4840
 4919TIP3   OH236247   6.234   5.113   0.313  0.5420  0.0992  0.3997
 4919TIP3    H136248   6.169   5.084   0.248  0.9980 -0.4030  0.1638
 4919TIP3    H236249   6.284   5.034   0.333  1.9305  0.7564 -0.3951
 4920TIP3   OH236250   6.836   4.355  12.840  0.2368 -0.2356  0.2239
 4920TIP3    H136251   6.827   4.447  12.817  1.3848  0.4915  2.3839
 4920TIP3    H236252   6.782   4.308  12.776 -1.6013  2.0281  0.0145
 4921TIP3   OH236253   6.555   0.057  15.935 -0.0820 -0.3325  0.2480
 4921TIP3    H136254   6.601  -0.023  15.961  1.3063  1.0290  2.3803
 4921TIP3    H236255   6.615   0.101  15.876  0.3430  0.3128  1.1336
 4922TIP3   OH236256   1.094   0.342  12.381 -0.0226  0.1775  0.0347
 4922TIP3    H136257   1.104   0.351  12.476  1.5841  0.0845 -0.0853
 4922TIP3    H236258   1.145   0.264  12.359  0.2837  0.6482 -0.9837
 4923TIP3   OH236259   2.109   6.305   2.110  0.4351  0.1621 -0.1322
 4923TIP3    H136260   2.193   6.329   2.072  0.4490  1.0008  0.3943
 4923TIP3    H236261   2.073   6.241   2.050  0.7160  1.0208 -1.2560
 4924TIP3   OH236262   6.758   4.074   3.029  0.4991  0.0691 -0.2100
 4924TIP3    H136263   6.715   4.013   2.968  0.5882  0.3410 -0.5488
 4924TIP3    H236264   6.745   4.034   3.115  0.4758 -0.3835 -0.4176
 4925TIP3   OH236265   3.237   5.824  10.598  0.1806  0.0913 -0.0841
 4925TIP3    H136266   3.267   5.879  10.670 -0.3555 -0.8220  0.8688
 4925TIP3    H236267   3.193   5.884  10.539 -0.2396  0.7249  0.8420
 4926TIP3   OH236268   5.800   3.918  15.017  0.3140 -0.0724 -0.4553
 4926TIP3    H136269   5.828   3.979  14.949  0.9664 -0.3435 -0.4355
 4926TIP3    H236270   5.853   3.941  15.093  2.0420 -1.9480 -1.0146
 4927TIP3   OH236271   3.842   5.828  11.157  0.1308  0.1565 -0.0288
 4927TIP3    H136272   3.850   5.829  11.061 -1.4865  1.4833 -0.1828
 4927TIP3    H236273   3.749   5.822  11.174  0.4718 -1.5634  1.5214
 4928TIP3   OH236274   4.456   6.095   0.234 -0.3231  0.3584  0.1471
 4928TIP3    H136275   4.525   6.150   0.271 -0.4703  0.5242  0.1746
 4928TIP3    H236276   4.397   6.078   0.307 -0.3813  0.3235  0.0920
 4929TIP3   OH236277   4.319   3.033   4.790  0.4850 -0.0072  0.5885
 4929TIP3    H136278   4.290   2.954   4.745 -0.0723 -0.4256  1.6507
 4929TIP3    H236279   4.307   3.103   4.726 -1.0347 -0.4616  0.3352
 4930TIP3   OH236280   5.653   0.586   5.260 -0.0471 -0.7958  0.0874
 4930TIP3    H136281   5.600   0.666   5.260 -1.3732 -1.6218  1.6766
 4930TIP3    H236282   5.731   0.610   5.211  0.1465  1.8699  1.4766
 4931TIP3   OH236283   0.319   3.456  14.885 -0.3137 -0.3681 -0.1935
 4931TIP3    H136284   0.343   3.549  14.879  4.2526 -1.3189  0.2740
 4931TIP3    H236285   0.226   3.455  14.859 -0.5256  4.2183 -0.5792
 4932TIP3   OH236286   3.683   1.189  16.438  0.9549  0.2282  0.1994
 4932TIP3    H136287   3.643   1.230  16.361  2.3047 -0.4744 -0.9298
 4932TIP3    H236288   3.743   1.255  16.473  1.6275 -0.0396 -0.4142
 4933TIP3   OH236289   5.724   4.685   2.165  0.4705 -0.2608 -0.3237
 4933TIP3    H136290   5.777   4.762   2.186  2.5645 -1.9205  0.8587
 4933TIP3    H236291   5.769   4.645   2.091  0.2316 -1.1115 -0.0171
 4934TIP3   OH236292   1.680   0.454   0.787  0.1595  1.0009 -0.2128
 4934TIP3    H136293   1.641   0.384   0.734 -0.5730  0.7830  0.5989
 4934TIP3    H236294   1.771   0.426   0.800 -0.4475 -0.4463  1.1483
 4935TIP3   OH236295   4.661   3.917  15.095 -0.3706 -0.2345  0.2295
 4935TIP3    H136296   4.720   3.882  15.028 -1.2313  1.3458 -1.4344
 4935TIP3    H236297   4.656   3.847  15.161  0.1804 -2.0588 -1.5426
 4936TIP3   OH236298   0.165   2.367   1.306  0.1538 -0.4091 -0.2575
 4936TIP3    H136299   0.199   2.290   1.352 -0.7311 -0.4060  0.4217
 4936TIP3    H236300   0.071   2.351   1.297  0.0876  0.2318 -0.8286
 4937TIP3   OH236301   2.390   6.823  16.678 -0.4862  0.0408 -0.0417
 4937TIP3    H136302   2.463   6.868  16.635 -0.5617 -0.8881 -1.1699
 4937TIP3    H236303   2.397   6.849  16.770  1.7602 -0.6921  0.0392
 4938TIP3   OH236304   0.821   1.303  12.596  0.2875 -0.3649  0.6886
 4938TIP3    H136305   0.855   1.356  12.669  1.8837  0.9128 -0.9029
 4938TIP3    H236306   0.738   1.345  12.573  0.0533 -0.4284  1.4022
 4939TIP3   OH236307   4.781   2.912   4.227 -0.1714  0.8525  0.6156
 4939TIP3    H136308   4.824   2.973   4.287  0.8516 -0.9076  1.7888
 4939TIP3    H236309   4.723   2.860   4.284 -0.0908 -0.0543 -0.0996
 4940TIP3   OH236310   2.025   4.452   3.393  0.3994  0.1687  0.1020
 4940TIP3    H136311   1.983   4.490   3.470 -0.6146 -0.2483 -0.2162
 4940TIP3    H236312   2.050   4.364   3.420 -1.5080 -0.6268 -0.4819
 4941TIP3   OH236313   5.521   1.007  16.879  0.3602  0.0068 -0.6717
 4941TIP3    H136314   5.579   1.018  16.803  1.1713 -1.7208 -0.3525
 4941TIP3    H236315   5.516   1.094  16.919 -0.2635  1.0228 -2.7915
 4942TIP3   OH236316   4.921   6.560  11.910 -0.2176  0.0486  0.3033
 4942TIP3    H136317   4.977   6.539  11.835 -1.1748 -0.6892 -0.2279
 4942TIP3    H236318   4.879   6.477  11.932  0.1203  0.2215  1.7399
 4943TIP3   OH236319   6.843   4.964   1.938 -0.0177 -0.4638 -0.1957
 4943TIP3    H136320   6.821   4.915   2.017  1.6034  0.3795  0.8339
 4943TIP3    H236321   6.802   4.915   1.867 -2.5651 -0.5772  1.2459
 4944TIP3   OH236322   6.487   0.498  14.184 -0.0966  0.3792 -0.4737
 4944TIP3    H136323   6.570   0.452  14.166  0.2346  0.2650  1.2340
 4944TIP3    H236324   6.510   0.564  14.249 -1.8714 -1.6838  2.4789
 4945TIP3   OH236325   4.288   3.544  13.494  0.5152  0.2045  0.0369
 4945TIP3    H136326   4.274   3.544  13.589  3.6554 -0.1132  0.5936
 4945TIP3    H236327   4.216   3.598  13.460 -0.3390  0.8749  2.6433
 4946TIP3   OH236328   4.542   0.605   2.304  0.0758 -0.4920  0.3267
 4946TIP3    H136329   4.530   0.672   2.371  0.0264  1.2547 -1.3511
 4946TIP3    H236330   4.455   0.593   2.266  0.4561  0.0134 -0.7439
 4947TIP3   OH236331   1.015   4.043  11.429 -0.1553 -0.1284 -0.0802
 4947TIP3    H136332   1.013   4.032  11.524 -0.5940 -1.6389 -0.2201
 4947TIP3    H236333   1.017   4.137  11.415  1.6947  0.1164  1.4356
 4948TIP3   OH236334   4.020   6.123   1.183  0.2964 -0.2073 -0.2600
 4948TIP3    H136335   3.982   6.159   1.263 -0.5789  0.2249 -0.8492
 4948TIP3    H236336   4.103   6.085   1.211  1.0070  1.7789  0.4993
 4949TIP3   OH236337   4.055   3.969  12.590 -0.0598 -0.0370  0.7183
 4949TIP3    H136338   4.007   4.018  12.657  1.0397 -0.3858  1.7995
 4949TIP3    H236339   4.113   4.034  12.550  0.6532 -0.2135  1.4392
 4950TIP3   OH236340   2.994   4.472  16.614  0.1134  0.0731  0.3762
 4950TIP3    H136341   3.004   4.564  16.588 -0.0028  0.7136  2.4160
 4950TIP3    H236342   2.903   4.451  16.595 -0.8198  1.4636  2.9194
 4951TIP3   OH236343   0.334   0.946   1.318 -0.2819  0.3210 -0.5137
 4951TIP3    H136344   0.251   0.903   1.300 -0.4035  0.3481 -0.0453
 4951TIP3    H236345   0.329   0.969   1.411  1.3884 -2.2474  0.3096
 4952TIP3   OH236346   5.475   4.449   2.001  0.1858  0.1906  0.6651
 4952TIP3    H136347   5.417   4.416   2.070  1.2629 -0.2546  1.3836
 4952TIP3    H236348   5.523   4.371   1.971  0.5015  0.5713  0.1787
 4953TIP3   OH236349   4.908   0.803  13.499 -0.2145  0.0128 -1.1928
 4953TIP3    H136350   4.970   0.847  13.441  0.3521 -2.0001 -2.2190
 4953TIP3    H236351   4.939   0.823  13.587  1.9413 -0.8866 -1.6690
 4954TIP3   OH236352   0.635   5.235  12.089 -0.5750  0.0223 -0.2055
 4954TIP3    H136353   0.714   5.290  12.092 -1.2661  1.0736 -0.6649
 4954TIP3    H236354   0.594   5.247  12.175 -0.8719  0.4521 -0.4058
 4955TIP3   OH236355   2.542   0.601  13.924  0.4001  0.0850  0.2701
 4955TIP3    H136356   2.528   0.643  13.839  1.9274 -1.0694 -0.6141
 4955TIP3    H236357   2.458   0.558  13.944  0.1917 -0.1070 -0.9507
 4956TIP3   OH236358   4.028   5.224  16.827 -0.4971 -0.5460 -0.0355
 4956TIP3    H136359   4.054   5.315  16.839  1.5911 -1.0264 -0.3819
 4956TIP3    H236360   3.936   5.221  16.853 -0.3653  1.4577  0.8635
 4957TIP3   OH236361   1.633   3.618   4.489 -0.2818  0.2045 -0.0366
 4957TIP3    H136362   1.716   3.643   4.450 -1.0772  2.7189 -0.2907
 4957TIP3    H236363   1.581   3.585   4.416  0.7286 -2.2817  0.2744
 4958TIP3   OH236364   0.474   3.766  16.399  0.1126  0.3972  0.8979
 4958TIP3    H136365   0.489   3.822  16.475  0.4828  2.1117 -0.3868
 4958TIP3    H236366   0.386   3.788  16.369  0.9090  1.6412 -0.6555
 4959TIP3   OH236367   1.874   3.772   3.973  0.0564  0.3706 -0.2120
 4959TIP3    H136368   1.811   3.788   4.043  0.5234  0.5182  0.1725
 4959TIP3    H236369   1.838   3.820   3.898  0.5391  1.8141  0.4505
 4960TIP3   OH236370   4.560   3.106   6.483 -0.2445 -0.1120 -0.0457
 4960TIP3    H136371   4.647   3.124   6.519 -0.2593 -0.3460  0.1147
 4960TIP3    H236372   4.501   3.117   6.558 -0.4997  1.2229 -0.4159
 4961TIP3   OH236373   1.098   2.546  12.841  0.3443  0.0999  0.1501
 4961TIP3    H136374   1.083   2.565  12.749 -0.5777 -1.8263 -0.1457
 4961TIP3    H236375   1.014   2.563  12.884  0.5629  0.2948  0.5092
 4962TIP3   OH236376   6.800   1.633   2.861  0.0566  0.0411  0.4955
 4962TIP3    H136377   6.873   1.686   2.828  0.2555  0.2315  1.2302
 4962TIP3    H236378   6.749   1.692   2.915 -0.9499  0.0433 -0.4244
 4963TIP3   OH236379   3.447   2.847  15.555 -0.2378 -0.4325  0.5591
 4963TIP3    H136380   3.462   2.850  15.460  0.5046 -3.2772  0.5144
 4963TIP3    H236381   3.532   2.868  15.593  0.1583 -1.8993  0.5242
 4964TIP3   OH236382   1.766   2.674   1.524 -0.0570 -0.0813  0.7047
 4964TIP3    H136383   1.749   2.585   1.553 -1.6711  0.1149  0.4258
 4964TIP3    H236384   1.776   2.667   1.429  3.0579 -0.3975  0.9443
 4965TIP3   OH236385   2.847   4.984   5.482  0.0343  0.1030 -0.2276
 4965TIP3    H136386   2.901   5.009   5.407 -0.6868  0.7875 -0.5307
 4965TIP3    H236387   2.757   4.997   5.452 -0.2535  1.4341  1.1085
 4966TIP3   OH236388   5.007   1.215  14.750 -0.4008  0.0121 -0.1179
 4966TIP3    H136389   5.009   1.296  14.698 -0.8795  1.5892  2.1404
 4966TIP3    H236390   4.937   1.163  14.710 -0.2741  0.8389 -1.4708
 4967TIP3   OH236391   0.985   1.749   1.868 -0.2160  0.2937  0.7647
 4967TIP3    H136392   1.076   1.774   1.885  0.0614 -0.0222 -0.2148
 4967TIP3    H236393   0.979   1.658   1.895  0.2213 -0.2043 -0.7662
 4968TIP3   OH236394   4.936   0.990  12.851 -0.0263 -0.0890 -0.0590
 4968TIP3    H136395   4.918   0.937  12.929  0.6113  0.4161  0.4444
 4968TIP3    H236396   5.030   0.979  12.836 -0.0512  0.2240 -0.4542
 4969TIP3   OH236397   6.028   1.382   5.319 -0.0115  0.8753  0.3137
 4969TIP3    H136398   6.011   1.293   5.348 -0.5698  1.1869  0.9762
 4969TIP3    H236399   5.973   1.394   5.242 -2.0071  1.4973  1.7620
 4970TIP3   OH236400   4.370   3.178  13.855 -0.4420  0.3766 -0.5626
 4970TIP3    H136401   4.445   3.159  13.911 -0.6012  2.5930  0.5217
 4970TIP3    H236402   4.390   3.136  13.771  1.2003 -0.4829  0.2252
 4971TIP3   OH236403   6.675   5.379   4.300  0.0385 -0.2283  0.3526
 4971TIP3    H136404   6.686   5.345   4.390  0.5459 -0.1304  0.3323
 4971TIP3    H236405   6.745   5.335   4.250  0.5562  0.6660  0.2752
 4972TIP3   OH236406   2.785   2.122   2.293  0.2534  0.3154 -0.3509
 4972TIP3    H136407   2.775   2.217   2.293  0.6188  0.3540 -0.1832
 4972TIP3    H236408   2.878   2.107   2.278  0.1077 -0.0301 -0.9553
 4973TIP3   OH236409   1.282   2.844   3.149  0.1308  0.1851 -0.2491
 4973TIP3    H136410   1.229   2.921   3.165 -1.5419 -0.7377 -1.1047
 4973TIP3    H236411   1.255   2.781   3.216  1.3455  0.2304  0.3238
 4974TIP3   OH236412   3.210   6.455  16.824 -0.5494 -0.2047 -0.3044
 4974TIP3    H136413   3.231   6.549  16.825  0.0182 -0.1758  3.6733
 4974TIP3    H236414   3.119   6.451  16.852 -0.1708 -0.8018  0.9272
 4975TIP3   OH236415   2.125   1.420  16.353  0.1954 -0.4920  0.1389
 4975TIP3    H136416   2.084   1.352  16.300  0.0653 -0.9650  0.8394
 4975TIP3    H236417   2.122   1.498  16.298 -0.2170 -0.9004 -0.4283
 4976TIP3   OH236418   2.569   4.933  17.070  0.1991 -0.0820  0.3618
 4976TIP3    H136419   2.512   4.873  17.023 -0.9336  1.7078 -0.6518
 4976TIP3    H236420   2.537   4.931  17.160 -1.6054  1.0094 -0.2234
 4977TIP3   OH236421   0.736   2.773   0.530  0.7011  0.0203  0.3863
 4977TIP3    H136422   0.755   2.757   0.438  1.7057 -0.2374  0.6196
 4977TIP3    H236423   0.798   2.717   0.577  0.0612 -0.0112  1.2176
 4978TIP3   OH236424   5.462   0.875   0.651 -0.1356  0.4269  0.3356
 4978TIP3    H136425   5.471   0.856   0.558  1.5359  2.1667  0.0701
 4978TIP3    H236426   5.436   0.792   0.691  2.3805 -1.2485 -1.2486
 4979TIP3   OH236427   0.274   6.010  10.702  0.3895 -0.0497 -0.0222
 4979TIP3    H136428   0.204   6.058  10.657  0.1866 -0.3933 -0.0793
 4979TIP3    H236429   0.313   5.956  10.633  1.6797  1.2064 -0.3255
 4980TIP3   OH236430   4.736   5.677  13.144  0.5864 -0.2875 -0.3654
 4980TIP3    H136431   4.654   5.662  13.191 -0.6136  1.8927 -1.5976
 4980TIP3    H236432   4.799   5.699  13.212 -0.8601  1.8465  0.3749
 4981TIP3   OH236433   0.726   1.239  16.208  0.2423 -0.1583 -0.3133
 4981TIP3    H136434   0.821   1.233  16.194  0.4471  0.0017  0.9381
 4981TIP3    H236435   0.716   1.246  16.303 -0.9241  1.8595 -0.5507
 4982TIP3   OH236436   4.222   4.156   0.613 -0.1524 -0.3112 -0.4611
 4982TIP3    H136437   4.291   4.137   0.677  0.6060 -0.1883 -1.2155
 4982TIP3    H236438   4.246   4.242   0.578 -0.3118 -0.5613 -1.2067
 4983TIP3   OH236439   1.690   0.799  12.747 -0.2255  0.2449  0.5648
 4983TIP3    H136440   1.713   0.841  12.664  0.5835  1.3417  1.3128
 4983TIP3    H236441   1.774   0.784  12.791 -0.5277 -1.8388  0.5032
 4984TIP3   OH236442   3.325   4.188  14.961 -0.4603  0.4394 -0.0708
 4984TIP3    H136443   3.255   4.241  14.999  0.3468  1.2751  0.2609
 4984TIP3    H236444   3.344   4.230  14.877 -0.6522 -0.0448 -0.3608
 4985TIP3   OH236445   5.554   3.494   2.240  0.1119 -0.5821 -0.1818
 4985TIP3    H136446   5.574   3.401   2.241  0.6850 -0.4606 -0.3749
 4985TIP3    H236447   5.584   3.525   2.155  1.6256  0.1425  0.5806
 4986TIP3   OH236448   5.649   1.549  15.043 -0.2602 -0.3402 -0.0807
 4986TIP3    H136449   5.587   1.481  15.016 -0.7026  0.1856 -0.4217
 4986TIP3    H236450   5.734   1.505  15.045 -0.6262 -1.0412  0.2716
 4987TIP3   OH236451   5.678   5.032   6.038 -0.3761  0.3693  0.4940
 4987TIP3    H136452   5.773   5.021   6.044 -0.2937 -0.5790 -1.7413
 4987TIP3    H236453   5.644   4.943   6.039 -1.2088  0.6827  0.6478
 4988TIP3   OH236454   3.661   6.090  12.603  0.7144 -0.2597  0.0905
 4988TIP3    H136455   3.607   6.169  12.598  0.5854 -0.3533 -0.0276
 4988TIP3    H236456   3.651   6.059  12.693  0.1474 -0.5650 -0.0700
 4989TIP3   OH236457   5.383   2.285   5.879 -0.0862 -0.1288  0.5909
 4989TIP3    H136458   5.461   2.245   5.843  0.0768 -0.2279  1.0494
 4989TIP3    H236459   5.406   2.307   5.969  0.0586  1.6119  0.1682
 4990TIP3   OH236460   5.037   0.812  13.921  0.2382 -0.3677 -0.6447
 4990TIP3    H136461   4.999   0.858  13.847  1.2482  0.6473 -0.5540
 4990TIP3    H236462   5.125   0.789  13.893  0.5050 -0.2897  0.1049
 4991TIP3   OH236463   5.553   3.713  15.744 -0.2571  0.2886  0.3541
 4991TIP3    H136464   5.594   3.800  15.743  0.7980 -0.1914 -1.0974
 4991TIP3    H236465   5.564   3.684  15.835 -0.0332  1.3898  0.7054
 4992TIP3   OH236466   1.159   2.934  13.889 -0.3012 -0.1254 -0.0675
 4992TIP3    H136467   1.237   2.883  13.911 -0.7978 -0.7034  0.3846
 4992TIP3    H236468   1.126   2.894  13.808 -0.7648 -0.6152  0.3584
 4993TIP3   OH236469   6.256   5.531   5.955  0.1986 -0.0508  0.0091
 4993TIP3    H136470   6.161   5.522   5.953  0.0175  1.2526  1.0833
 4993TIP3    H236471   6.287   5.479   5.881 -1.2742 -1.2496  0.1896
 4994TIP3   OH236472   0.249   2.717   0.806  0.7620  0.3676 -0.5207
 4994TIP3    H136473   0.165   2.673   0.788  1.2925 -0.6621 -0.5873
 4994TIP3    H236474   0.310   2.676   0.744  0.7742  3.0985 -2.4829
 4995TIP3   OH236475   0.922   2.215   5.343  0.6978  0.1428 -0.2591
 4995TIP3    H136476   0.994   2.274   5.365  0.8420 -0.1140 -0.0278
 4995TIP3    H236477   0.907   2.164   5.423  2.4050 -2.0267 -1.2053
 4996TIP3   OH236478   4.656   1.281   3.778 -0.4472 -0.1038  0.0626
 4996TIP3    H136479   4.660   1.285   3.873 -2.3858 -0.6544  0.1951
 4996TIP3    H236480   4.640   1.372   3.751  0.2095  0.0693  0.2329
 4997TIP3   OH236481   5.354   5.581   1.007 -0.3931 -0.2650 -0.5407
 4997TIP3    H136482   5.294   5.589   1.080 -0.3734 -1.3236 -0.3919
 4997TIP3    H236483   5.298   5.589   0.929 -0.7657 -1.4083 -0.4047
 4998TIP3   OH236484   0.181   1.089   0.759 -0.1659 -0.1510  0.0724
 4998TIP3    H136485   0.130   1.151   0.812 -0.9998 -1.4801  0.8915
 4998TIP3    H236486   0.137   1.090   0.674 -0.3263  0.1859  0.1535
 4999TIP3   OH236487   2.448   0.360  12.619  0.3750 -0.6497  0.0054
 4999TIP3    H136488   2.530   0.318  12.644  1.0405 -0.3745 -1.6019
 4999TIP3    H236489   2.450   0.362  12.523 -0.4819  1.3640 -0.0209
 5000TIP3   OH236490   5.106   6.766   4.344  0.9670  0.4445  0.2925
 5000TIP3    H136491   5.176   6.703   4.330 -0.9974 -1.9624  0.6495
 5000TIP3    H236492   5.064   6.738   4.425 -1.2627  0.9216 -0.6266
 5001TIP3   OH236493   1.311   4.228   1.149 -0.4269 -0.4491 -0.5913
 5001TIP3    H136494   1.362   4.305   1.173 -0.3608 -0.5179 -0.5109
 5001TIP3    H236495   1.282   4.191   1.233 -3.1638  1.2702 -0.6553
 5002TIP3   OH236496   2.284   3.061  15.053  0.4804  0.4639 -0.9292
 5002TIP3    H136497   2.299   3.123  15.124  0.9892  0.5298 -1.0925
 5002TIP3    H236498   2.355   2.997  15.063 -0.4623 -0.5158 -0.3010
 5003TIP3   OH236499   3.844   3.384   5.144 -0.2009  0.4399 -0.0091
 5003TIP3    H136500   3.774   3.391   5.079 -0.6439  1.0062  0.5247
 5003TIP3    H236501   3.924   3.393   5.093 -0.4887 -0.5420 -0.6762
 5004TIP3   OH236502   3.404   2.008  14.623  0.2732 -0.3691 -0.1114
 5004TIP3    H136503   3.318   2.050  14.632  1.0420  1.8028 -1.9339
 5004TIP3    H236504   3.461   2.076  14.588  2.2127 -2.3517 -1.1035
 5005TIP3   OH236505   4.107   5.482  16.865  0.4414  0.2743 -0.1355
 5005TIP3    H136506   4.090   5.572  16.838 -1.6808 -0.2623 -0.7974
 5005TIP3    H236507   4.057   5.471  16.946  1.3234 -0.1039  0.3755
 5006TIP3   OH236508   6.507   1.934   0.869  0.2722 -0.6186 -0.3205
 5006TIP3    H136509   6.514   1.856   0.813 -0.1955  1.6396 -3.8781
 5006TIP3    H236510   6.414   1.957   0.867  0.3754 -0.0436  0.7953
 5007TIP3   OH236511   3.011   4.248  13.386  0.6216  0.9699 -0.2416
 5007TIP3    H136512   3.003   4.212  13.474  2.0030  2.4674  0.5522
 5007TIP3    H236513   2.955   4.326  13.386  1.0505  1.2836 -0.5021
 5008TIP3   OH236514   1.204   3.194  14.780 -0.7551 -0.2727  0.1963
 5008TIP3    H136515   1.127   3.173  14.833 -2.2691  1.2995 -1.2111
 5008TIP3    H236516   1.171   3.258  14.716  1.9023  0.9942 -0.0211
 5009TIP3   OH236517   0.640   6.096  11.517 -0.2202  0.4702  0.6791
 5009TIP3    H136518   0.657   6.152  11.442  1.3896 -1.3225 -0.4055
 5009TIP3    H236519   0.727   6.076  11.552 -0.6353 -1.7750  0.6228
 5010TIP3   OH236520   2.228   2.038  11.614 -0.1587  0.5044 -0.7214
 5010TIP3    H136521   2.286   1.987  11.557 -0.0398 -0.7951  0.4820
 5010TIP3    H236522   2.140   2.016  11.585 -0.0806  0.7054 -1.1077
 5011TIP3   OH236523   3.072   6.463   6.151  0.2274 -0.9377  0.2709
 5011TIP3    H136524   2.980   6.454   6.127  0.1808  0.3419 -0.1338
 5011TIP3    H236525   3.070   6.474   6.246 -0.0548 -0.8178  0.2549
 5012TIP3   OH236526   0.231   5.606  15.672  0.0788 -0.1441 -0.4500
 5012TIP3    H136527   0.247   5.615  15.766  1.5009  1.3997 -0.7927
 5012TIP3    H236528   0.149   5.654  15.656  0.2372  0.2419 -0.1056
 5013TIP3   OH236529   3.051   3.823   1.659 -0.3627  0.1612 -0.1849
 5013TIP3    H136530   2.980   3.759   1.664 -0.9414  0.5132 -2.4663
 5013TIP3    H236531   3.110   3.800   1.730 -2.8729  0.0224  2.0206
 5014TIP3   OH236532   1.953   5.517  14.430  0.3850 -0.0082  0.3556
 5014TIP3    H136533   1.899   5.517  14.352  0.3227 -0.0947  0.3990
 5014TIP3    H236534   1.892   5.506  14.503  0.3144  1.2597  0.5040
 5015TIP3   OH236535   0.277   5.661  12.319 -0.3218 -0.2080  0.3616
 5015TIP3    H136536   0.199   5.608  12.338 -0.5623  0.6884  2.0568
 5015TIP3    H236537   0.337   5.600  12.276 -1.5821 -1.1605 -0.1205
 5016TIP3   OH236538   1.345   3.226  11.733  0.1215  0.2556 -0.6946
 5016TIP3    H136539   1.423   3.210  11.681 -0.4349 -0.4412 -1.3346
 5016TIP3    H236540   1.309   3.308  11.699 -0.5658 -0.4987 -1.8318
 5017TIP3   OH236541   0.114   6.462  14.429  0.4004 -0.6040 -0.4984
 5017TIP3    H136542   0.165   6.465  14.509  0.1650  1.1337 -0.3732
 5017TIP3    H236543   0.170   6.503  14.363  0.1192 -0.9165 -0.9393
 5018TIP3   OH236544   2.287   0.509  14.008  0.2624  0.5479  0.0782
 5018TIP3    H136545   2.204   0.545  13.976 -1.2524 -3.2466 -0.8230
 5018TIP3    H236546   2.265   0.467  14.091  1.2675 -0.5086 -0.1614
 5019TIP3   OH236547   6.705   0.986  12.594 -0.5602 -0.0444 -0.1816
 5019TIP3    H136548   6.765   0.986  12.669 -0.0991 -1.5157 -0.5148
 5019TIP3    H236549   6.690   0.893  12.575 -2.0143  0.2972 -0.8617
 5020TIP3   OH236550   0.930   6.802  12.022  0.0305 -0.8396  0.2879
 5020TIP3    H136551   0.886   6.779  12.104 -0.6140  2.1274  0.9078
 5020TIP3    H236552   0.859   6.829  11.963  0.7277  1.5651  0.4263
 5021TIP3   OH236553   5.437   2.143  13.218  0.0507 -0.3375 -0.7221
 5021TIP3    H136554   5.404   2.077  13.157  1.3607 -0.7361 -1.0390
 5021TIP3    H236555   5.362   2.199  13.236 -0.6944 -0.9993 -1.6748
 5022TIP3   OH236556   5.116   3.421   3.715 -0.3614  0.4578  0.0130
 5022TIP3    H136557   5.194   3.406   3.768 -0.4146 -0.2858 -0.1126
 5022TIP3    H236558   5.129   3.367   3.637 -1.2845 -0.1775  0.2797
 5023TIP3   OH236559   4.423   5.820   2.256  0.1454 -0.0435 -0.6311
 5023TIP3    H136560   4.347   5.782   2.213  0.4657 -0.5394 -0.7768
 5023TIP3    H236561   4.401   5.820   2.349 -0.7119  1.4004 -0.8097
 5024TIP3   OH236562   4.701   0.061  15.134  0.6356  0.5474 -0.3222
 5024TIP3    H136563   4.772   0.102  15.086  1.9784 -0.1866  0.9644
 5024TIP3    H236564   4.671  -0.011  15.078  2.3255 -0.4391 -0.0120
 5025TIP3   OH236565   5.055   4.897  11.896  0.6896 -0.0664  0.2809
 5025TIP3    H136566   5.023   4.903  11.806 -0.3388 -0.3221  0.6186
 5025TIP3    H236567   4.985   4.853  11.944  0.9955  0.5325  1.3171
 5026TIP3   OH236568   2.482   2.356  12.021 -0.3359  0.2865 -0.0851
 5026TIP3    H136569   2.557   2.296  12.026 -0.0784  0.6423  0.4775
 5026TIP3    H236570   2.406   2.299  12.013  0.1751 -0.1700 -6.1067
 5027TIP3   OH236571   1.632   2.935  11.785 -0.2774 -0.3484 -0.1307
 5027TIP3    H136572   1.564   2.870  11.768  0.2764 -0.8034 -0.6910
 5027TIP3    H236573   1.626   2.996  11.713  0.9458 -1.3054 -1.0914
 5028TIP3   OH236574   1.770   3.289  14.282 -0.4941 -0.0313  0.4100
 5028TIP3    H136575   1.856   3.316  14.311 -0.4440 -1.3704  1.6529
 5028TIP3    H236576   1.775   3.193  14.276 -1.2767 -0.0078 -1.6165
 5029TIP3   OH236577   5.069   5.682  16.351  0.4204 -0.0918  0.1790
 5029TIP3    H136578   5.034   5.607  16.302 -2.3777 -0.7549  2.8804
 5029TIP3    H236579   5.018   5.756  16.319  0.3387 -0.0936  0.3015
 5030TIP3   OH236580   2.353   6.047   5.239  0.2322 -0.0008 -0.3575
 5030TIP3    H136581   2.300   6.069   5.316  2.1373  2.1671  0.4591
 5030TIP3    H236582   2.438   6.021   5.275  0.2370 -2.0162 -1.6707
 5031TIP3   OH236583   4.886   0.206  15.004 -0.3416  0.5525  0.2460
 5031TIP3    H136584   4.942   0.284  14.995  1.7685 -0.6224  2.1494
 5031TIP3    H236585   4.942   0.133  14.977 -1.7484 -0.4753  0.0168
 5032TIP3   OH236586   1.007   0.315   1.991  0.0891 -0.4323  0.5274
 5032TIP3    H136587   0.980   0.391   1.940  3.1490  0.4289  0.0003
 5032TIP3    H236588   1.056   0.261   1.930  1.3905 -0.7831  1.8125
 5033TIP3   OH236589   1.778   6.309  14.078  0.4367 -0.3536 -0.3011
 5033TIP3    H136590   1.775   6.216  14.056 -0.7636 -0.0449 -1.6584
 5033TIP3    H236591   1.686   6.335  14.081  0.7408  1.3289 -2.6538
 5034TIP3   OH236592   5.706   3.602  10.629 -0.2928 -0.2577  0.4685
 5034TIP3    H136593   5.667   3.638  10.549 -0.6993  1.4606  1.4012
 5034TIP3    H236594   5.656   3.523  10.647 -0.6610 -0.2737 -0.5830
 5035TIP3   OH236595   4.697   0.873   3.954 -0.2057  0.4545 -0.0489
 5035TIP3    H136596   4.626   0.810   3.966  0.1950  0.3326  1.9678
 5035TIP3    H236597   4.669   0.927   3.880 -1.0540 -1.3777 -1.1211
 5036TIP3   OH236598   0.356   5.455  11.699  0.6664  0.5798  1.3324
 5036TIP3    H136599   0.354   5.496  11.785 -0.8372  0.6174  1.3057
 5036TIP3    H236600   0.308   5.373  11.710 -0.1243  0.8952  0.3887
 5037TIP3   OH236601   3.024   1.002  14.566 -0.1013 -0.5414 -0.0623
 5037TIP3    H136602   2.955   1.050  14.613  0.7159 -0.7106  1.3390
 5037TIP3    H236603   3.060   0.941  14.630  1.0186 -0.8216 -0.9212
 5038TIP3   OH236604   1.276   4.599  15.899  0.0229 -0.2298  0.4058
 5038TIP3    H136605   1.311   4.649  15.973 -0.0701  0.0601  0.2540
 5038TIP3    H236606   1.286   4.507  15.926  0.0332 -0.1292  0.7580
 5039TIP3   OH236607   2.909   3.804  12.497 -0.1982  0.0970 -0.2782
 5039TIP3    H136608   2.867   3.718  12.501 -0.0406 -0.0109 -0.8282
 5039TIP3    H236609   3.002   3.785  12.484 -0.1252  0.3463 -0.1179
 5040TIP3   OH236610   1.514   6.024   1.559  0.0440 -0.5271  0.9451
 5040TIP3    H136611   1.444   6.089   1.569 -0.2292 -0.8573  1.2151
 5040TIP3    H236612   1.564   6.032   1.640  0.4709 -0.1220  0.6491
 5041TIP3   OH236613   2.556   6.625  12.543 -0.1018 -0.1088  0.0068
 5041TIP3    H136614   2.488   6.680  12.581 -1.2618 -0.4148 -1.5538
 5041TIP3    H236615   2.582   6.670  12.463  1.8143  0.1713  0.7226
 5042TIP3   OH236616   1.186   3.084  15.501  0.2941  0.1506  0.0069
 5042TIP3    H136617   1.213   3.061  15.412 -1.1073 -0.6426 -0.2409
 5042TIP3    H236618   1.129   3.160  15.490 -0.2940 -0.2642  0.1737
 5043TIP3   OH236619   5.597   2.318  13.654  0.4535 -0.2087  0.2814
 5043TIP3    H136620   5.662   2.373  13.611  1.3288 -0.9682  0.6002
 5043TIP3    H236621   5.629   2.310  13.744  0.7905 -1.8729  0.0476
 5044TIP3   OH236622   0.683   3.251   3.680 -0.5835  0.2120 -0.3690
 5044TIP3    H136623   0.654   3.330   3.725 -0.8684 -0.0687 -0.0542
 5044TIP3    H236624   0.731   3.202   3.746  0.9845  0.8491 -0.9856
 5045TIP3   OH236625   1.292   2.447  11.831 -0.5336  0.3731  0.0256
 5045TIP3    H136626   1.346   2.369  11.817 -1.2480  0.1136 -1.4775
 5045TIP3    H236627   1.286   2.455  11.926 -0.3269 -1.3200  0.2124
 5046TIP3   OH236628   3.794   0.882   1.658 -0.6435  0.4982 -0.1974
 5046TIP3    H136629   3.758   0.845   1.577  0.0409  0.1328 -0.3486
 5046TIP3    H236630   3.889   0.878   1.645 -0.4354 -1.5620  1.4822
 5047TIP3   OH236631   5.097   0.429  11.065  0.2768 -0.1718  0.0581
 5047TIP3    H136632   5.104   0.334  11.059  0.6896 -0.0974 -0.7344
 5047TIP3    H236633   5.046   0.454  10.988 -0.6662  0.1692  0.7673
 5048TIP3   OH236634   2.817   0.173  10.456  0.0824 -0.2088  0.1951
 5048TIP3    H136635   2.805   0.080  10.477  1.7265 -0.1437  1.6492
 5048TIP3    H236636   2.908   0.191  10.479 -0.4365  1.9713  0.7701
 5049TIP3   OH236637   5.722   6.260  15.007 -0.1284  0.7967 -0.2948
 5049TIP3    H136638   5.812   6.270  15.037  0.2273  0.9275 -1.3335
 5049TIP3    H236639   5.673   6.329  15.052  0.0922  0.1599  0.9569
 5050TIP3   OH236640   3.239   6.508  15.986  0.6184 -0.5345 -0.0994
 5050TIP3    H136641   3.155   6.548  15.967  1.7223  1.0844 -1.9750
 5050TIP3    H236642   3.229   6.416  15.961 -0.8064 -0.5850  0.5479
 5051TIP3   OH236643   4.777   0.779   3.104 -0.0749  0.3001  0.0637
 5051TIP3    H136644   4.698   0.781   3.158 -0.0148 -0.3092  0.1914
 5051TIP3    H236645   4.745   0.783   3.014 -0.1351  2.1787  0.1401
 5052TIP3   OH236646   6.144   6.183  12.758 -0.5100  0.7485  0.4832
 5052TIP3    H136647   6.219   6.241  12.744 -0.4297  1.0018  1.8124
 5052TIP3    H236648   6.088   6.197  12.681  1.7296 -0.9899 -1.6175
 5053TIP3   OH236649   0.382   4.903  16.550 -0.0840  0.2249 -0.4602
 5053TIP3    H136650   0.310   4.950  16.508 -0.1120  1.6778  1.1024
 5053TIP3    H236651   0.342   4.823  16.584 -0.8924  0.7969 -0.0093
 5054TIP3   OH236652   2.147   6.230   4.053 -0.0252 -0.1368  0.3207
 5054TIP3    H136653   2.081   6.291   4.084  0.1353 -0.8105  2.1637
 5054TIP3    H236654   2.113   6.196   3.971 -0.8836  1.1759  0.1103
 5055TIP3   OH236655   1.288   6.747  12.803  0.1599 -0.3627 -0.2184
 5055TIP3    H136656   1.334   6.707  12.730  1.4733  0.6248  0.0249
 5055TIP3    H236657   1.214   6.793  12.763 -1.2405 -2.7059 -0.5254
 5056TIP3   OH236658   6.180   1.295  13.142  0.1941  0.5955  0.2142
 5056TIP3    H136659   6.240   1.344  13.086  1.6611  0.2315  1.3987
 5056TIP3    H236660   6.222   1.210  13.154 -1.4549 -0.3410 -0.3592
 5057TIP3   OH236661   1.189   1.262   5.623 -0.4457 -0.0389 -0.2768
 5057TIP3    H136662   1.245   1.329   5.583 -0.3942 -0.3122 -0.6719
 5057TIP3    H236663   1.127   1.238   5.555 -2.3573  1.6729  0.7682
 5058TIP3   OH236664   2.272   4.079  15.245 -0.5150 -0.1265  0.0837
 5058TIP3    H136665   2.216   4.121  15.311  0.9430 -0.6203  1.7209
 5058TIP3    H236666   2.258   3.985  15.258  1.1223 -0.2933  1.0179
 5059TIP3   OH236667   3.064   2.429   5.056 -0.0657 -0.5119 -0.0008
 5059TIP3    H136668   3.107   2.415   4.971  1.0442  1.7929  0.1032
 5059TIP3    H236669   3.105   2.508   5.090 -2.2158 -0.0127  1.5967
 5060TIP3   OH236670   6.222   3.726   3.812 -0.0889  0.1319  0.4895
 5060TIP3    H136671   6.276   3.648   3.828  0.3264  0.6458  1.7434
 5060TIP3    H236672   6.259   3.792   3.871 -1.6195  0.7253  0.8158
 5061TIP3   OH236673   6.262   6.657   4.248 -0.2022 -0.7553  0.4265
 5061TIP3    H136674   6.350   6.639   4.214 -0.4860 -1.3914  0.0101
 5061TIP3    H236675   6.250   6.593   4.317 -0.2965 -0.5888  0.5654
 5062TIP3   OH236676   3.399   1.360  16.081 -1.3208  0.0101 -0.1420
 5062TIP3    H136677   3.340   1.431  16.058  0.4004  1.8472  0.7657
 5062TIP3    H236678   3.459   1.353  16.007 -1.1935 -0.1451 -0.0262
 5063TIP3   OH236679   5.020   0.085  11.187  0.2064  0.7260  0.1313
 5063TIP3    H136680   5.042   0.113  11.098  0.4250  2.1846  0.6112
 5063TIP3    H236681   4.997   0.166  11.233  0.1974  0.0211  1.4311
 5064TIP3   OH236682   2.070   2.350  12.837  0.1641 -0.0903 -0.1179
 5064TIP3    H136683   2.072   2.258  12.812 -0.6518 -0.4303  1.0033
 5064TIP3    H236684   1.981   2.379  12.817 -1.1044 -0.8273  3.7331
 5065TIP3   OH236685   6.151   1.545  15.415 -0.4893  0.1071  0.2339
 5065TIP3    H136686   6.067   1.523  15.373 -0.2621  1.2363 -0.8779
 5065TIP3    H236687   6.126   1.585  15.498 -1.0381 -0.0299  0.1439
 5066TIP3   OH236688   5.496   5.536  12.488 -0.3751 -0.1870  0.2459
 5066TIP3    H136689   5.520   5.443  12.491 -0.0583 -0.1090  0.1029
 5066TIP3    H236690   5.554   5.578  12.552  0.2237  0.0785 -0.4546
 5067TIP3   OH236691   0.457   5.451  10.499 -0.0430 -0.2080  0.2881
 5067TIP3    H136692   0.533   5.416  10.453 -0.1766  2.5670 -2.4078
 5067TIP3    H236693   0.489   5.529  10.543 -1.1418  0.5375 -0.1902
 5068TIP3   OH236694   1.015   6.302  12.136  0.3496 -0.3031  0.7244
 5068TIP3    H136695   1.041   6.390  12.109 -0.2978 -0.7512 -1.4910
 5068TIP3    H236696   1.019   6.249  12.057 -0.1986 -2.0738  1.8055
 5069TIP3   OH236697   4.464   6.851  15.542 -0.2268  0.4226  0.2010
 5069TIP3    H136698   4.504   6.923  15.591 -0.5172 -0.4507  1.7886
 5069TIP3    H236699   4.375   6.882  15.523 -0.8144  0.0106  2.0701
 5070TIP3   OH236700   1.056   3.463  12.483 -0.5107 -0.2206 -0.4751
 5070TIP3    H136701   0.991   3.532  12.473 -0.6009 -0.2497 -0.1024
 5070TIP3    H236702   1.058   3.419  12.398  0.7895  1.3146 -1.3029
 5071TIP3   OH236703   5.783   3.350   1.754  0.0476  0.4347  0.5073
 5071TIP3    H136704   5.822   3.290   1.689 -0.7490  0.0073  0.4056
 5071TIP3    H236705   5.828   3.433   1.740  1.3495 -0.1926  0.8099
 5072TIP3   OH236706   5.071   4.518  16.738 -0.1358 -0.2366  0.2050
 5072TIP3    H136707   5.028   4.559  16.662  1.0009 -0.7676 -0.7592
 5072TIP3    H236708   5.059   4.580  16.809  0.3553  1.1461 -0.8728
 5073TIP3   OH236709   0.817   5.672  15.634  0.3950 -0.3267 -0.2404
 5073TIP3    H136710   0.810   5.746  15.694  0.6980 -0.6164  0.1598
 5073TIP3    H236711   0.743   5.683  15.574 -0.9262 -0.9310  1.1900
 5074TIP3   OH236712   1.805   3.217   2.210  0.0229  0.2229 -0.1026
 5074TIP3    H136713   1.834   3.176   2.129 -1.1636  0.0735 -0.4684
 5074TIP3    H236714   1.772   3.303   2.183  0.0467  0.3590  0.2948
 5075TIP3   OH236715   5.297   1.832  12.825 -0.2448  0.0427 -0.2079
 5075TIP3    H136716   5.208   1.801  12.841  0.4032 -1.2679  1.1394
 5075TIP3    H236717   5.295   1.866  12.735 -1.8950 -0.6874 -0.4883
 5076TIP3   OH236718   3.039   5.536  12.182  0.0626  0.0585  0.4952
 5076TIP3    H136719   2.967   5.593  12.157  0.0397 -0.9548 -2.0031
 5076TIP3    H236720   3.043   5.543  12.277 -2.4518  1.1680  0.5948
 5077TIP3   OH236721   0.226   3.581   3.705 -0.8315 -0.0479 -0.2660
 5077TIP3    H136722   0.240   3.663   3.752  1.8502 -0.2275 -0.6070
 5077TIP3    H236723   0.238   3.603   3.613  1.1304 -0.9810 -0.2822
 5078TIP3   OH236724   2.109   3.422  11.893  0.0853  0.4179 -0.1826
 5078TIP3    H136725   2.180   3.433  11.957 -0.7701  0.8986  0.7100
 5078TIP3    H236726   2.030   3.419  11.946 -0.4938 -1.2758 -1.0608
 5079TIP3   OH236727   0.358   5.277   0.945 -0.1226  0.4804  0.1555
 5079TIP3    H136728   0.396   5.320   0.868 -0.2264  0.8103  0.2842
 5079TIP3    H236729   0.400   5.191   0.948  1.7149  1.3309  1.1003
 5080TIP3   OH236730   3.993   2.917  16.835  0.3526 -0.2081  0.0231
 5080TIP3    H136731   3.946   3.000  16.832  0.2697 -0.2778 -0.7131
 5080TIP3    H236732   3.951   2.868  16.906 -0.0238  0.1168  0.0240
 5081TIP3   OH236733   5.231   6.077   2.315  0.2517 -0.1982 -0.5574
 5081TIP3    H136734   5.266   6.133   2.384  2.2186 -0.2420 -1.4506
 5081TIP3    H236735   5.233   5.989   2.353  0.4004 -0.1004 -0.3365
 5082TIP3   OH236736   5.198   0.027   1.699 -0.0980  0.3531  0.8196
 5082TIP3    H136737   5.211   0.093   1.630 -1.3750 -0.2442 -0.0427
 5082TIP3    H236738   5.142  -0.039   1.658 -0.0093 -0.5582  2.1151
 5083TIP3   OH236739   5.556   5.432  14.384 -0.8426 -0.2437 -0.2644
 5083TIP3    H136740   5.605   5.512  14.401  0.9102 -1.5433  1.1620
 5083TIP3    H236741   5.509   5.414  14.465 -0.5515 -1.0750 -0.2642
 5084TIP3   OH236742   4.326   4.977   0.590 -0.6644 -0.3358  0.6285
 5084TIP3    H136743   4.381   4.988   0.513  0.9317 -1.1113  1.6238
 5084TIP3    H236744   4.253   4.922   0.560 -0.2026 -0.4076 -0.3826
 5085TIP3   OH236745   4.846   2.416  14.761  0.1408  1.0291 -0.0953
 5085TIP3    H136746   4.755   2.441  14.746 -0.2428 -1.1147 -1.8892
 5085TIP3    H236747   4.842   2.349  14.829  0.5257  1.6751  0.5807
 5086TIP3   OH236748   4.721   5.549   2.566 -0.1434  0.8116 -0.2763
 5086TIP3    H136749   4.635   5.507   2.572 -0.4752  1.4548 -0.4219
 5086TIP3    H236750   4.701   5.642   2.553  0.5615  0.8246 -1.4123
 5087TIP3   OH236751   1.458   3.188   3.482 -0.3155  0.2880  0.0816
 5087TIP3    H136752   1.543   3.196   3.525 -0.3525  0.8286  0.0587
 5087TIP3    H236753   1.432   3.278   3.463 -0.2050  0.0510 -1.2671
 5088TIP3   OH236754   6.014   1.097  15.414 -1.2978  0.6185 -0.4354
 5088TIP3    H136755   5.974   1.180  15.438 -0.2396  0.7434  1.0433
 5088TIP3    H236756   6.069   1.075  15.489  0.6206 -0.0222 -1.9603
 5089TIP3   OH236757   1.079   4.271  11.870  0.5401 -0.3809  0.0666
 5089TIP3    H136758   1.056   4.355  11.831  0.1479 -0.4674  0.1052
 5089TIP3    H236759   1.175   4.272  11.875  0.4936  0.6361  1.3227
 5090TIP3   OH236760   0.167   6.308  11.092 -0.1978 -0.5512  0.7949
 5090TIP3    H136761   0.221   6.359  11.153  0.6205 -1.0371  0.5049
 5090TIP3    H236762   0.208   6.221  11.091 -0.6458 -0.7642  0.1182
 5091TIP3   OH236763   6.598   1.269   3.726  0.1322  0.4146 -0.2885
 5091TIP3    H136764   6.608   1.282   3.632  2.8828  0.4360 -0.0703
 5091TIP3    H236765   6.639   1.346   3.766  0.4300 -0.3444  0.9324
 5092TIP3   OH236766   0.662   1.428  15.985 -0.0505  0.7884 -0.6499
 5092TIP3    H136767   0.709   1.494  16.036 -0.2053 -0.6386  1.4460
 5092TIP3    H236768   0.683   1.345  16.027 -1.0101 -0.3595 -2.3274
 5093TIP3   OH236769   3.568   3.980   0.136  0.6400 -0.4289  0.1121
 5093TIP3    H136770   3.594   3.927   0.061  1.2893  1.0732 -0.7744
 5093TIP3    H236771   3.486   4.020   0.110  0.2918 -0.7673  0.6685
 5094TIP3   OH236772   2.163   0.305   1.505 -0.2932 -0.0636 -0.0136
 5094TIP3    H136773   2.110   0.317   1.584  2.5686 -0.3880  2.1128
 5094TIP3    H236774   2.146   0.384   1.453 -0.0127  1.6908  2.3745
 5095TIP3   OH236775   3.837   2.990  12.669 -0.6724  0.5902 -0.1673
 5095TIP3    H136776   3.744   2.990  12.645 -0.4113 -0.4855 -1.3120
 5095TIP3    H236777   3.840   2.941  12.751 -0.8443 -2.1616 -1.6671
 5096TIP3   OH236778   2.255   4.635  12.189  0.3219  0.6739  0.2006
 5096TIP3    H136779   2.174   4.672  12.224  0.1850  2.2606 -1.6245
 5096TIP3    H236780   2.249   4.542  12.209 -1.9424  0.7512  0.1648
 5097TIP3   OH236781   5.485   3.004  12.065  0.6294  0.3878 -0.2365
 5097TIP3    H136782   5.486   3.063  11.990 -0.9713  0.8936  0.1028
 5097TIP3    H236783   5.551   3.041  12.125  0.2240  1.3761 -0.3801
 5098TIP3   OH236784   1.635   1.263  15.178 -0.0844 -0.0860 -0.4191
 5098TIP3    H136785   1.543   1.273  15.202 -0.1301  1.7723 -1.1749
 5098TIP3    H236786   1.646   1.320  15.102  1.3298 -1.5043 -1.3406
 5099TIP3   OH236787   1.313   3.095  15.180  0.4754  0.4906  0.3292
 5099TIP3    H136788   1.401   3.080  15.147  0.9377  1.7015  0.9403
 5099TIP3    H236789   1.291   3.183  15.151 -0.3033  0.4256  0.6911
 5100TIP3   OH236790   3.221   5.968  12.239 -0.3080 -0.5308 -0.7347
 5100TIP3    H136791   3.228   5.962  12.335  0.1682  1.0504 -0.6376
 5100TIP3    H236792   3.266   6.050  12.217  0.1886 -1.2136 -2.3923
 5101TIP3   OH236793   1.982   2.196  16.261  0.6408  0.1655  0.3363
 5101TIP3    H136794   1.944   2.214  16.174  1.0918  0.1345  0.1317
 5101TIP3    H236795   2.049   2.130  16.244 -0.1181 -0.7801  0.8926
 5102TIP3   OH236796   0.644   0.914  13.282  0.0678  0.0341  0.1544
 5102TIP3    H136797   0.684   0.852  13.221  0.5862  0.9565 -0.4616
 5102TIP3    H236798   0.606   0.859  13.350 -3.4812 -1.3009 -2.6151
 5103TIP3   OH236799   1.407   4.911   5.258 -0.2489 -0.2462  0.1992
 5103TIP3    H136800   1.341   4.847   5.231 -1.9149  0.8488  1.4552
 5103TIP3    H236801   1.359   4.994   5.261  1.8122  1.0669 -1.2171
 5104TIP3   OH236802   5.546   0.011  14.607  0.1599 -0.6183 -0.2634
 5104TIP3    H136803   5.540  -0.026  14.520 -1.2551  0.0458 -0.4821
 5104TIP3    H236804   5.618   0.074  14.601  0.8820 -1.4532 -0.5871
 5105TIP3   OH236805   1.171   6.040  13.748 -0.3063 -0.0689 -0.2969
 5105TIP3    H136806   1.111   6.057  13.822 -1.1768  0.2705 -1.0572
 5105TIP3    H236807   1.149   6.108  13.684  0.2135 -0.5594 -1.0037
 5106TIP3   OH236808   4.892   3.273   0.653  0.0083  0.4474  0.0906
 5106TIP3    H136809   4.921   3.276   0.562 -0.1811 -0.4960 -0.0090
 5106TIP3    H236810   4.877   3.180   0.671 -2.4109  0.8133  0.3119
 5107TIP3   OH236811   1.638   0.009  15.271 -0.2636 -0.9764  0.1821
 5107TIP3    H136812   1.723   0.021  15.314 -0.1195 -1.8302  0.1455
 5107TIP3    H236813   1.583   0.077  15.309  0.5310 -0.1813 -0.0582
 5108TIP3   OH236814   5.627   5.450  14.973 -0.1074 -0.9346 -0.0951
 5108TIP3    H136815   5.665   5.512  14.910 -2.0523  0.0903 -0.3365
 5108TIP3    H236816   5.622   5.367  14.925  0.2374 -0.6570 -0.6238
 5109TIP3   OH236817   6.077   6.494  16.669  0.6674 -0.0152  0.5455
 5109TIP3    H136818   6.087   6.539  16.585  1.3860  0.1446  0.7173
 5109TIP3    H236819   6.135   6.418  16.663 -0.1233 -0.6250  0.4711
 5110TIP3   OH236820   2.987   2.732   4.331  0.0819  0.1567 -0.0187
 5110TIP3    H136821   2.979   2.706   4.239  0.6696 -0.9473  0.2255
 5110TIP3    H236822   2.897   2.739   4.362 -0.1132 -0.6986 -0.3546
 5111TIP3   OH236823   0.737   6.675   2.906  0.2532  0.5095  0.0221
 5111TIP3    H136824   0.671   6.607   2.922  0.5216  0.1127 -0.5130
 5111TIP3    H236825   0.705   6.723   2.830  0.3531  0.6100  0.0423
 5112TIP3   OH236826   2.499   4.598   2.282  0.2606  0.5181 -0.4297
 5112TIP3    H136827   2.406   4.576   2.272  0.4854 -0.1678 -1.0413
 5112TIP3    H236828   2.546   4.529   2.236  1.1298  0.1834  0.8987
 5113TIP3   OH236829   6.125   4.634   3.144 -0.2483 -0.0433  0.8681
 5113TIP3    H136830   6.208   4.602   3.179 -0.2491 -0.9551  0.0771
 5113TIP3    H236831   6.062   4.564   3.163 -0.2378 -0.5945 -0.9344
 5114TIP3   OH236832   3.125   4.751  11.898  0.3778 -0.1227 -0.4014
 5114TIP3    H136833   3.054   4.696  11.930 -0.0358  0.1551 -0.8167
 5114TIP3    H236834   3.111   4.835  11.941 -0.1768  0.2507 -1.2834
 5115TIP3   OH236835   5.617   1.192   6.488 -0.3330  0.1424  0.2600
 5115TIP3    H136836   5.705   1.230   6.487 -0.8915  1.4850  0.6699
 5115TIP3    H236837   5.630   1.101   6.459  1.2080  0.2518  0.5360
 5116TIP3   OH236838   3.907   5.521  11.233  0.4950 -0.2133  0.4313
 5116TIP3    H136839   3.900   5.610  11.198  1.5503  0.4104  1.7413
 5116TIP3    H236840   3.836   5.473  11.189 -0.3593  1.3572 -0.0003
 5117TIP3   OH236841   1.731   4.529  16.356  0.0579  0.1815  0.1094
 5117TIP3    H136842   1.702   4.475  16.282  1.1173 -0.7578  0.3454
 5117TIP3    H236843   1.826   4.529  16.349  0.0751  2.5764 -0.2237
 5118TIP3   OH236844   2.444   2.926  11.590 -0.1008 -0.0683 -0.7525
 5118TIP3    H136845   2.521   2.954  11.638  0.1834 -0.6001 -0.8867
 5118TIP3    H236846   2.478   2.897  11.505 -0.1971 -2.0032 -0.1820
 5119TIP3   OH236847   2.572   0.780  14.362 -0.4054 -0.6520 -0.1346
 5119TIP3    H136848   2.625   0.780  14.283  2.0960  1.3560  1.3842
 5119TIP3    H236849   2.572   0.689  14.392  0.4110 -1.0437 -1.2810
 5120TIP3   OH236850   4.846   6.565  16.476 -0.0006 -0.2550 -0.7222
 5120TIP3    H136851   4.843   6.661  16.487  1.8613 -0.1374 -0.9947
 5120TIP3    H236852   4.768   6.545  16.424 -2.7717  0.5411  2.6772
 5121TIP3   OH236853   4.426   1.501   0.341  0.6201 -0.4997  0.3087
 5121TIP3    H136854   4.366   1.433   0.372 -1.2590  0.7910 -0.2454
 5121TIP3    H236855   4.417   1.498   0.245 -2.3633  2.7192  0.2686
 5122TIP3   OH236856   5.189   5.722  13.433  0.1337 -0.3111 -0.2729
 5122TIP3    H136857   5.269   5.707  13.383  0.8068  1.9299  0.0186
 5122TIP3    H236858   5.193   5.815  13.457 -1.4336 -0.6950  1.7265
 5123TIP3   OH236859   4.896   4.961  13.530  0.2140 -0.2175  0.0254
 5123TIP3    H136860   4.825   4.996  13.475  0.9398  1.5216  0.1611
 5123TIP3    H236861   4.873   4.988  13.619  1.1122  0.4835  0.0484
 5124TIP3   OH236862   6.081   1.934  15.716  0.0401  0.2707  0.4327
 5124TIP3    H136863   6.069   1.998  15.645 -0.3568 -0.0193  0.2302
 5124TIP3    H236864   6.111   1.986  15.790 -3.4466  1.3074  1.2997
 5125TIP3   OH236865   2.049   5.519   5.245  0.0716 -0.3502  0.2719
 5125TIP3    H136866   2.134   5.503   5.206 -0.0276 -0.5727  0.1445
 5125TIP3    H236867   2.050   5.612   5.270  0.0048 -0.1113 -0.5838
 5126TIP3   OH236868   0.926   3.001   3.661  0.1055 -0.1079 -0.1117
 5126TIP3    H136869   0.989   3.049   3.607  1.4921 -0.6730  0.9296
 5126TIP3    H236870   0.973   2.921   3.686 -0.3525  0.2491  2.1207
 5127TIP3   OH236871   3.419   2.192   2.123 -0.3337 -0.6254 -0.1562
 5127TIP3    H136872   3.478   2.150   2.186  0.3086  0.5777  0.0654
 5127TIP3    H236873   3.332   2.187   2.164  0.0957  0.2672  0.9171
 5128TIP3   OH236874   3.090   5.354  14.553  0.1483 -0.7138  0.5968
 5128TIP3    H136875   3.093   5.317  14.465  0.5204  0.9774 -0.1431
 5128TIP3    H236876   3.002   5.391  14.561  0.4463  0.0222  0.5379
 5129TIP3   OH236877   4.806   4.747   0.727  0.1254 -0.5548  0.3136
 5129TIP3    H136878   4.717   4.731   0.760  0.3295 -0.1765  1.0928
 5129TIP3    H236879   4.832   4.664   0.687 -0.6768 -0.5861 -0.1700
 5130TIP3   OH236880   4.293   5.953  10.549  0.2431 -0.7083  0.1158
 5130TIP3    H136881   4.233   5.879  10.556 -2.2456  0.8025 -2.6766
 5130TIP3    H236882   4.336   5.940  10.464  0.8567  0.3113  0.2603
 5131TIP3   OH236883   4.223   6.633  11.020 -0.3994  0.2670  0.3167
 5131TIP3    H136884   4.167   6.587  11.082  0.5817 -0.7398  0.4746
 5131TIP3    H236885   4.301   6.657  11.070  0.5063 -0.7601 -0.5644
 5132TIP3   OH236886   3.881   5.294   5.242  0.4949  0.1555  0.0126
 5132TIP3    H136887   3.828   5.330   5.171  0.8451 -0.2282 -0.4484
 5132TIP3    H236888   3.935   5.366   5.271 -0.0584  0.4711  0.2818
 5133TIP3   OH236889   1.322   6.793   0.048  0.0583  0.3553 -0.0381
 5133TIP3    H136890   1.264   6.716   0.050  1.2690 -0.5830 -0.0338
 5133TIP3    H236891   1.365   6.788  -0.038  1.1479  0.2467  0.4974
 5134TIP3   OH236892   1.624   4.665   3.890  0.0554 -0.7288 -0.5075
 5134TIP3    H136893   1.581   4.732   3.837  1.0428  0.9644  0.7123
 5134TIP3    H236894   1.630   4.588   3.833 -0.7342  0.3466 -2.1090
 5135TIP3   OH236895   0.563   3.099   4.495 -0.5528  0.0523 -0.5045
 5135TIP3    H136896   0.473   3.130   4.497 -0.8210 -0.5857  2.7360
 5135TIP3    H236897   0.615   3.178   4.513 -0.7344 -0.1006  0.7812
 5136TIP3   OH236898   0.591   2.913  11.399  0.0778  0.0070  0.2205
 5136TIP3    H136899   0.530   2.961  11.455  0.2055 -0.9670  1.2366
 5136TIP3    H236900   0.538   2.846  11.357  0.2784 -0.3148  0.4689
 5137TIP3   OH236901   5.329   0.061  11.439  0.0304 -0.8880  0.4333
 5137TIP3    H136902   5.287   0.143  11.413 -0.9028 -1.4258  0.2146
 5137TIP3    H236903   5.421   0.084  11.451  0.4105 -0.4271 -2.6289
 5138TIP3   OH236904   3.045   2.826  12.449  0.3230 -0.0416  0.0461
 5138TIP3    H136905   3.028   2.918  12.432 -0.0555 -0.0666  0.2869
 5138TIP3    H236906   2.977   2.799  12.510  0.6847 -0.3733  0.3113
 5139TIP3   OH236907   0.836   6.397   1.864  0.2172 -0.1062  0.3946
 5139TIP3    H136908   0.858   6.378   1.773  0.2392  0.0246  0.3728
 5139TIP3    H236909   0.914   6.438   1.900  0.4418 -0.7501  0.6545
 5140TIP3   OH236910   2.108   1.466  14.020  0.5216 -0.4177  0.5518
 5140TIP3    H136911   2.016   1.444  14.035  0.7482  0.0650  2.8912
 5140TIP3    H236912   2.136   1.404  13.952 -1.4762 -0.6496 -0.1145
 5141TIP3   OH236913   5.364   2.631  14.496  0.1642 -0.2727 -0.5280
 5141TIP3    H136914   5.340   2.697  14.561 -1.2488 -0.9762 -0.2949
 5141TIP3    H236915   5.280   2.594  14.467  0.7562 -0.1082 -2.6358
 5142TIP3   OH236916   3.314   2.046   5.424 -0.6091 -0.5469 -0.4313
 5142TIP3    H136917   3.385   2.090   5.377 -0.1851  0.1837  0.8452
 5142TIP3    H236918   3.357   1.982   5.479 -1.1102 -1.4242 -1.0278
 5143TIP3   OH236919   0.195   2.548   2.565 -0.4095 -0.0253  0.2759
 5143TIP3    H136920   0.108   2.521   2.533  0.7095 -2.3843 -1.0823
 5143TIP3    H236921   0.237   2.585   2.488 -0.0252  0.6298  0.7987
 5144TIP3   OH236922   0.260   6.236  14.009  0.3188 -0.2667 -0.3095
 5144TIP3    H136923   0.326   6.304  14.013  0.5532 -0.3883 -1.6527
 5144TIP3    H236924   0.299   6.161  14.053  1.5200 -0.6680 -1.9698
 5145TIP3   OH236925   0.972   1.721   2.208  0.4033  0.9264 -0.2171
 5145TIP3    H136926   0.948   1.753   2.120  0.0024  0.1627 -0.3907
 5145TIP3    H236927   1.038   1.654   2.192 -1.2640 -0.8341 -0.1317
 5146TIP3   OH236928   4.893   3.511   1.366  0.3336  0.6582 -0.1087
 5146TIP3    H136929   4.868   3.556   1.447  0.7627  0.4181  0.1647
 5146TIP3    H236930   4.972   3.558   1.337  0.0593  0.8778 -0.5045
 5147TIP3   OH236931   6.383   4.406   3.649  0.0977  0.2689  0.0914
 5147TIP3    H136932   6.476   4.387   3.639 -0.6337 -3.0417 -1.9281
 5147TIP3    H236933   6.351   4.338   3.709 -1.5198 -0.8787 -1.9154
 5148TIP3   OH236934   0.940   0.397  11.188  0.4499  0.1976  0.3809
 5148TIP3    H136935   0.955   0.384  11.094  0.0453  0.9627  0.2091
 5148TIP3    H236936   0.861   0.452  11.193  0.1066 -0.3457  1.1825
 5149TIP3   OH236937   6.351   2.872   4.825 -0.3976 -0.4079 -0.1163
 5149TIP3    H136938   6.421   2.817   4.791 -0.0719  1.3516 -2.5735
 5149TIP3    H236939   6.273   2.846   4.776 -0.6868 -0.0400  0.1441
 5150TIP3   OH236940   4.180   4.621   5.108 -0.5296  0.2111 -0.2573
 5150TIP3    H136941   4.253   4.564   5.083 -0.0748  0.7661 -0.2124
 5150TIP3    H236942   4.106   4.561   5.117  0.1049 -0.4913  0.5180
 5151TIP3   OH236943   4.209   3.125  14.917 -0.1022 -0.2162 -0.0134
 5151TIP3    H136944   4.257   3.044  14.899  0.9589  0.6094 -1.1245
 5151TIP3    H236945   4.156   3.106  14.994 -0.4985 -2.2139 -0.7192
 5152TIP3   OH236946   1.854   1.515  15.565 -0.2443 -0.3851 -0.3059
 5152TIP3    H136947   1.947   1.515  15.543 -0.6952 -0.8070 -2.3853
 5152TIP3    H236948   1.830   1.423  15.569 -0.9609 -0.2906 -1.7510
 5153TIP3   OH236949   3.983   0.525  13.597 -0.2294 -0.5380 -0.4102
 5153TIP3    H136950   4.014   0.524  13.507 -1.2833  0.0395 -0.7909
 5153TIP3    H236951   3.892   0.494  13.592 -0.5323  0.1874  0.3526
 5154TIP3   OH236952   0.456   1.322  13.278  0.6738 -0.2909  0.3599
 5154TIP3    H136953   0.513   1.397  13.292  0.8639 -0.5256  0.8754
 5154TIP3    H236954   0.372   1.360  13.253  1.2429  0.0387 -1.1734
 5155TIP3   OH236955   0.987   5.047  11.055  0.0179 -1.0932  0.3116
 5155TIP3    H136956   1.032   4.991  10.992  2.7975  0.9900  0.2838
 5155TIP3    H236957   0.922   5.094  11.004  1.5184 -0.2129 -0.8749
 5156TIP3   OH236958   3.552   5.884  13.490  0.4506  0.4639 -0.4281
 5156TIP3    H136959   3.497   5.833  13.431 -0.6132 -0.3605  1.1863
 5156TIP3    H236960   3.602   5.942  13.433  0.4307 -1.1697 -2.2280
 5157TIP3   OH236961   1.406   5.920  15.350 -0.2397 -0.0394 -0.3937
 5157TIP3    H136962   1.480   5.947  15.296  0.3374  0.8654  0.7895
 5157TIP3    H236963   1.443   5.910  15.438 -1.2152 -1.1330 -0.0819
 5158TIP3   OH236964   2.622   0.096  16.574 -0.9787 -0.1504  0.2554
 5158TIP3    H136965   2.687   0.076  16.642  0.8097  1.3057 -0.9345
 5158TIP3    H236966   2.617   0.192  16.574 -0.3695 -0.0702 -2.1126
 5159TIP3   OH236967   3.837   0.442   1.759  0.4428 -0.7932 -0.4038
 5159TIP3    H136968   3.749   0.430   1.795  0.2287 -2.9757 -1.4809
 5159TIP3    H236969   3.857   0.359   1.716  3.0502 -0.3773 -0.1862
 5160TIP3   OH236970   5.186   6.287  15.770  0.3718  0.1829 -0.0016
 5160TIP3    H136971   5.196   6.383  15.774  0.4810  0.1588  0.3372
 5160TIP3    H236972   5.218   6.264  15.683  1.4141  0.3364  0.3238
 5161TIP3   OH236973   6.461   3.882   3.935 -0.2175  0.1908  0.0816
 5161TIP3    H136974   6.505   3.964   3.912  0.2929 -0.4348 -1.3137
 5161TIP3    H236975   6.528   3.815   3.921 -1.2354 -0.6561 -0.8552
 5162TIP3   OH236976   6.718   5.174  14.112 -0.7308 -0.2723  0.6180
 5162TIP3    H136977   6.670   5.182  14.029 -0.2208 -0.3158  0.3171
 5162TIP3    H236978   6.729   5.080  14.125 -0.2069 -0.2450  0.3836
 5163TIP3   OH236979   3.786   2.689  15.332  0.3361  0.4121 -0.0812
 5163TIP3    H136980   3.859   2.736  15.294 -0.1198  0.6172 -0.7135
 5163TIP3    H236981   3.723   2.680  15.261  0.1599 -0.6238  0.1827
 5164TIP3   OH236982   0.182   5.306  15.778 -0.3019 -0.5220 -0.1876
 5164TIP3    H136983   0.180   5.401  15.782 -1.0863 -0.5104 -0.6125
 5164TIP3    H236984   0.095   5.282  15.747  0.1329 -1.3497 -0.7984
 5165TIP3   OH236985   2.456   1.885  14.925 -0.4045 -0.1985 -0.4642
 5165TIP3    H136986   2.456   1.974  14.889 -0.3256  0.1153  0.2818
 5165TIP3    H236987   2.365   1.856  14.919 -1.0318  1.0042  1.7790
 5166TIP3   OH236988   4.518   2.355  11.728 -0.2337  0.5851 -0.7214
 5166TIP3    H136989   4.454   2.321  11.791 -1.6401  1.7993 -1.4234
 5166TIP3    H236990   4.582   2.401  11.782 -1.0454  1.0365 -0.1251
 5167TIP3   OH236991   0.887   4.723  12.656 -0.1730  0.3119 -0.0100
 5167TIP3    H136992   0.870   4.628  12.660 -0.0819  0.2875 -0.2116
 5167TIP3    H236993   0.982   4.731  12.651 -0.1416  0.4385  0.7031
 5168TIP3   OH236994   4.177   2.543  15.008 -0.1831 -0.6289  0.0556
 5168TIP3    H136995   4.170   2.466  15.064  0.6492 -0.9780 -0.3040
 5168TIP3    H236996   4.088   2.578  15.004 -0.4687 -1.2661  0.6513
 5169TIP3   OH236997   0.078   5.377   1.777 -0.1190  0.6373  0.0452
 5169TIP3    H136998   0.089   5.283   1.763  1.2166  0.8169 -0.2362
 5169TIP3    H236999   0.142   5.418   1.719 -0.3876  1.7076  0.4773
 5170TIP3   OH237000   2.581   5.224   4.609  0.3979  0.8848  0.0105
 5170TIP3    H137001   2.498   5.220   4.656  0.6876  1.3283  0.5594
 5170TIP3    H237002   2.569   5.163   4.536 -0.1637  0.4259  0.4720
 5171TIP3   OH237003   2.792   5.503  14.465 -0.1368 -0.4285  0.4994
 5171TIP3    H137004   2.709   5.536  14.430  0.9270  1.6410 -0.2019
 5171TIP3    H237005   2.821   5.439  14.399  0.8393  1.9374 -1.5019
 5172TIP3   OH237006   4.306   5.352  16.746  0.4149  0.0922 -0.8498
 5172TIP3    H137007   4.243   5.393  16.806 -0.8079 -1.3501 -1.0882
 5172TIP3    H237008   4.267   5.267  16.725  1.4587  0.0176 -2.6530
 5173TIP3   OH237009   4.934   1.876  13.861 -0.5959 -0.4352  0.0333
 5173TIP3    H137010   4.982   1.857  13.941 -0.5421 -0.2757  0.0394
 5173TIP3    H237011   4.960   1.966  13.838 -0.4076 -0.5732 -0.3027
 5174TIP3   OH237012   1.571   4.368   2.920  0.3698 -0.1875 -0.2090
 5174TIP3    H137013   1.575   4.273   2.927  2.3954 -0.1228  0.0894
 5174TIP3    H237014   1.587   4.400   3.008  1.6248  0.4148 -0.6220
 5175TIP3   OH237015   0.470   6.110   3.453 -0.4039  0.4531 -0.5588
 5175TIP3    H137016   0.557   6.086   3.485 -0.2146  0.5147 -1.0320
 5175TIP3    H237017   0.437   6.031   3.411 -1.3844 -0.2065  1.3134
 5176TIP3   OH237018   5.385   0.394  13.262  0.3563  0.4876  0.5691
 5176TIP3    H137019   5.310   0.370  13.208 -0.4564  2.9171  0.5140
 5176TIP3    H237020   5.437   0.452  13.206  1.6265 -0.1576  1.0509
 5177TIP3   OH237021   1.352   4.884   0.674  0.1690  0.1332 -0.3887
 5177TIP3    H137022   1.321   4.844   0.755 -2.3378  1.4816 -0.5702
 5177TIP3    H237023   1.413   4.953   0.703 -0.7881  0.6791  0.3795
 5178TIP3   OH237024   6.150   0.730   5.638  0.0851  0.1742 -0.4708
 5178TIP3    H137025   6.095   0.682   5.700 -2.9821  1.1076 -2.2969
 5178TIP3    H237026   6.211   0.665   5.604 -0.8689 -1.2850  0.5153
 5179TIP3   OH237027   4.776   2.312   1.421 -0.4091 -0.2968  0.4605
 5179TIP3    H137028   4.696   2.315   1.474 -2.6465 -2.5202 -2.4564
 5179TIP3    H237029   4.823   2.236   1.454 -0.7176 -0.4247  0.6109
 5180TIP3   OH237030   1.025   4.127  12.562  0.5084 -0.2476 -0.2120
 5180TIP3    H137031   1.100   4.087  12.605 -0.7118 -1.3068  1.0011
 5180TIP3    H237032   0.953   4.064  12.573 -0.7561  1.0373 -0.7119
 5181TIP3   OH237033   1.771   0.777   3.008  0.5276  0.1002  0.4162
 5181TIP3    H137034   1.764   0.858   2.958  1.6940 -0.3695 -0.5426
 5181TIP3    H237035   1.817   0.717   2.950  0.9997 -0.7889  1.6771
 5182TIP3   OH237036   0.969   6.082   0.225 -0.6951  0.6152  0.3381
 5182TIP3    H137037   1.023   6.023   0.172 -0.4536  0.5533  0.6474
 5182TIP3    H237038   0.885   6.086   0.179 -0.1439  1.3982 -0.6189
 5183TIP3   OH237039   2.681   3.667  11.993 -0.9313  0.2123 -0.4855
 5183TIP3    H137040   2.598   3.671  12.042 -0.2898  0.6088  0.6082
 5183TIP3    H237041   2.748   3.662  12.061 -0.0594 -0.3168 -1.3661
 5184TIP3   OH237042   6.467   0.658  14.547 -0.2292 -0.1036 -0.0300
 5184TIP3    H137043   6.532   0.703  14.602  0.3058  0.4027 -1.0558
 5184TIP3    H237044   6.474   0.566  14.572 -0.2823  0.1569  1.0288
 5185TIP3   OH237045   3.313   4.609  12.868 -0.7832 -0.1680  0.1203
 5185TIP3    H137046   3.260   4.561  12.932 -1.4780  2.1772  1.4394
 5185TIP3    H237047   3.285   4.700  12.877  2.1308  0.9099 -0.4955
 5186TIP3   OH237048   0.705   6.762   5.301  0.1934 -0.1018  0.3546
 5186TIP3    H137049   0.683   6.841   5.351  0.8516  0.2897  0.0334
 5186TIP3    H237050   0.758   6.710   5.362  1.9139  0.8607 -0.2552
 5187TIP3   OH237051   3.007   3.078   4.508 -0.1850  0.1110  0.1438
 5187TIP3    H137052   2.918   3.112   4.503 -0.0790  0.3027 -0.5423
 5187TIP3    H237053   3.060   3.143   4.462 -0.0889 -1.3382 -1.9208
 5188TIP3   OH237054   4.127   4.942   5.802 -0.5707  0.0961  0.4813
 5188TIP3    H137055   4.071   5.016   5.778 -1.1029  0.0609  1.5794
 5188TIP3    H237056   4.135   4.948   5.897  1.8958  0.5411  0.3255
 5189TIP3   OH237057   1.302   2.877   5.230 -0.2287  0.3784  0.9043
 5189TIP3    H137058   1.221   2.869   5.179  0.1595  0.8373  0.2029
 5189TIP3    H237059   1.372   2.864   5.166  0.2937  2.2669  1.0455
 5190TIP3   OH237060   5.634   0.398  12.086  0.5525 -1.4628 -0.5464
 5190TIP3    H137061   5.627   0.305  12.063 -0.4351 -0.8326 -3.2274
 5190TIP3    H237062   5.545   0.423  12.111  0.9249 -1.3121  0.7006
 5191TIP3   OH237063   2.430   1.675   4.694 -0.1309  0.1473 -0.0997
 5191TIP3    H137064   2.505   1.633   4.737  1.3553  3.3444  0.7221
 5191TIP3    H237065   2.354   1.645   4.744  1.2952  1.8542  3.4466
 5192TIP3   OH237066   2.459   3.023   4.016 -0.9877 -0.2216 -0.4372
 5192TIP3    H137067   2.408   3.097   4.049  2.8858  2.1115  0.9913
 5192TIP3    H237068   2.498   3.055   3.935 -0.0383 -1.0196 -0.3196
 5193TIP3   OH237069   5.017   6.835  14.969 -0.1810 -0.2121 -0.0721
 5193TIP3    H137070   5.099   6.799  15.003 -0.8592 -0.8590  0.9400
 5193TIP3    H237071   5.012   6.804  14.878  0.1023 -1.2033  0.2443
 5194TIP3   OH237072   5.590   0.312   6.302 -0.2220 -0.1637  0.1172
 5194TIP3    H137073   5.591   0.217   6.287 -0.9453 -0.0792 -0.5120
 5194TIP3    H237074   5.505   0.329   6.343 -0.7102  0.3946 -1.0834
 5195TIP3   OH237075   1.314   4.966   4.156 -0.3788 -0.5375 -0.1042
 5195TIP3    H137076   1.231   5.007   4.133 -0.4468  0.0954  1.1592
 5195TIP3    H237077   1.342   4.921   4.076 -1.5023 -0.0443 -0.7999
 5196TIP3   OH237078   4.236   1.610  16.014 -0.4790  0.1637 -0.3964
 5196TIP3    H137079   4.200   1.577  16.097 -0.0889 -0.8087 -0.5964
 5196TIP3    H237080   4.293   1.539  15.984 -1.5407 -0.0089 -2.0889
 5197TIP3   OH237081   0.651   6.548   3.661  0.0870 -0.1029  0.1850
 5197TIP3    H137082   0.689   6.572   3.746 -2.2923  0.0771  1.2754
 5197TIP3    H237083   0.642   6.453   3.665  0.8750 -0.2051 -0.2917
 5198TIP3   OH237084   3.952   1.701  15.608 -0.4139 -0.3946 -0.1533
 5198TIP3    H137085   3.950   1.791  15.573  0.9174 -0.5218 -0.5868
 5198TIP3    H237086   4.030   1.698  15.662 -0.1914 -1.4401 -0.5245
 5199TIP3   OH237087   5.800   2.144   0.891  0.4384  0.2302  0.2897
 5199TIP3    H137088   5.768   2.097   0.968 -0.1870  0.1989  0.0205
 5199TIP3    H237089   5.725   2.145   0.831  0.8428  0.4636 -0.2198
 5200TIP3   OH237090   0.883   5.660   4.891  0.4450  0.0578  0.0931
 5200TIP3    H137091   0.909   5.751   4.883 -0.6595  0.4648  0.8572
 5200TIP3    H237092   0.833   5.656   4.972 -0.9490 -0.8761 -0.7643
 5201TIP3   OH237093   0.534   4.243  14.333 -0.0730 -0.2661 -0.4331
 5201TIP3    H137094   0.542   4.218  14.425 -0.0673  0.7365 -0.1422
 5201TIP3    H237095   0.484   4.325  14.335 -1.0632 -0.8292 -1.4162
 5202TIP3   OH237096   1.820   6.058  11.529  0.5066 -0.2270  0.6132
 5202TIP3    H137097   1.873   6.024  11.601  1.7084  2.0594  0.8658
 5202TIP3    H237098   1.875   6.123  11.486 -0.6303 -0.6617 -1.6787
 5203TIP3   OH237099   3.772   4.912  17.093 -0.8539  0.4653 -0.0451
 5203TIP3    H137100   3.855   4.958  17.106  0.4296 -1.7587  0.2937
 5203TIP3    H237101   3.730   4.957  17.020 -0.0588  2.5485  0.7007
 5204TIP3   OH237102   0.195   5.812   4.148  0.1893  0.9159 -0.0301
 5204TIP3    H137103   0.154   5.826   4.234 -0.2352 -0.7759  0.0649
 5204TIP3    H237104   0.130   5.845   4.085  1.2517  3.9374  0.2689
 5205TIP3   OH237105   6.749   2.394  16.103  0.1137 -0.5163  0.0879
 5205TIP3    H137106   6.784   2.397  16.014 -1.4503  1.2911 -0.5406
 5205TIP3    H237107   6.805   2.454  16.153 -0.1447 -0.0866 -0.1371
 5206TIP3   OH237108   4.068   5.663   1.596 -0.0950 -0.2233 -0.1695
 5206TIP3    H137109   3.976   5.661   1.624  0.1060 -1.7735  0.4610
 5206TIP3    H237110   4.078   5.588   1.537  0.7762 -0.0965 -0.2010
 5207TIP3   OH237111   4.576   6.234  13.860  0.0597  0.0590  0.5460
 5207TIP3    H137112   4.536   6.320  13.854 -0.4734 -0.1111  1.5226
 5207TIP3    H237113   4.654   6.240  13.805  0.1754  1.2431  0.8201
 5208TIP3   OH237114   4.844   6.585   5.953  0.1554  0.4028  0.0024
 5208TIP3    H137115   4.895   6.593   5.872  0.5186 -0.3680  0.1470
 5208TIP3    H237116   4.804   6.672   5.965  1.2625  0.9624 -0.2257
 5209TIP3   OH237117   0.146   5.183   0.371  0.5405  0.5010  0.3480
 5209TIP3    H137118   0.097   5.106   0.341  0.8949  0.0761  0.8455
 5209TIP3    H237119   0.208   5.148   0.435  0.0701  1.3323  1.2792
 5210TIP3   OH237120   2.660   6.019  13.826 -0.3642  0.0449  0.9449
 5210TIP3    H137121   2.743   5.977  13.843  1.0351  1.5075 -1.6105
 5210TIP3    H237122   2.598   5.947  13.812  0.7174 -1.0574  1.7057
 5211TIP3   OH237123   4.561   0.806  12.346 -0.2586 -0.0015 -0.0220
 5211TIP3    H137124   4.654   0.786  12.337 -0.3488 -0.4066 -0.0901
 5211TIP3    H237125   4.545   0.799  12.441 -0.1450  0.4236  0.0311
 5212TIP3   OH237126   1.460   4.703   5.431 -0.0040 -0.3787 -0.4274
 5212TIP3    H137127   1.511   4.658   5.363  0.0969  0.2494 -0.7779
 5212TIP3    H237128   1.422   4.778   5.385 -0.2982 -0.1985  0.1117
 5213TIP3   OH237129   2.766   4.355   4.690 -0.1297  0.4856 -0.0972
 5213TIP3    H137130   2.846   4.305   4.670 -1.1650 -0.7372 -1.4110
 5213TIP3    H237131   2.791   4.446   4.676  1.7310  0.3903  2.0076
 5214TIP3   OH237132   3.613   1.861  11.848 -0.6046 -0.3229 -0.5444
 5214TIP3    H137133   3.611   1.766  11.852  2.6904 -0.4475  0.7356
 5214TIP3    H237134   3.704   1.885  11.866 -1.4640  3.1151  0.0277
 5215TIP3   OH237135   4.408   2.880  16.385  0.2125  0.5138 -0.2163
 5215TIP3    H137136   4.452   2.811  16.434  2.0971  3.2898  2.3830
 5215TIP3    H237137   4.470   2.906  16.318 -0.2432  0.0962 -0.8051
 5216TIP3   OH237138   3.737   0.690  11.001  0.3675  0.0861 -0.2633
 5216TIP3    H137139   3.802   0.620  10.992  2.3069  1.9058 -1.2450
 5216TIP3    H237140   3.783   0.759  11.049 -0.7790  1.4941 -1.1204
 5217TIP3   OH237141   3.801   4.723   4.539  0.0570 -0.1177 -0.2162
 5217TIP3    H137142   3.785   4.725   4.444  0.7930  2.1648 -0.3430
 5217TIP3    H237143   3.716   4.705   4.577 -0.3396 -0.6160 -1.2831
 5218TIP3   OH237144   5.078   3.737  15.153  0.1337 -0.5629  0.0200
 5218TIP3    H137145   5.132   3.788  15.093  1.2008 -1.8000 -0.1241
 5218TIP3    H237146   5.082   3.785  15.235  2.0523 -0.9250  0.2049
 5219TIP3   OH237147   3.608   4.773   6.309 -0.1244 -0.4110  0.4217
 5219TIP3    H137148   3.610   4.716   6.385  0.7307 -0.9066  0.0384
 5219TIP3    H237149   3.517   4.769   6.279 -0.5576  0.0747  1.6085
 5220TIP3   OH237150   6.327   1.632  12.820  0.0202  0.3218  0.4170
 5220TIP3    H137151   6.236   1.651  12.799 -0.1658 -0.8373  0.0686
 5220TIP3    H237152   6.327   1.617  12.914 -0.1621  0.2655  0.4082
 5221TIP3   OH237153   6.380   0.991   2.810 -0.7001  0.1310 -0.4040
 5221TIP3    H137154   6.399   0.928   2.879 -0.1360  0.1470 -0.5420
 5221TIP3    H237155   6.339   1.065   2.855  3.9552  2.3142  0.7631
 5222TIP3   OH237156   4.363   3.713   3.178  0.2893 -0.6439 -0.2536
 5222TIP3    H137157   4.379   3.634   3.228 -2.3592  0.1593  2.1401
 5222TIP3    H237158   4.287   3.692   3.123 -1.8941  0.7092  2.0317
 5223TIP3   OH237159   3.553   3.861   2.857 -0.4022  0.0633  0.1436
 5223TIP3    H137160   3.523   3.889   2.943  0.8934 -0.0116  0.6378
 5223TIP3    H237161   3.581   3.942   2.814  0.1942 -0.0640  0.2949
 5224TIP3   OH237162   4.664   6.430  14.432  0.8795  0.0864  0.0880
 5224TIP3    H137163   4.735   6.369  14.450  1.6566 -0.8044 -4.7680
 5224TIP3    H237164   4.706   6.515  14.420  0.7233  0.1780  0.1831
 5225TIP3   OH237165   4.843   1.177  15.151  0.2571 -0.6671 -0.1598
 5225TIP3    H137166   4.920   1.123  15.170 -0.6900 -1.2635  2.3087
 5225TIP3    H237167   4.796   1.127  15.083  0.2118 -2.2091  0.9408
 5226TIP3   OH237168   5.243   1.137  13.765 -0.0474 -0.0134 -0.2529
 5226TIP3    H137169   5.256   1.214  13.821 -1.5133  0.8521 -1.0291
 5226TIP3    H237170   5.301   1.071  13.801 -0.0346  0.9096  1.5294
 5227TIP3   OH237171   0.761   5.265  16.124  0.6622 -0.7040  0.1216
 5227TIP3    H137172   0.855   5.250  16.134  0.6831 -0.2995  0.6043
 5227TIP3    H237173   0.753   5.360  16.113  0.2272 -0.5844  1.3019
 5228TIP3   OH237174   3.207   5.380   2.769  0.0585 -0.7427  0.1104
 5228TIP3    H137175   3.179   5.354   2.856 -1.0396  0.9984  0.3260
 5228TIP3    H237176   3.127   5.409   2.725  0.9457  0.8554 -0.5522
 5229TIP3   OH237177   4.096   3.922   5.071  0.3836  0.4213  0.5527
 5229TIP3    H137178   4.011   3.893   5.038  0.5581  0.3130  0.1941
 5229TIP3    H237179   4.141   3.841   5.097  1.7139  0.0814 -2.4244
 5230TIP3   OH237180   2.108   6.242  12.380 -0.3239  0.1428 -0.0914
 5230TIP3    H137181   2.163   6.166  12.364  0.0207  0.1026  1.1768
 5230TIP3    H237182   2.165   6.317  12.364 -0.5369  0.1398 -0.9051
 5231TIP3   OH237183   1.991   3.522   3.949 -0.8380 -0.8176  0.2843
 5231TIP3    H137184   2.087   3.517   3.957 -0.7283  0.5771  0.1061
 5231TIP3    H237185   1.969   3.607   3.985 -1.9173 -0.7058 -0.6023
 5232TIP3   OH237186   6.808   6.401   5.143 -0.6148  0.6168 -0.1943
 5232TIP3    H137187   6.832   6.467   5.077 -0.7306  0.3837 -0.4665
 5232TIP3    H237188   6.824   6.317   5.101  0.8331  0.4569  0.6145
 5233TIP3   OH237189   6.426   0.182  13.823 -0.7528 -0.0506  0.2469
 5233TIP3    H137190   6.389   0.122  13.758  0.8866 -1.0051  0.1523
 5233TIP3    H237191   6.451   0.125  13.896 -1.1771  0.8238  1.1010
 5234TIP3   OH237192   0.761   0.815   2.247 -0.1355  0.0522  0.0382
 5234TIP3    H137193   0.810   0.742   2.284  1.6042  1.1567  0.0328
 5234TIP3    H237194   0.763   0.882   2.315 -0.9654  0.4206 -0.2890
 5235TIP3   OH237195   3.477   0.614   3.322  0.4516  0.0131  0.2534
 5235TIP3    H137196   3.403   0.673   3.337 -1.0174 -0.7240 -3.1681
 5235TIP3    H237197   3.519   0.648   3.243  1.3380 -1.8289 -0.1235
 5236TIP3   OH237198   5.259   0.960   0.016 -0.3791  0.4220 -0.4056
 5236TIP3    H137199   5.318   0.923  -0.050 -0.8842  0.7609 -1.0629
 5236TIP3    H237200   5.182   0.988  -0.034 -0.5991  1.0624  0.2729
 5237TIP3   OH237201   0.306   6.580  16.139  0.1550  0.1812 -0.4021
 5237TIP3    H137202   0.293   6.620  16.225 -0.5439  0.6976 -0.7370
 5237TIP3    H237203   0.238   6.512  16.135  0.1615  0.1858 -0.5630
 5238TIP3   OH237204   0.628   4.051   3.481  0.2586 -0.3035 -0.1010
 5238TIP3    H137205   0.619   3.979   3.543  0.3798 -0.8368 -0.6980
 5238TIP3    H237206   0.568   4.029   3.410  1.9061 -0.9513 -1.3571
 5239TIP3   OH237207   3.461   0.880   0.667  0.3412  0.7623 -0.3280
 5239TIP3    H137208   3.517   0.860   0.742 -0.3956 -1.2907 -0.2540
 5239TIP3    H237209   3.467   0.802   0.611 -2.6830  0.2807 -0.1378
 5240TIP3   OH237210   5.183   0.596   2.667  0.0718  0.0366  0.0780
 5240TIP3    H137211   5.096   0.597   2.708 -0.0511 -2.3010  0.0112
 5240TIP3    H237212   5.244   0.605   2.740 -0.2051  0.4820  0.2586
 5241TIP3   OH237213   2.943   1.722   2.804  0.0330  0.3354  0.2356
 5241TIP3    H137214   2.994   1.802   2.817 -0.1585  0.3941  0.6478
 5241TIP3    H237215   2.852   1.751   2.804 -0.0047  0.2207 -0.4281
 5242TIP3   OH237216   5.859   1.556  14.109 -0.3459 -0.2281  0.3607
 5242TIP3    H137217   5.877   1.470  14.147  1.3125 -0.2766 -0.4215
 5242TIP3    H237218   5.854   1.615  14.184 -0.7906 -0.8780  0.8594
 5243TIP3   OH237219   0.646   4.821  12.147  0.1137 -0.4696  0.0425
 5243TIP3    H137220   0.582   4.892  12.152 -1.0840 -1.2586 -2.5243
 5243TIP3    H237221   0.652   4.801  12.054  0.7246 -3.4484  0.6269
 5244TIP3   OH237222   3.222   1.157   2.618 -0.5629  0.3683 -0.1102
 5244TIP3    H137223   3.194   1.216   2.688  3.7130  1.3192  1.1039
 5244TIP3    H237224   3.227   1.071   2.659 -0.6193  0.4177  0.0000
 5245TIP3   OH237225   0.053   5.260  12.676  0.2221  0.1722 -0.1258
 5245TIP3    H137226   0.003   5.204  12.736  0.2331 -0.1614 -0.4244
 5245TIP3    H237227  -0.012   5.298  12.618  0.3058 -0.1964 -0.4618
 5246TIP3   OH237228   0.102   1.198  12.341  0.3199 -0.0610 -0.8561
 5246TIP3    H137229   0.139   1.110  12.347 -0.9092 -0.6107 -1.0074
 5246TIP3    H237230   0.174   1.256  12.365  0.3889 -1.2210  2.1314
 5247TIP3   OH237231   5.478   1.336  13.016 -0.4233  0.2159  0.4585
 5247TIP3    H137232   5.561   1.292  13.035  0.6268  1.9058 -0.0138
 5247TIP3    H237233   5.444   1.360  13.102 -0.5518 -0.6813  0.6666
 5248TIP3   OH237234   3.870   4.860   0.238 -0.6974 -0.5493 -0.6546
 5248TIP3    H137235   3.925   4.804   0.183  1.7637  0.6902  0.3672
 5248TIP3    H237236   3.810   4.903   0.177  0.5649 -0.7354 -2.0870
 5249TIP3   OH237237   4.282   3.232  16.240 -0.1067 -0.3415 -0.0520
 5249TIP3    H137238   4.367   3.271  16.262 -0.0690 -1.0515  1.1383
 5249TIP3    H237239   4.287   3.215  16.146  1.7146 -1.8456  0.2559
 5250TIP3   OH237240   5.163   0.777   1.942  0.2276  0.0613 -0.1347
 5250TIP3    H137241   5.223   0.704   1.954 -0.7581 -0.5128  1.6152
 5250TIP3    H237242   5.102   0.771   2.015 -1.8149  0.7851 -1.6786
 5251TIP3   OH237243   5.093   4.661  15.807  0.5457 -0.0338 -0.4237
 5251TIP3    H137244   5.075   4.755  15.799  0.7160  0.1700  1.3168
 5251TIP3    H237245   5.007   4.620  15.814  0.5127  0.3314  1.8751
 5252TIP3   OH237246   2.777   2.534  15.047  0.5525  0.5996  0.6854
 5252TIP3    H137247   2.775   2.553  14.953  2.4576 -2.1295 -0.0024
 5252TIP3    H237248   2.782   2.620  15.089 -0.4656  1.8827 -1.6658
 5253TIP3   OH237249   5.674   1.205   2.360 -0.3552  0.3493 -0.2394
 5253TIP3    H137250   5.722   1.287   2.350 -2.2450  1.7272  1.3113
 5253TIP3    H237251   5.713   1.163   2.437 -0.3699  0.5292 -0.1337
 5254TIP3   OH237252   0.571   5.224   2.126  0.0717  0.0755 -0.3983
 5254TIP3    H137253   0.493   5.174   2.148 -0.8542  1.2801 -0.8524
 5254TIP3    H237254   0.577   5.290   2.196  1.0683 -0.4032 -0.0065
 5255TIP3   OH237255   4.783   2.910   6.610 -0.1062 -0.3322 -0.2776
 5255TIP3    H137256   4.798   2.998   6.574  0.2509 -1.2846 -2.6641
 5255TIP3    H237257   4.871   2.874   6.621 -0.2636 -1.1794 -1.5496
 5256TIP3   OH237258   2.426   4.256  12.795 -0.0854 -0.4475  0.1865
 5256TIP3    H137259   2.396   4.336  12.838 -3.4446 -2.1202  1.2901
 5256TIP3    H237260   2.346   4.208  12.775  1.6814 -2.5792 -2.4626
 5257TIP3   OH237261   3.558   1.206   2.298  0.6139 -0.6163  0.7046
 5257TIP3    H137262   3.584   1.251   2.378 -0.9767  0.0980  0.8636
 5257TIP3    H237263   3.508   1.131   2.328 -1.5403  0.6289  0.4340
 5258TIP3   OH237264   2.348   6.508   3.640  0.2706  0.4324  0.1011
 5258TIP3    H137265   2.422   6.532   3.695  1.3327 -1.2956 -0.4835
 5258TIP3    H237266   2.387   6.454   3.570 -1.7930 -2.8690  1.2613
 5259TIP3   OH237267   3.642   1.213  16.172 -0.7554 -0.1608  0.2468
 5259TIP3    H137268   3.547   1.218  16.175 -0.8084 -0.3710 -0.7160
 5259TIP3    H237269   3.662   1.183  16.083  0.1717 -0.9046  0.6756
 5260TIP3   OH237270   4.121   2.198  11.836 -0.1013 -0.0357 -0.9195
 5260TIP3    H137271   4.030   2.222  11.852  0.1057  0.9095 -1.1443
 5260TIP3    H237272   4.134   2.212  11.742  0.3030 -0.0848 -0.8739
 5261TIP3   OH237273   2.151   3.369  12.759  0.4044  0.1696  0.1071
 5261TIP3    H137274   2.140   3.278  12.730 -4.9351  0.1628  1.2032
 5261TIP3    H237275   2.146   3.365  12.855  1.9031  1.5395  0.2853
 5262TIP3   OH237276   6.709   1.074  16.070 -0.1144  0.4031 -0.0534
 5262TIP3    H137277   6.694   1.094  15.978  0.1575  0.3741 -0.1058
 5262TIP3    H237278   6.736   0.982  16.071 -0.1538  0.3923  0.0581
 5263TIP3   OH237279   0.170   5.857  11.581  0.5736 -0.7418  0.0542
 5263TIP3    H137280   0.250   5.907  11.564  0.4550 -0.3943  0.4986
 5263TIP3    H237281   0.155   5.809  11.500  1.1893 -0.7505 -0.0638
 5264TIP3   OH237282   0.666   3.693  13.234  0.0716 -0.0388 -0.3442
 5264TIP3    H137283   0.719   3.706  13.313 -0.3351 -0.9172  0.0894
 5264TIP3    H237284   0.696   3.761  13.174  1.6428 -0.4474 -0.0826
 5265TIP3   OH237285   5.158   1.360  13.346 -0.1256 -0.4471 -0.1069
 5265TIP3    H137286   5.095   1.369  13.275  0.5874  1.8945 -0.5054
 5265TIP3    H237287   5.113   1.395  13.423  0.0843 -0.3821 -0.0120
 5266TIP3   OH237288   5.007   3.145   5.260  0.0167  0.2486  0.0586
 5266TIP3    H137289   4.987   3.051   5.263  1.1498 -0.0191 -0.3078
 5266TIP3    H237290   4.962   3.177   5.183 -2.2975  0.5070  1.4258
 5267TIP3   OH237291   6.558   4.650  13.162  0.6454  0.2481 -0.1589
 5267TIP3    H137292   6.497   4.621  13.095  0.2919  0.6029  0.0030
 5267TIP3    H237293   6.527   4.607  13.243  0.4849  0.5939 -0.0368
 5268TIP3   OH237294   4.117   5.468  10.980  0.0583 -0.5202  0.3223
 5268TIP3    H137295   4.030   5.427  10.974  0.5258 -1.3296 -2.0573
 5268TIP3    H237296   4.143   5.481  10.889  2.4567 -0.2954  0.9900
 5269TIP3   OH237297   0.752   0.373   3.611 -0.4793 -0.1328 -0.2091
 5269TIP3    H137298   0.770   0.303   3.675 -2.0685 -1.3322 -1.0089
 5269TIP3    H237299   0.788   0.340   3.529  0.4407  0.8574 -0.2205
 5270TIP3   OH237300   6.460   2.317  10.937 -0.0039 -0.5974 -0.0289
 5270TIP3    H137301   6.454   2.405  10.900  2.1969 -0.0193  0.8175
 5270TIP3    H237302   6.447   2.258  10.863 -2.1211  0.4006 -0.5027
 5271TIP3   OH237303   4.202   2.653   4.824  0.7823  0.4809 -0.8934
 5271TIP3    H137304   4.177   2.586   4.760  0.3321  0.0963 -0.3299
 5271TIP3    H237305   4.263   2.609   4.883 -1.3700 -0.2372  0.9579
 5272TIP3   OH237306   1.519   6.636   6.573  0.1708  0.7200 -0.0280
 5272TIP3    H137307   1.603   6.676   6.596  1.6712 -2.3276  0.2552
 5272TIP3    H237308   1.469   6.638   6.655  2.2529 -2.4782  1.5140
 5273TIP3   OH237309   4.192   6.149  11.265 -0.3932  0.3835 -0.5447
 5273TIP3    H137310   4.172   6.200  11.344  0.1987 -1.7979  1.1186
 5273TIP3    H237311   4.173   6.209  11.192  1.1284  3.2681  1.2331
 5274TIP3   OH237312   5.261   1.192  12.892 -0.1001 -0.1462  0.1037
 5274TIP3    H137313   5.349   1.222  12.909 -0.5875  0.4059  1.7830
 5274TIP3    H237314   5.267   1.096  12.897  0.2940 -0.0907  0.7916
 5275TIP3   OH237315   2.873   1.161   5.908 -0.4623 -0.5679 -0.3152
 5275TIP3    H137316   2.934   1.133   5.840 -1.5214 -2.3493 -0.5989
 5275TIP3    H237317   2.920   1.146   5.990 -0.8965 -3.2484 -0.4537
 5276TIP3   OH237318   5.128   2.237  15.014  0.1504  0.1836  0.6899
 5276TIP3    H137319   5.217   2.269  14.999  0.0773  0.9516  1.7723
 5276TIP3    H237320   5.134   2.186  15.095 -0.3138 -0.1336  0.5282
 5277TIP3   OH237321   4.393   2.161  12.806 -0.0132  0.1781  0.1432
 5277TIP3    H137322   4.423   2.103  12.736 -1.0407 -0.1385 -0.0469
 5277TIP3    H237323   4.352   2.103  12.870  1.7940  0.3494  1.5134
 5278TIP3   OH237324   3.039   5.552   4.338 -0.3969 -0.4037 -0.0184
 5278TIP3    H137325   3.000   5.465   4.331  0.3879 -0.6719 -1.5891
 5278TIP3    H237326   3.036   5.587   4.249  0.8751  0.4747  0.2548
 5279TIP3   OH237327   2.871   4.080   1.997  0.2722 -0.4370  0.2704
 5279TIP3    H137328   2.799   4.038   1.949 -0.3212  0.9963 -0.1267
 5279TIP3    H237329   2.865   4.172   1.973  1.0476  0.0185  1.7518
 5280TIP3   OH237330   4.768   5.260  12.868 -0.2991  0.0215 -0.1713
 5280TIP3    H137331   4.787   5.308  12.948 -1.6512 -1.3823  1.0657
 5280TIP3    H237332   4.843   5.278  12.811  0.6172  1.2103  1.3144
 5281TIP3   OH237333   6.406   3.763  16.308 -0.1811  0.1665 -0.2416
 5281TIP3    H137334   6.355   3.728  16.382  2.2366 -0.6545  1.1522
 5281TIP3    H237335   6.469   3.822  16.349  1.0209 -0.0563 -1.7161
 5282TIP3   OH237336   3.877   1.246   6.409 -0.1965  0.2692  0.5926
 5282TIP3    H137337   3.961   1.222   6.369  0.0701  1.3352  0.4653
 5282TIP3    H237338   3.874   1.341   6.401 -1.4531  0.2328  0.5537
 5283TIP3   OH237339   6.343   6.357  14.666  0.1491  0.1892  0.3281
 5283TIP3    H137340   6.331   6.274  14.620 -1.4696  0.1230  0.8079
 5283TIP3    H237341   6.258   6.374  14.708  0.8629  1.4158  1.3486
 5284TIP3   OH237342   2.254   6.646  16.066 -0.1279 -0.3562 -0.0321
 5284TIP3    H137343   2.302   6.565  16.048  0.7210  0.0871  0.1794
 5284TIP3    H237344   2.321   6.714  16.064 -1.0886  0.6110 -1.9866
 5285TIP3   OH237345   0.009   2.959  13.711 -0.2182 -0.5718 -0.2271
 5285TIP3    H137346  -0.006   2.904  13.788 -1.4594  0.7579  0.5278
 5285TIP3    H237347   0.092   2.928  13.676  0.0739 -1.6373  1.2862
 5286TIP3   OH237348   2.819   0.960  15.811  0.0984  0.5246  0.4609
 5286TIP3    H137349   2.802   1.002  15.896 -1.0236  1.2000 -0.0711
 5286TIP3    H237350   2.771   1.014  15.748  1.1465  0.1939 -0.6515
 5287TIP3   OH237351   1.809   5.159  14.333 -0.2407  0.5329  0.1196
 5287TIP3    H137352   1.869   5.180  14.261 -1.6974 -0.9580 -1.6411
 5287TIP3    H237353   1.862   5.168  14.412  3.8395 -5.0435 -1.3989
 5288TIP3   OH237354   3.089   0.277   5.123  0.0840  0.0832  0.0335
 5288TIP3    H137355   3.088   0.371   5.102 -0.8779  0.0934  0.0802
 5288TIP3    H237356   3.113   0.273   5.215  1.5101  0.1974 -0.3139
 5289TIP3   OH237357   3.972   2.858   4.364 -0.1136  0.2100 -0.1937
 5289TIP3    H137358   3.923   2.893   4.439  1.1141  0.6242  0.4341
 5289TIP3    H237359   3.912   2.796   4.323 -0.0762 -1.6948  2.4028
 5290TIP3   OH237360   0.620   4.605   3.925  0.7792  0.7234 -0.1993
 5290TIP3    H137361   0.593   4.517   3.952 -0.9188  1.6383  1.3572
 5290TIP3    H237362   0.542   4.641   3.883  2.0131  0.9239 -2.5150
 5291TIP3   OH237363   4.831   2.680   4.593 -0.5041  0.4559  0.4967
 5291TIP3    H137364   4.749   2.707   4.553 -0.2103 -0.1082 -0.5119
 5291TIP3    H237365   4.870   2.762   4.625 -0.2104  1.1025 -1.4049
 5292TIP3   OH237366   2.288   3.231   2.313  0.4245 -0.0196  0.6280
 5292TIP3    H137367   2.372   3.198   2.342  0.0375  0.3600  2.2896
 5292TIP3    H237368   2.223   3.182   2.364 -0.2570  1.1982  0.9801
 5293TIP3   OH237369   3.242   3.358  11.707  0.4113  0.0228  0.1743
 5293TIP3    H137370   3.198   3.298  11.647 -0.9338 -0.9676  2.0240
 5293TIP3    H237371   3.179   3.369  11.779  1.0269  2.9120  0.3844
 5294TIP3   OH237372   4.919   1.926  16.853  0.2224 -0.0658  0.5147
 5294TIP3    H137373   4.894   2.018  16.845 -1.2752 -0.4544  0.3838
 5294TIP3    H237374   5.008   1.928  16.887  0.1507  1.4296  0.6794
 5295TIP3   OH237375   6.444   3.231   5.716  0.4076  0.5137  0.6774
 5295TIP3    H137376   6.367   3.192   5.757 -0.4130  1.1614 -0.1909
 5295TIP3    H237377   6.411   3.311   5.674  2.0281  2.2348  2.4430
 5296TIP3   OH237378   4.107   3.144   0.959 -0.3147  0.3066  0.2088
 5296TIP3    H137379   4.176   3.194   0.914  0.6911 -0.8329  0.4242
 5296TIP3    H237380   4.128   3.053   0.941 -0.8571 -0.1211  1.6087
 5297TIP3   OH237381   3.652   2.937   0.861 -0.1905  0.4097  0.2153
 5297TIP3    H137382   3.720   2.997   0.891 -0.4814  0.5307  0.6392
 5297TIP3    H237383   3.571   2.971   0.901 -0.1880 -0.9490  1.4242
 5298TIP3   OH237384   0.710   2.440  15.916  0.5007  0.0124 -0.1314
 5298TIP3    H137385   0.724   2.484  15.832 -1.2164  1.0713  0.0750
 5298TIP3    H237386   0.642   2.374  15.898 -0.7199  1.0163  0.6128
 5299TIP3   OH237387   2.620   4.479  11.070 -1.2116 -0.2323  0.5227
 5299TIP3    H137388   2.588   4.392  11.093  0.8833 -1.8698 -2.0766
 5299TIP3    H237389   2.569   4.502  10.992 -1.6889  0.8797  1.1485
 5300TIP3   OH237390   6.837   0.111  13.132 -0.2119  0.1559  0.8396
 5300TIP3    H137391   6.899   0.043  13.106 -1.1448  0.6908 -3.8163
 5300TIP3    H237392   6.756   0.064  13.149 -0.1758 -0.1097  0.3095
 5301TIP3   OH237393   0.483   0.245  11.510  0.3311 -0.0257 -0.1507
 5301TIP3    H137394   0.418   0.259  11.578  2.3161 -1.8336  2.2903
 5301TIP3    H237395   0.543   0.320  11.518 -0.5489  0.8791 -1.4429
 5302TIP3   OH237396   2.858   4.012  12.789  0.2816  0.8444  0.0081
 5302TIP3    H137397   2.866   4.062  12.708 -2.5439  0.3637 -0.6677
 5302TIP3    H237398   2.803   4.067  12.846  1.9634  1.0402  1.5566
 5303TIP3   OH237399   0.568   1.629  13.455  0.2593 -0.4916  0.1247
 5303TIP3    H137400   0.599   1.718  13.472 -1.8165 -0.0824  2.4375
 5303TIP3    H237401   0.602   1.607  13.368  2.4836  1.7680  0.3074
 5304TIP3   OH237402   6.337   1.091  13.221 -0.0109 -0.3700  0.1746
 5304TIP3    H137403   6.430   1.088  13.198  0.1674  0.9703  0.6245
 5304TIP3    H237404   6.311   1.000  13.226  1.6330 -0.8162  1.3995
 5305TIP3   OH237405   4.986   2.303   1.714 -0.1100  0.0010 -0.2926
 5305TIP3    H137406   5.009   2.227   1.766 -3.1469 -0.7243  0.1629
 5305TIP3    H237407   4.890   2.306   1.716 -0.3740  0.8974 -4.4620
 5306TIP3   OH237408   0.795   5.635   5.151  0.3688  0.1185 -0.1940
 5306TIP3    H137409   0.817   5.543   5.164 -0.1894  0.1407  1.0060
 5306TIP3    H237410   0.805   5.674   5.238 -2.8245  0.4530  0.1447
 5307TIP3   OH237411   6.291   6.705   0.475 -0.0951  0.0696 -0.7129
 5307TIP3    H137412   6.313   6.614   0.458  1.5155  0.5176 -1.1643
 5307TIP3    H237413   6.215   6.701   0.533  0.6228 -1.5711  0.1708
 5308TIP3   OH237414   4.668   3.224   2.243  0.3002  0.2752 -0.0173
 5308TIP3    H137415   4.735   3.267   2.296  0.4612  1.4250 -1.0848
 5308TIP3    H237416   4.631   3.295   2.190 -0.9021 -0.5600 -0.3421
 5309TIP3   OH237417   5.219   6.499   5.586  0.3656  0.2434  0.2336
 5309TIP3    H137418   5.256   6.413   5.567 -2.5107 -1.2007  0.5912
 5309TIP3    H237419   5.294   6.553   5.612  2.4411 -1.7495 -1.2296
 5310TIP3   OH237420   3.939   3.780   2.143  0.0112  0.2955 -0.5546
 5310TIP3    H137421   3.864   3.770   2.201  1.4741  1.2338  1.6107
 5310TIP3    H237422   3.922   3.719   2.072 -1.4099 -1.6487  1.3351
 5311TIP3   OH237423   5.586   1.417  11.209 -0.4909 -0.0214 -0.2003
 5311TIP3    H137424   5.504   1.457  11.181  0.8126  2.9259 -0.1781
 5311TIP3    H237425   5.641   1.420  11.131  0.1443 -0.4388  0.2232
 5312TIP3   OH237426   5.687   2.154   2.397  0.2107  0.9895 -0.1773
 5312TIP3    H137427   5.603   2.120   2.429 -0.4769  0.9403 -1.9042
 5312TIP3    H237428   5.670   2.246   2.377  1.1023  1.4716  1.2034
 5313TIP3   OH237429   5.397   6.449  11.294  0.1991  0.2066  0.3352
 5313TIP3    H137430   5.355   6.534  11.288 -0.9843 -0.2531  1.4804
 5313TIP3    H237431   5.334   6.388  11.256  0.6244 -0.2726  0.3779
 5314TIP3   OH237432   4.474   3.901   3.318 -0.2069 -0.5720  0.1500
 5314TIP3    H137433   4.442   3.893   3.408 -3.4509  2.0591 -0.5478
 5314TIP3    H237434   4.418   3.842   3.267 -1.2187  0.9149 -0.5530
 5315TIP3   OH237435   6.541   2.591   3.912 -0.4837  0.0838  0.1501
 5315TIP3    H137436   6.571   2.637   3.833 -1.3176  0.4219  0.0185
 5315TIP3    H237437   6.542   2.659   3.981  1.3071 -0.4697  0.7113
 5316TIP3   OH237438   3.037   5.993  14.284  0.3096  0.4799 -0.0058
 5316TIP3    H137439   2.974   5.931  14.320  0.9045  0.4189  0.9517
 5316TIP3    H237440   3.119   5.972  14.327  0.5524  1.8552  0.2457
 5317TIP3   OH237441   3.388   1.850  16.552 -0.3897 -0.7845  0.4445
 5317TIP3    H137442   3.341   1.877  16.631  0.6306 -0.7083  1.0472
 5317TIP3    H237443   3.323   1.854  16.483 -1.2819 -0.7387  1.2617
 5318TIP3   OH237444   3.918   1.421   0.364  0.9079 -0.6519 -0.3233
 5318TIP3    H137445   3.983   1.412   0.434  0.3575 -1.3955  0.1059
 5318TIP3    H237446   3.840   1.379   0.399 -0.8763  2.9184  0.4667
 5319TIP3   OH237447   4.204   4.643   3.519  0.3225  0.1434 -0.0846
 5319TIP3    H137448   4.262   4.719   3.518 -0.7142  0.9608 -0.0625
 5319TIP3    H237449   4.225   4.597   3.601 -0.0931  1.2562  0.6612
 5320TIP3   OH237450   6.073   4.547  14.437  0.2493 -0.3935  0.3881
 5320TIP3    H137451   5.994   4.594  14.465  1.1477  0.8090  0.9900
 5320TIP3    H237452   6.064   4.539  14.343 -1.7387 -2.4624  0.6712
 5321TIP3   OH237453   4.205   2.954  12.759 -0.3557 -0.4586 -0.5082
 5321TIP3    H137454   4.241   3.041  12.775 -1.5349  0.4958 -2.6402
 5321TIP3    H237455   4.176   2.924  12.845 -1.0364  1.7840  0.1121
 5322TIP3   OH237456   6.197   1.001  15.569  0.2895  0.1774  0.2243
 5322TIP3    H137457   6.268   1.065  15.581  0.6174 -0.2265  0.4458
 5322TIP3    H237458   6.232   0.919  15.604  0.2201 -0.3608 -0.9344
 5323TIP3   OH237459   3.616   2.854   2.324  0.3368  0.2227 -0.1877
 5323TIP3    H137460   3.619   2.888   2.414  3.4312 -0.6932  0.1421
 5323TIP3    H237461   3.661   2.920   2.272 -0.5381  0.2550 -0.9417
 5324TIP3   OH237462   5.648   0.236  16.805 -0.2783  0.0944 -0.0133
 5324TIP3    H137463   5.723   0.279  16.846  0.6910 -0.8274 -0.7592
 5324TIP3    H237464   5.626   0.292  16.730 -1.4579  1.2791  1.1679
 5325TIP3   OH237465   4.470   5.871  10.751  0.1361  0.0105  0.2164
 5325TIP3    H137466   4.537   5.930  10.718 -0.9806 -0.5943 -3.6191
 5325TIP3    H237467   4.388   5.921  10.746 -0.2653 -0.5529  0.8865
 5326TIP3   OH237468   1.356   0.591   1.717  0.0521 -0.0714 -0.4374
 5326TIP3    H137469   1.397   0.533   1.653  0.3307 -1.0174  0.5837
 5326TIP3    H237470   1.414   0.589   1.792  0.8641  2.7003 -0.8829
 5327TIP3   OH237471   6.601   0.326  12.414  0.5428  0.6456  0.3342
 5327TIP3    H137472   6.605   0.321  12.509 -1.0177  2.1755  0.5250
 5327TIP3    H237473   6.584   0.235  12.386  0.2963  0.3006  1.5560
 5328TIP3   OH237474   2.240   3.333  16.235  0.1506  0.0753  0.2639
 5328TIP3    H137475   2.332   3.343  16.210  0.9184 -1.4340  2.1498
 5328TIP3    H237476   2.191   3.378  16.167  2.2896  1.0157 -0.7494
 5329TIP3   OH237477   0.437   1.096  15.145 -0.2917  0.6949 -0.1236
 5329TIP3    H137478   0.479   1.121  15.227 -0.4256 -0.6691  0.3947
 5329TIP3    H237479   0.509   1.083  15.083  0.1468 -1.6991  0.7758
 5330TIP3   OH237480   4.245   5.143  11.787  0.3880  0.1704 -0.0086
 5330TIP3    H137481   4.333   5.149  11.825  0.3369  0.6291  0.0378
 5330TIP3    H237482   4.187   5.181  11.854  0.4112  1.9879 -0.9761
 5331TIP3   OH237483   1.838   0.158   4.729 -0.0441  0.0488 -0.3165
 5331TIP3    H137484   1.771   0.212   4.687 -0.2349 -0.1435 -0.2644
 5331TIP3    H237485   1.843   0.190   4.819  1.4864  1.5174 -0.8739
 5332TIP3   OH237486   2.305   2.303   4.560 -0.3377 -0.3705 -0.1035
 5332TIP3    H137487   2.398   2.287   4.545 -0.1794  1.3175 -1.0854
 5332TIP3    H237488   2.285   2.382   4.511 -1.4791  1.4199  2.9661
 5333TIP3   OH237489   0.235   1.919   4.578  0.0224  0.2214  0.1589
 5333TIP3    H137490   0.290   1.958   4.510  0.0775 -0.0907  0.0227
 5333TIP3    H237491   0.296   1.889   4.645  0.0199 -0.1110  0.0146
 5334TIP3   OH237492   3.096   6.326  16.563  0.2100 -0.2123 -0.1703
 5334TIP3    H137493   3.091   6.364  16.476 -0.1987 -1.8823 -0.9313
 5334TIP3    H237494   3.141   6.391  16.616 -0.5744  1.3316 -1.3358
 5335TIP3   OH237495   6.144   3.376  12.139 -0.2514 -0.3376  0.1053
 5335TIP3    H137496   6.131   3.456  12.089 -0.1699  0.1595  0.8595
 5335TIP3    H237497   6.177   3.406  12.224 -0.7773 -1.1264  0.6039
 5336TIP3   OH237498   4.501   2.577   1.095 -0.1789  0.4191  0.1330
 5336TIP3    H137499   4.490   2.563   1.189 -0.7409  2.8782  0.5044
 5336TIP3    H237500   4.553   2.658   1.089 -1.4957  1.2129 -1.6399
 5337TIP3   OH237501   3.546   1.317  14.829  0.2124  0.2679 -0.0079
 5337TIP3    H137502   3.573   1.409  14.831  1.9908 -0.2300  0.6210
 5337TIP3    H237503   3.494   1.306  14.909  0.8154  0.5133  0.4288
 5338TIP3   OH237504   5.974   1.215   4.236 -0.0698  0.3599  0.0875
 5338TIP3    H137505   5.977   1.120   4.251 -1.5465  0.0365 -1.4545
 5338TIP3    H237506   6.049   1.232   4.179 -1.2611 -0.3692 -1.8091
 5339TIP3   OH237507   3.600   0.860   4.901 -0.0341 -1.0421  0.0309
 5339TIP3    H137508   3.523   0.873   4.845 -1.6443 -2.9226  1.6483
 5339TIP3    H237509   3.651   0.794   4.854  0.4090 -0.0951 -0.8503
 5340TIP3   OH237510   3.264   6.346   3.258 -0.3762 -0.2712 -0.4402
 5340TIP3    H137511   3.242   6.336   3.351  2.1361 -0.3342  0.2409
 5340TIP3    H237512   3.192   6.306   3.211 -0.6403 -2.3687  1.5815
 5341TIP3   OH237513   6.216   1.700   1.791 -0.9216 -0.2524 -0.2186
 5341TIP3    H137514   6.149   1.768   1.789  0.0212  0.7091 -0.4210
 5341TIP3    H237515   6.259   1.712   1.876 -2.0957 -1.9905  0.6742
 5342TIP3   OH237516   3.186   0.557   0.487  0.1269 -1.0167 -0.3197
 5342TIP3    H137517   3.125   0.491   0.455 -0.2617 -1.4098  1.1451
 5342TIP3    H237518   3.168   0.563   0.581 -0.4723  1.8349 -0.5218
 5343TIP3   OH237519   2.295   0.368   5.897 -0.0329  0.0157 -0.0916
 5343TIP3    H137520   2.371   0.313   5.913  0.0665  0.1015 -0.2756
 5343TIP3    H237521   2.241   0.319   5.835  1.0242  0.9993 -1.8762
 5344TIP3   OH237522   2.601   0.001  15.632  0.1564  0.2763  0.8892
 5344TIP3    H137523   2.661   0.007  15.557 -1.9842  0.2666 -0.9284
 5344TIP3    H237524   2.580   0.092  15.652 -0.7370  0.2351  0.1951
 5345TIP3   OH237525   5.160   6.130   2.065 -0.3511 -0.1973  0.2188
 5345TIP3    H137526   5.179   6.118   2.158 -2.9798 -0.1970  0.8513
 5345TIP3    H237527   5.080   6.079   2.051 -0.8857  1.0739 -1.6547
 5346TIP3   OH237528   1.066   1.076  10.160  0.1244 -0.1579  0.2220
 5346TIP3    H137529   1.070   1.067  10.255  0.6106 -0.8423  0.1435
 5346TIP3    H237530   1.020   1.159  10.146 -0.3344 -0.2610  1.0430
 5347TIP3   OH237531   3.750   3.272  13.016 -0.0698  0.3719  0.0108
 5347TIP3    H137532   3.802   3.286  12.937 -1.1907  1.4742 -0.5759
 5347TIP3    H237533   3.760   3.354  13.065  1.2610 -0.6010  1.4378
 5348TIP3   OH237534   6.818   3.097   3.393  0.0023 -0.2699 -0.2310
 5348TIP3    H137535   6.828   3.192   3.398  0.0227 -0.2779 -0.1093
 5348TIP3    H237536   6.897   3.062   3.433  0.1409 -0.3403 -0.5692
 5349TIP3   OH237537   5.925   0.609   2.105 -0.0014 -0.3026  0.7395
 5349TIP3    H137538   6.005   0.559   2.094  0.7746  0.9914  0.3317
 5349TIP3    H237539   5.946   0.675   2.170  0.2075  1.8352 -1.3458
 5350TIP3   OH237540   6.507   3.540  11.368 -0.7488  0.0597 -0.1643
 5350TIP3    H137541   6.447   3.485  11.318 -0.9641  0.5507 -0.4609
 5350TIP3    H237542   6.496   3.512  11.458 -0.9574 -0.2845 -0.2950
 5351TIP3   OH237543   0.036   0.736   4.853 -0.4917  0.1220 -0.1777
 5351TIP3    H137544   0.035   0.661   4.794  0.5279 -1.0159  1.1776
 5351TIP3    H237545  -0.013   0.706   4.930  2.8868 -0.5757  1.9159
 5352TIP3   OH237546   0.403   1.893   5.455  0.0934 -0.1465 -0.1637
 5352TIP3    H137547   0.343   1.818   5.462  0.3703 -0.2369  1.8272
 5352TIP3    H237548   0.347   1.970   5.470 -0.2902  0.1667 -2.7144
 5353TIP3   OH237549   4.426   5.344  12.837  0.0210  0.5833 -0.3271
 5353TIP3    H137550   4.379   5.374  12.915 -0.3572  0.5633 -0.5432
 5353TIP3    H237551   4.518   5.351  12.860 -0.0568  1.7878 -0.3193
 5354TIP3   OH237552   1.558   6.713  12.901 -0.0594 -0.2025 -0.0420
 5354TIP3    H137553   1.482   6.754  12.859 -0.8171 -1.1637  0.3495
 5354TIP3    H237554   1.623   6.783  12.906 -2.1539  1.7603  2.9540
 5355TIP3   OH237555   5.612   4.612   1.721  0.0570 -0.5091  0.2601
 5355TIP3    H137556   5.602   4.616   1.626 -0.0473  0.6529  0.3091
 5355TIP3    H237557   5.539   4.557   1.750 -1.6266  1.4338 -0.1006
 5356TIP3   OH237558   1.364   4.151  12.535 -0.0546 -0.4009  0.0798
 5356TIP3    H137559   1.401   4.067  12.563 -0.3293 -0.0327  1.6848
 5356TIP3    H237560   1.360   4.146  12.440 -0.2003 -2.2651  0.1516
 5357TIP3   OH237561   5.883   6.600  11.440 -0.3688 -0.3484  0.2444
 5357TIP3    H137562   5.888   6.512  11.402  1.1633  0.2233 -1.0462
 5357TIP3    H237563   5.886   6.587  11.534  0.0004 -1.6914  0.0613
 5358TIP3   OH237564   3.556   0.120   3.725  0.1324 -0.1012 -0.0089
 5358TIP3    H137565   3.469   0.131   3.764 -0.5614 -0.9267 -1.2520
 5358TIP3    H237566   3.547   0.043   3.668  1.7822 -0.4234  0.1258
 5359TIP3   OH237567   5.014   4.214  10.645  0.5715 -0.4200  0.5642
 5359TIP3    H137568   4.950   4.189  10.578 -0.1494 -0.1697  1.1498
 5359TIP3    H237569   5.095   4.228  10.596  0.3427 -1.3396 -0.1128
 5360TIP3   OH237570   1.108   0.154  16.040  0.2390  0.9684  0.2550
 5360TIP3    H137571   1.158   0.075  16.018 -0.9794  0.2115  0.1595
 5360TIP3    H237572   1.098   0.150  16.135 -1.2598  0.1044  0.0854
 5361TIP3   OH237573   0.742   0.909  11.815  0.4321 -0.0517 -0.2271
 5361TIP3    H137574   0.756   0.900  11.909 -0.2694 -2.0030 -0.2486
 5361TIP3    H237575   0.648   0.926  11.806  0.3917 -0.4551 -0.5941
 5362TIP3   OH237576   5.958   2.364  13.973 -0.1350 -0.1655  0.4502
 5362TIP3    H137577   6.023   2.433  13.965 -0.8240  0.3571 -0.9206
 5362TIP3    H237578   5.996   2.289  13.927  0.6228 -0.7538  1.9569
 5363TIP3   OH237579   1.162   4.630   6.077  0.2430 -0.6077  0.0615
 5363TIP3    H137580   1.098   4.649   6.008 -0.2245 -0.6925  0.4705
 5363TIP3    H237581   1.135   4.684   6.151  2.1182  1.3273 -0.5587
 5364TIP3   OH237582   4.656   3.480   4.410 -0.1384 -0.3200  0.3845
 5364TIP3    H137583   4.742   3.507   4.380 -0.9910  1.2698 -0.7909
 5364TIP3    H237584   4.634   3.542   4.480 -1.7081  1.6007 -1.6755
 5365TIP3   OH237585   2.530   2.183  12.382 -0.7118  0.0881 -0.2189
 5365TIP3    H137586   2.452   2.237  12.375 -0.6727  0.1759  0.0232
 5365TIP3    H237587   2.573   2.191  12.297 -0.6068  0.5851 -0.1203
 5366TIP3   OH237588   1.840   2.321   5.493 -0.2650 -0.2537 -0.0786
 5366TIP3    H137589   1.789   2.247   5.525  0.1776 -1.3570 -1.7965
 5366TIP3    H237590   1.795   2.398   5.528 -1.9066 -1.2605  0.1444
 5367TIP3   OH237591   1.561   5.397  12.374  0.0136 -0.0832 -0.2211
 5367TIP3    H137592   1.499   5.372  12.443  0.6676 -0.1375  0.3570
 5367TIP3    H237593   1.575   5.316  12.324 -0.7218  0.0357 -0.6398
 5368TIP3   OH237594   5.524   3.885  16.639 -0.4260 -0.4604 -0.3652
 5368TIP3    H137595   5.477   3.847  16.713 -2.2122 -1.3923 -1.8745
 5368TIP3    H237596   5.549   3.810  16.585  0.0592  0.2378 -1.1453
 5369TIP3   OH237597   0.154   0.650  15.070  0.1481  0.3317  0.2725
 5369TIP3    H137598   0.172   0.577  15.128  1.8481  1.3941  1.1482
 5369TIP3    H237599   0.206   0.723  15.104 -0.4447  1.5968 -1.3380
 5370TIP3   OH237600   2.648   4.798  14.574 -0.0290  0.2265 -0.0028
 5370TIP3    H137601   2.601   4.720  14.543  0.2578  0.2884 -0.5954
 5370TIP3    H237602   2.687   4.770  14.657 -1.9328  0.4679  1.0450
 5371TIP3   OH237603   2.886   1.567   4.657  0.2060  0.1805  0.0599
 5371TIP3    H137604   2.907   1.524   4.573 -0.4068  1.1109 -0.5923
 5371TIP3    H237605   2.959   1.627   4.671  1.7452 -1.8993  1.6360
 5372TIP3   OH237606   4.104   5.710  14.708  0.4226 -0.3759 -0.1108
 5372TIP3    H137607   4.041   5.777  14.734  0.4527 -0.1461 -0.6266
 5372TIP3    H237608   4.139   5.677  14.791  1.6076  1.3848  0.1476
 5373TIP3   OH237609   2.306   4.645  14.043  0.2591 -0.0524 -0.4635
 5373TIP3    H137610   2.323   4.566  14.095 -3.2650 -0.6441  0.0565
 5373TIP3    H237611   2.344   4.716  14.095  0.4683 -1.0576  0.8123
 5374TIP3   OH237612   4.035   5.662  13.021 -0.6326  0.1842 -0.0840
 5374TIP3    H137613   4.020   5.754  12.999 -0.6850  0.1874 -0.0354
 5374TIP3    H237614   4.123   5.643  12.988 -0.6850  0.2068 -0.2357
 5375TIP3   OH237615   2.706   4.513  16.563 -0.0669 -0.0613  0.2354
 5375TIP3    H137616   2.652   4.586  16.535  2.1479  1.2985 -0.8078
 5375TIP3    H237617   2.728   4.533  16.654 -1.2440 -0.6169  0.6615
 5376TIP3   OH237618   0.855   4.169  12.873 -0.1684 -0.0310 -0.1039
 5376TIP3    H137619   0.862   4.116  12.794 -0.0953  1.8386 -1.4207
 5376TIP3    H237620   0.762   4.166  12.896 -0.4360  0.4308 -1.0514
 5377TIP3   OH237621   6.555   1.106   2.486 -0.0475 -0.0977  0.6332
 5377TIP3    H137622   6.632   1.160   2.505  0.8284 -1.2850  0.5788
 5377TIP3    H237623   6.510   1.099   2.570  1.0979 -1.1693  1.1972
 5378TIP3   OH237624   2.749   6.607  12.737  0.5069 -0.3052  0.1980
 5378TIP3    H137625   2.702   6.610  12.821  0.2448 -1.6812  0.1206
 5378TIP3    H237626   2.681   6.593  12.672  0.7157  0.7380 -0.2720
 5379TIP3   OH237627   5.866   1.409  13.885 -0.0756  0.3506 -0.1513
 5379TIP3    H137628   5.871   1.426  13.791  2.8313  1.4673  0.1182
 5379TIP3    H237629   5.886   1.493  13.926 -0.0785 -0.3983  1.4491
 5380TIP3   OH237630   5.841   5.375   5.775  0.4011  0.1165 -0.4193
 5380TIP3    H137631   5.785   5.379   5.852 -0.0430  0.1135 -0.7396
 5380TIP3    H237632   5.781   5.384   5.701  1.0970  2.9723 -0.7214
 5381TIP3   OH237633   4.061   4.801  15.506 -0.3723  0.3690 -0.2575
 5381TIP3    H137634   4.067   4.750  15.425 -1.4904  0.4768 -0.4251
 5381TIP3    H237635   3.988   4.861  15.490 -0.0440  0.9794  0.5111
 5382TIP3   OH237636   3.735   5.889  15.568  0.3379  0.4225  0.3209
 5382TIP3    H137637   3.779   5.909  15.651 -0.8039  0.8863  0.8448
 5382TIP3    H237638   3.684   5.810  15.587 -0.4360  0.8988  0.2722
 5383TIP3   OH237639   2.883   0.937  13.066  0.0228 -0.4209  0.2884
 5383TIP3    H137640   2.901   0.957  12.974  0.3114  0.6555  0.5643
 5383TIP3    H237641   2.844   0.850  13.065  0.6328 -0.6855 -0.7885
 5384TIP3   OH237642   4.751   1.858  16.323  0.0340  0.5696 -0.3448
 5384TIP3    H137643   4.697   1.795  16.277 -0.6112  1.1078 -0.3342
 5384TIP3    H237644   4.841   1.837  16.296 -0.1047 -0.7144  0.1102
 5385TIP3   OH237645   6.813   1.259   0.889 -0.2638  0.7137 -0.0172
 5385TIP3    H137646   6.718   1.267   0.887 -0.3620 -0.5080 -1.4267
 5385TIP3    H237647   6.829   1.165   0.892  0.8844  0.7965 -1.9266
 5386TIP3   OH237648   5.803   5.651   4.811 -0.0594 -0.1018 -0.8693
 5386TIP3    H137649   5.781   5.607   4.893  0.9732 -1.8271 -1.4655
 5386TIP3    H237650   5.750   5.730   4.812 -0.6199 -0.4330  1.1190
 5387TIP3   OH237651   6.434   6.190   2.964  0.6091  0.3126  0.0056
 5387TIP3    H137652   6.475   6.276   2.949  2.2482 -0.4704 -0.2022
 5387TIP3    H237653   6.504   6.136   3.000 -0.5686 -0.7820  0.7302
 5388TIP3   OH237654   3.311   3.585   5.479 -0.0569 -0.1775  0.6765
 5388TIP3    H137655   3.331   3.641   5.404  0.2254  0.3972  1.1675
 5388TIP3    H237656   3.358   3.504   5.463  0.4268  0.1367  0.4768
 5389TIP3   OH237657   3.696   3.871  14.359 -0.2157  0.6100  0.7070
 5389TIP3    H137658   3.772   3.827  14.397  0.2803  0.5956 -0.2646
 5389TIP3    H237659   3.711   3.964  14.374 -0.8093  0.5354  1.9315
 5390TIP3   OH237660   6.120   4.739  16.309 -0.3335 -0.4641  0.2126
 5390TIP3    H137661   6.099   4.652  16.341  0.9163 -0.8920 -0.0811
 5390TIP3    H237662   6.059   4.753  16.237 -0.1932 -1.3136 -0.0818
 5391TIP3   OH237663   2.895   5.411  13.345  0.2448  0.2030 -0.2660
 5391TIP3    H137664   2.918   5.332  13.297  2.0464  0.3330  0.3384
 5391TIP3    H237665   2.978   5.450  13.370 -0.6028  0.7991  1.8988
 5392TIP3   OH237666   3.803   6.405   3.868 -0.0770 -0.1508 -0.0634
 5392TIP3    H137667   3.838   6.325   3.906 -0.6424 -0.5296 -0.3171
 5392TIP3    H237668   3.848   6.414   3.784 -1.5389 -1.3989 -1.0391
 5393TIP3   OH237669   1.230   0.681  12.877 -0.0887  0.3434 -0.4381
 5393TIP3    H137670   1.204   0.765  12.915  0.2171  0.2596 -0.0330
 5393TIP3    H237671   1.322   0.692  12.855  0.1729 -0.1414  0.3663
 5394TIP3   OH237672   2.640   3.588  13.138  0.3091  0.4941 -0.6814
 5394TIP3    H137673   2.650   3.675  13.100  1.0154  1.0694  0.7445
 5394TIP3    H237674   2.704   3.585  13.209 -1.0918 -0.4207  0.6164
 5395TIP3   OH237675   2.475   2.339  16.263  1.0621  0.2119 -0.0440
 5395TIP3    H137676   2.476   2.255  16.308 -0.1195  0.4890  0.5438
 5395TIP3    H237677   2.566   2.367  16.262  1.2643 -0.3545  1.1263
 5396TIP3   OH237678   3.329   1.632  12.691  0.2276 -0.3850  0.0020
 5396TIP3    H137679   3.287   1.655  12.774  0.3287  0.6116 -0.2078
 5396TIP3    H237680   3.418   1.608  12.716 -0.0646 -1.1881  0.2991
 5397TIP3   OH237681   2.179   4.406   4.958 -0.0361  0.2329 -0.5906
 5397TIP3    H137682   2.108   4.347   4.934 -0.5602  0.2659  0.7941
 5397TIP3    H237683   2.137   4.477   5.007  1.0353 -0.3285  1.2578
 5398TIP3   OH237684   4.860   3.269  13.329  0.1655 -0.8623  0.0934
 5398TIP3    H137685   4.834   3.251  13.419 -0.0360 -0.5715  0.0926
 5398TIP3    H237686   4.792   3.326  13.295 -1.2772 -3.1178 -1.0995
 5399TIP3   OH237687   4.040   6.700  13.750 -0.6976  0.1484  0.0381
 5399TIP3    H137688   3.971   6.765  13.758 -1.2631 -0.1895 -1.6742
 5399TIP3    H237689   4.106   6.726  13.814 -1.6289  1.4669  0.4865
 5400TIP3   OH237690   6.057   3.165  17.041  0.2805  0.3200 -0.3800
 5400TIP3    H137691   6.014   3.240  17.001  3.2204  1.2010 -2.2074
 5400TIP3    H237692   6.027   3.090  16.990 -0.0404  0.7283 -0.7938
 5401TIP3   OH237693   0.973   5.628  15.396  0.3147 -0.3173  0.4343
 5401TIP3    H137694   0.911   5.587  15.457 -1.0444  0.1325 -0.5849
 5401TIP3    H237695   0.968   5.721  15.417 -0.0892 -0.1704 -0.2727
 5402TIP3   OH237696   3.792   4.123  13.897  0.1948  0.0663  0.2313
 5402TIP3    H137697   3.710   4.172  13.897  0.4993  0.6084 -1.0809
 5402TIP3    H237698   3.766   4.032  13.912 -0.6250  0.2628  0.0340
 5403TIP3   OH237699   6.674   4.887  15.577  0.0422  0.2383 -0.4021
 5403TIP3    H137700   6.698   4.849  15.662  1.8944  1.7161 -0.1748
 5403TIP3    H237701   6.731   4.842  15.514 -0.9317 -0.4581 -0.8061
 5404TIP3   OH237702   0.070   1.057  14.318 -1.1231 -0.3970  0.4370
 5404TIP3    H137703   0.072   0.970  14.279 -1.8899 -0.0690 -0.3617
 5404TIP3    H237704   0.054   1.117  14.245 -0.6706  0.4204  0.9781
 5405TIP3   OH237705   6.452   4.469  14.881  0.0859  0.2044 -0.3178
 5405TIP3    H137706   6.477   4.500  14.794  2.8083 -2.0436 -0.4797
 5405TIP3    H237707   6.360   4.494  14.890  0.5882  3.5274 -2.3944
 5406TIP3   OH237708   5.441   0.464  16.513  0.3836  0.2798 -0.2861
 5406TIP3    H137709   5.400   0.465  16.426 -0.5764  0.4933  0.1526
 5406TIP3    H237710   5.373   0.429  16.571  1.1426 -0.1999  0.3213
 5407TIP3   OH237711   5.156   4.845   2.023 -0.1986  0.4132  0.0559
 5407TIP3    H137712   5.107   4.815   2.099  0.9908  2.5115  1.7826
 5407TIP3    H237713   5.247   4.820   2.041 -0.0264  0.0393 -1.1970
 5408TIP3   OH237714   3.958   4.470  12.267  0.6465 -0.4373  0.1645
 5408TIP3    H137715   3.944   4.380  12.295  1.7834 -1.0046 -0.9474
 5408TIP3    H237716   3.918   4.475  12.180 -0.2251  0.4140  0.5977
 5409TIP3   OH237717   5.866   2.448   0.630 -0.0122 -0.4559 -0.2507
 5409TIP3    H137718   5.878   2.539   0.657 -1.8436  0.1346 -1.2161
 5409TIP3    H237719   5.772   2.441   0.613  0.1245 -2.4876 -0.3651
 5410TIP3   OH237720   2.993   4.273  16.226  0.7569 -0.5793  0.1115
 5410TIP3    H137721   2.914   4.299  16.274 -0.1363 -1.8204 -0.6349
 5410TIP3    H237722   2.968   4.192  16.181  2.1049 -0.3693 -1.0719
 5411TIP3   OH237723   0.560   0.123  15.776 -0.1403  0.2173  0.5273
 5411TIP3    H137724   0.639   0.097  15.728  0.1408 -0.7643  1.4936
 5411TIP3    H237725   0.567   0.218  15.782  0.9139  0.1563  0.4966
 5412TIP3   OH237726   5.843   3.626   2.525  0.6326 -0.7047 -0.0690
 5412TIP3    H137727   5.878   3.684   2.457 -0.1968 -0.1333 -0.0208
 5412TIP3    H237728   5.914   3.565   2.543  2.7142  2.1034  2.0190
 5413TIP3   OH237729   3.429   3.359   5.354 -0.1972  0.3474  0.2204
 5413TIP3    H137730   3.508   3.306   5.342  0.8696  2.0995 -0.9689
 5413TIP3    H237731   3.385   3.357   5.269 -1.2804 -0.3216  0.7745
 5414TIP3   OH237732   4.526   2.361  13.566 -0.1280 -0.8274 -0.8201
 5414TIP3    H137733   4.527   2.457  13.563 -0.7303 -0.7669  0.4019
 5414TIP3    H237734   4.609   2.336  13.526 -0.2254  0.1747 -1.7148
 5415TIP3   OH237735   4.518   6.613   4.687  0.1683 -0.8026 -0.5320
 5415TIP3    H137736   4.609   6.640   4.695 -0.0831 -0.0852  0.0748
 5415TIP3    H237737   4.495   6.581   4.774 -0.9808  1.7772  0.2251
 5416TIP3   OH237738   3.522   4.764  10.497  0.5004  0.2799 -0.0370
 5416TIP3    H137739   3.538   4.859  10.494  0.2411  0.5364  3.3000
 5416TIP3    H237740   3.597   4.729  10.546 -2.2041 -0.2549  4.2174
 5417TIP3   OH237741   0.451   4.267  12.544  0.7038  0.2302 -0.0986
 5417TIP3    H137742   0.535   4.222  12.533  0.7334 -0.0496  1.0901
 5417TIP3    H237743   0.395   4.230  12.476  0.4604 -2.3389  1.3371
 5418TIP3   OH237744   3.925   2.743  14.236  0.9714 -0.1113  0.2288
 5418TIP3    H137745   4.005   2.795  14.238  1.0263 -0.1992  0.3568
 5418TIP3    H237746   3.897   2.738  14.328  2.2316 -2.2376  0.5662
 5419TIP3   OH237747   4.210   1.436  16.669 -0.5304  0.6554 -0.0565
 5419TIP3    H137748   4.212   1.531  16.655  0.1419  0.5011 -1.1360
 5419TIP3    H237749   4.255   1.423  16.752 -0.5349  1.2696  0.0468
 5420TIP3   OH237750   5.200   4.707   3.017  0.5221  0.2738  0.3352
 5420TIP3    H137751   5.172   4.637   2.958 -0.6153 -0.4520  1.6886
 5420TIP3    H237752   5.119   4.744   3.051  1.0982  2.1595 -0.1965
 5421TIP3   OH237753   6.201   5.656   6.227 -0.0591 -0.1471  0.1693
 5421TIP3    H137754   6.192   5.583   6.166 -1.3012 -3.3038  3.7456
 5421TIP3    H237755   6.283   5.639   6.273  0.7315  2.0175 -0.3285
 5422TIP3   OH237756   3.257   0.616  10.466 -0.1403 -0.5141  0.2620
 5422TIP3    H137757   3.241   0.698  10.419  1.8520 -0.7214 -0.9164
 5422TIP3    H237758   3.352   0.602  10.459 -0.3285 -2.5977  0.9628
 5423TIP3   OH237759   3.270   5.094  15.111  0.0815 -0.2170 -0.0385
 5423TIP3    H137760   3.353   5.099  15.158  0.6527 -1.0122 -0.9408
 5423TIP3    H237761   3.263   5.003  15.082 -2.9186 -1.2642  3.2182
 5424TIP3   OH237762   4.513   3.026   1.521  0.2161 -0.2061 -0.4026
 5424TIP3    H137763   4.570   3.068   1.585 -0.6228  0.3672 -0.0184
 5424TIP3    H237764   4.496   3.094   1.455  2.3447 -1.2234 -2.1568
 5425TIP3   OH237765   5.804   6.799  16.358 -0.0946  0.5206 -0.3538
 5425TIP3    H137766   5.769   6.783  16.445 -2.2024  1.3099 -1.0033
 5425TIP3    H237767   5.887   6.844  16.373 -0.2851  0.3948  1.2239
 5426TIP3   OH237768   6.369   4.180   0.879  0.6932  0.2468  0.0985
 5426TIP3    H137769   6.360   4.127   0.800 -0.0815  0.6472 -0.0918
 5426TIP3    H237770   6.330   4.127   0.949 -2.0022  1.3530 -0.4531
 5427TIP3   OH237771   1.662   4.921   5.391 -0.7108  0.3113  0.2380
 5427TIP3    H137772   1.634   4.929   5.482 -0.4273 -2.2298  0.6189
 5427TIP3    H237773   1.597   4.864   5.350 -0.0978  0.3104 -0.7952
 5428TIP3   OH237774   5.047   0.509   3.068 -0.5968 -0.1351 -0.2091
 5428TIP3    H137775   5.019   0.432   3.018  0.4436  0.5830 -1.9946
 5428TIP3    H237776   4.965   0.553   3.091 -1.1370  0.2586 -2.6002
 5429TIP3   OH237777   6.044   6.814  10.166  0.2712  0.3497  0.1292
 5429TIP3    H137778   5.989   6.885  10.200 -1.6237 -2.0672  2.4245
 5429TIP3    H237779   6.036   6.822  10.070 -1.9347  1.7154  0.3583
 5430TIP3   OH237780   6.819   0.486   3.033  0.4213  0.1419  0.0956
 5430TIP3    H137781   6.823   0.409   3.090  0.0314  0.0068 -0.0561
 5430TIP3    H237782   6.758   0.545   3.077 -0.1742 -0.1184 -0.3621
 5431TIP3   OH237783   2.116   3.435   0.221 -0.4098  0.2786 -0.2661
 5431TIP3    H137784   2.157   3.458   0.304 -1.3996 -0.7552  0.5185
 5431TIP3    H237785   2.159   3.354   0.194  0.0787  0.7322 -0.9112
 5432TIP3   OH237786   0.028   6.757  12.553  0.1636 -0.1954 -0.2883
 5432TIP3    H137787  -0.008   6.728  12.469 -0.4062  1.3328 -0.6097
 5432TIP3    H237788   0.086   6.830  12.531 -0.4724  0.6367  0.6855
 5433TIP3   OH237789   0.806   5.063  13.835  0.5598  0.1565  0.3609
 5433TIP3    H137790   0.855   5.011  13.899  1.1968 -0.7272 -0.8016
 5433TIP3    H237791   0.834   5.029  13.750  0.0149  1.5477 -0.4117
 5434TIP3   OH237792   6.542   5.973   2.435 -0.0787 -0.0382  0.1234
 5434TIP3    H137793   6.498   5.890   2.456  1.2374 -0.8465 -0.1672
 5434TIP3    H237794   6.516   6.033   2.505 -0.1576 -1.0368  0.9719
 5435TIP3   OH237795   5.772   6.465   0.866  0.1238 -0.4304 -0.1142
 5435TIP3    H137796   5.817   6.549   0.875  1.9032 -1.4223  0.7894
 5435TIP3    H237797   5.686   6.488   0.831  0.2787  1.8282  0.8010
 5436TIP3   OH237798   2.459   2.867   4.453 -0.0674 -0.3210 -0.1313
 5436TIP3    H137799   2.412   2.950   4.446  0.4119 -0.0830 -0.6607
 5436TIP3    H237800   2.395   2.805   4.487 -0.2533  0.4197  0.9081
 5437TIP3   OH237801   0.976   6.197  11.845 -0.2461  0.3911  0.4077
 5437TIP3    H137802   1.017   6.283  11.852 -0.0199  0.2500  0.8761
 5437TIP3    H237803   0.883   6.215  11.839 -0.1491  0.6979 -0.2256
 5438TIP3   OH237804   5.948   2.437  11.741 -0.1112 -0.5242 -0.2686
 5438TIP3    H137805   5.911   2.468  11.824 -1.1788  0.4562 -1.0827
 5438TIP3    H237806   6.025   2.386  11.767 -0.2873 -0.0452  1.3043
 5439TIP3   OH237807   5.179   6.080   6.414 -0.1736  0.0260  0.4144
 5439TIP3    H137808   5.143   6.154   6.365 -0.4501  0.8449  1.8252
 5439TIP3    H237809   5.274   6.094   6.412 -0.2417  0.5817  0.9183
 5440TIP3   OH237810   1.585   0.539   1.078 -0.3089 -0.0815 -0.1287
 5440TIP3    H137811   1.612   0.604   1.012  1.0980  0.5477  1.0185
 5440TIP3    H237812   1.603   0.582   1.162 -0.8197 -1.3786  0.6598
 5441TIP3   OH237813   4.992   2.893   5.521  0.2292 -0.2877  0.6957
 5441TIP3    H137814   5.060   2.870   5.458 -0.2753 -1.3567  0.5155
 5441TIP3    H237815   5.040   2.930   5.595  0.8951  0.1535  0.0517
 5442TIP3   OH237816   3.530   6.478   5.865  0.2779  0.2515 -0.1679
 5442TIP3    H137817   3.462   6.525   5.912  1.1884  2.3610 -0.8489
 5442TIP3    H237818   3.612   6.516   5.895  1.1811 -1.8962  0.2690
 5443TIP3   OH237819   5.377   4.632   0.776  0.5017  0.5532 -0.1198
 5443TIP3    H137820   5.370   4.726   0.796 -0.3542  0.3391  0.6146
 5443TIP3    H237821   5.297   4.594   0.810  1.5097 -0.7012  0.9293
 5444TIP3   OH237822   2.426   4.480  15.619 -0.0228 -0.1013  0.5993
 5444TIP3    H137823   2.444   4.391  15.649  1.8677 -0.0540 -0.2613
 5444TIP3    H237824   2.331   4.484  15.612 -0.1662 -1.9556  0.9184
 5445TIP3   OH237825   1.973   5.074   4.585 -0.0688 -0.2710  0.1054
 5445TIP3    H137826   2.040   5.110   4.644 -1.8631  1.2446  1.3330
 5445TIP3    H237827   1.972   5.133   4.510 -0.1573 -0.1590  0.1932
 5446TIP3   OH237828   3.351   4.020   3.027  0.3939  0.0614 -0.5116
 5446TIP3    H137829   3.291   4.069   2.971 -0.0884  1.2216  0.9403
 5446TIP3    H237830   3.293   3.965   3.081  0.8066 -0.6173 -0.7547
 5447TIP3   OH237831   5.398   0.712  15.146 -0.0575 -0.4778 -0.2322
 5447TIP3    H137832   5.478   0.661  15.141  0.8904  1.0226 -1.3776
 5447TIP3    H237833   5.346   0.684  15.071  0.4705  0.2012 -0.8709
 5448TIP3   OH237834   2.195   4.394  14.942 -0.5184  0.6254  0.2539
 5448TIP3    H137835   2.203   4.443  14.860 -0.8156 -3.8401 -2.8344
 5448TIP3    H237836   2.100   4.385  14.954 -0.4622  0.5908  0.6693
 5449TIP3   OH237837   2.687   6.677  13.654 -0.1258  0.8890 -0.5536
 5449TIP3    H137838   2.738   6.609  13.698  1.9644  0.0966 -3.8607
 5449TIP3    H237839   2.730   6.759  13.679 -0.2424  0.6650  0.4138
 5450TIP3   OH237840   0.989   1.880  16.495 -0.0229 -0.7863  0.6549
 5450TIP3    H137841   0.934   1.919  16.563  0.5944  0.7300  0.3281
 5450TIP3    H237842   0.991   1.946  16.426  0.9416 -1.4777 -0.0013
 5451TIP3   OH237843   3.562   4.693  11.382  0.1656 -0.0268 -0.2119
 5451TIP3    H137844   3.632   4.750  11.414 -0.6973  1.6863 -1.2368
 5451TIP3    H237845   3.484   4.722  11.429 -0.1225 -1.0109 -0.0654
 5452TIP3   OH237846   4.343   2.909  14.813 -0.1433 -0.9654 -0.1634
 5452TIP3    H137847   4.394   2.967  14.756  0.7694 -0.3767  1.1929
 5452TIP3    H237848   4.282   2.865  14.754  0.0653  0.3676 -1.4428
 5453TIP3   OH237849   5.102   5.436  12.230 -0.3275 -0.0729  0.2202
 5453TIP3    H137850   5.196   5.418  12.229 -0.1167  0.9953 -0.5668
 5453TIP3    H237851   5.062   5.354  12.198  0.4796  0.0991 -1.3336
 5454TIP3   OH237852   4.668   3.783   4.484  0.0040 -0.0210  0.5822
 5454TIP3    H137853   4.711   3.824   4.409 -0.2509 -0.8584 -0.0357
 5454TIP3    H237854   4.596   3.842   4.507 -1.9849 -1.2837 -1.9244
 5455TIP3   OH237855   2.545   5.342  15.263  0.0895  0.2699 -0.3571
 5455TIP3    H137856   2.500   5.406  15.208  0.6103  0.5300 -0.4923
 5455TIP3    H237857   2.537   5.259  15.217  1.9822  0.7789 -1.7163
 5456TIP3   OH237858   1.805   0.169  16.449  0.2623  0.0607 -0.1434
 5456TIP3    H137859   1.855   0.180  16.530  0.8809  0.8847 -0.6362
 5456TIP3    H237860   1.780   0.076  16.450 -0.5099  0.2408  1.4337
 5457TIP3   OH237861   3.079   6.300  11.801  0.1814 -0.2249  0.2682
 5457TIP3    H137862   3.136   6.238  11.846  0.1724  0.2065  0.8910
 5457TIP3    H237863   3.059   6.258  11.718  3.0444  0.4706 -0.8661
 5458TIP3   OH237864   4.309   6.558  16.355  0.6464 -0.0366 -0.2782
 5458TIP3    H137865   4.330   6.620  16.425 -0.3358 -2.1400  2.0343
 5458TIP3    H237866   4.242   6.602  16.303 -2.7409 -0.2713  3.3895
 5459TIP3   OH237867   2.335   5.979   3.103 -0.1235 -0.0068  0.3926
 5459TIP3    H137868   2.311   5.963   3.012 -0.2508 -0.2852  0.4752
 5459TIP3    H237869   2.312   6.071   3.118  0.9515  0.3801 -0.1912
 5460TIP3   OH237870   3.663   2.332  16.511  0.4068 -0.2442 -0.8064
 5460TIP3    H137871   3.732   2.345  16.445  0.6263 -2.0043 -0.9845
 5460TIP3    H237872   3.645   2.238  16.507  1.7371 -0.8255  2.9005
 5461TIP3   OH237873   2.524   4.356  13.650 -0.1538 -0.3536  0.0893
 5461TIP3    H137874   2.486   4.432  13.694 -1.3593 -0.4491 -0.7367
 5461TIP3    H237875   2.449   4.304  13.622  0.6446 -1.6899  0.3332
 5462TIP3   OH237876   2.104   0.196  15.378  0.2809  0.4445  0.1784
 5462TIP3    H137877   2.147   0.149  15.306  2.2439 -0.1042  1.6283
 5462TIP3    H237878   2.173   0.251  15.415 -1.3780  2.7881  0.0025
 5463TIP3   OH237879   1.442   3.213  12.668  0.4110 -0.5431 -0.2720
 5463TIP3    H137880   1.516   3.259  12.629 -1.3641  1.7545 -1.1513
 5463TIP3    H237881   1.403   3.164  12.596  0.8892 -1.5582  0.1362
 5464TIP3   OH237882   4.153   5.019  16.349 -1.3738 -0.2568  0.7689
 5464TIP3    H137883   4.119   4.996  16.435  0.3487 -2.7235  0.9061
 5464TIP3    H237884   4.089   4.982  16.288 -0.0830 -3.3427  1.0475
 5465TIP3   OH237885   0.723   2.082   4.772  0.5463 -0.4237 -0.4036
 5465TIP3    H137886   0.793   2.057   4.712  0.5614 -1.8672  0.1644
 5465TIP3    H237887   0.720   2.011   4.836 -1.2509 -0.2555 -0.2427
 5466TIP3   OH237888   1.841   6.794   3.320  0.0468  0.7293  0.1123
 5466TIP3    H137889   1.751   6.806   3.290  0.4165  1.6345 -0.7160
 5466TIP3    H237890   1.871   6.882   3.340  0.7692  0.4388  0.3242
 5467TIP3   OH237891   5.630   3.290   5.243  0.0515  0.0421  0.1727
 5467TIP3    H137892   5.653   3.377   5.274  0.5138 -0.1132  0.2852
 5467TIP3    H237893   5.602   3.243   5.321  0.0361  0.0167  0.1523
 5468TIP3   OH237894   5.354   5.143  11.608 -0.2511  0.5850 -0.6927
 5468TIP3    H137895   5.281   5.170  11.551  0.5206  0.0863 -1.9561
 5468TIP3    H237896   5.369   5.051  11.586  0.7416  0.6694 -0.4195
 5469TIP3   OH237897   5.004   5.962  14.420 -0.2486  0.3502  0.3962
 5469TIP3    H137898   4.996   6.007  14.336 -0.1980 -1.0217 -0.3648
 5469TIP3    H237899   4.972   5.873  14.403  0.2723 -0.1077  1.6928
 5470TIP3   OH237900   5.307   0.687   1.687  0.6285  0.2261 -0.4510
 5470TIP3    H137901   5.330   0.630   1.761 -0.7314  2.0424  1.4717
 5470TIP3    H237902   5.217   0.714   1.704  0.7587  1.8317 -2.0202
 5471TIP3   OH237903   4.732   6.819  16.728 -0.4446  0.2734 -0.1898
 5471TIP3    H137904   4.699   6.901  16.766 -0.3871  0.0251  0.4022
 5471TIP3    H237905   4.787   6.847  16.654  0.9267  0.8604  1.0041
 5472TIP3   OH237906   4.901   5.923   4.342  0.1032 -0.6027  0.3266
 5472TIP3    H137907   4.862   5.853   4.290 -0.1937  0.5091 -1.0105
 5472TIP3    H237908   4.827   5.971   4.378  0.2858 -0.3795  0.4083
 5473TIP3   OH237909   0.104   0.454   2.789  0.0079  0.0239 -0.1337
 5473TIP3    H137910   0.181   0.421   2.834 -0.1475  0.2131  0.2741
 5473TIP3    H237911   0.037   0.460   2.857 -0.6382 -0.9938 -0.6560
 5474TIP3   OH237912   4.233   6.400  15.915  0.4137  0.1466  0.1331
 5474TIP3    H137913   4.243   6.323  15.860  0.1181  0.1373  0.0913
 5474TIP3    H237914   4.298   6.389  15.984 -1.6446 -1.6945  1.9266
 5475TIP3   OH237915   0.416   3.981  15.801 -0.5131  0.2529  0.4033
 5475TIP3    H137916   0.375   3.912  15.748 -0.3281  0.3710  0.1054
 5475TIP3    H237917   0.408   4.060  15.747  1.2195  0.0468 -0.2189
 5476TIP3   OH237918   5.092   2.264   1.356  0.6550 -0.5294 -0.1637
 5476TIP3    H137919   5.038   2.306   1.423 -0.3887 -3.0653  0.7071
 5476TIP3    H237920   5.056   2.296   1.273 -2.3544 -2.1561  0.3855
 5477TIP3   OH237921   1.653   4.422   5.621 -0.7501 -0.3903 -0.4407
 5477TIP3    H137922   1.586   4.457   5.680  0.3814  0.0546  0.6121
 5477TIP3    H237923   1.734   4.426   5.671 -0.1075 -2.0065 -1.2766
 5478TIP3   OH237924   3.455   6.555  14.618 -0.0644  0.4092 -0.1837
 5478TIP3    H137925   3.501   6.488  14.567 -1.1349 -0.0949 -0.5144
 5478TIP3    H237926   3.389   6.590  14.558 -1.2230 -0.0618  0.7633
 5479TIP3   OH237927   1.664   6.820   1.577 -0.5323  0.6874  0.4835
 5479TIP3    H137928   1.642   6.775   1.658  1.0603 -1.1771 -0.0601
 5479TIP3    H237929   1.758   6.805   1.565 -1.2193 -1.9195 -3.3148
 5480TIP3   OH237930   6.070   3.707  12.519  0.2046  0.4010 -0.2595
 5480TIP3    H137931   6.006   3.717  12.589  2.1666  2.6225  1.3846
 5480TIP3    H237932   6.088   3.797  12.489  0.8173 -0.3423 -2.3316
 5481TIP3   OH237933   4.356   3.800  16.455 -0.0412  0.0154  0.1779
 5481TIP3    H137934   4.301   3.723  16.469 -0.1727  0.1663  0.4859
 5481TIP3    H237935   4.424   3.770  16.395 -0.5365 -0.1380 -0.3192
 5482TIP3   OH237936   1.076   1.872   4.816  0.5967  0.4187 -0.1518
 5482TIP3    H137937   1.032   1.900   4.736  1.0367  0.0294 -0.5293
 5482TIP3    H237938   1.006   1.871   4.882  0.5965  2.6248 -0.0447
 5483TIP3   OH237939   5.867   0.621  11.579  0.2916 -0.4797  0.1342
 5483TIP3    H137940   5.842   0.707  11.611  0.5222 -0.3703  0.0225
 5483TIP3    H237941   5.810   0.606  11.503  0.5439 -0.2410 -0.1064
 5484TIP3   OH237942   0.931   4.849   5.071  0.7450  1.0189  0.1879
 5484TIP3    H137943   0.903   4.808   5.153  0.2428  0.6155 -0.1800
 5484TIP3    H237944   0.850   4.862   5.022  1.1093  0.5929 -0.5457
 5485TIP3   OH237945   0.266   4.042   0.203 -0.4514  0.7217 -0.3348
 5485TIP3    H137946   0.210   4.007   0.133  0.6387 -1.4951 -0.1859
 5485TIP3    H237947   0.222   4.016   0.284  0.3420 -0.3431 -0.2224
 5486TIP3   OH237948   0.927   4.415   2.740 -0.4375 -0.0957 -0.2210
 5486TIP3    H137949   0.937   4.490   2.799  1.1181  0.4592 -1.1225
 5486TIP3    H237950   0.863   4.359   2.783  0.9080  0.0992  2.1962
 5487TIP3   OH237951   6.823   5.600   1.870 -0.2146  0.5621  0.4027
 5487TIP3    H137952   6.854   5.510   1.867  0.8689  0.9029 -3.2876
 5487TIP3    H237953   6.735   5.597   1.833  0.3348  1.1306 -1.0100
 5488TIP3   OH237954   5.696   3.588  12.720  0.0959 -0.0081 -0.2706
 5488TIP3    H137955   5.787   3.610  12.739 -0.2718  0.3498  1.1214
 5488TIP3    H237956   5.683   3.616  12.629  1.8314 -1.5788 -1.0708
 5489TIP3   OH237957   5.827   2.103   4.289 -0.4466  0.2368 -0.4748
 5489TIP3    H137958   5.749   2.116   4.344 -0.7001  0.3648 -0.8600
 5489TIP3    H237959   5.861   2.191   4.276  0.4166  0.0875  0.6192
 5490TIP3   OH237960   5.698   2.165  15.522 -0.1526  0.5056 -0.2591
 5490TIP3    H137961   5.728   2.089  15.471  1.1798  0.6617  0.2474
 5490TIP3    H237962   5.721   2.143  15.613 -2.1495  0.3889  0.2684
 5491TIP3   OH237963   5.006   1.751  14.444 -0.4450  0.3298  0.3526
 5491TIP3    H137964   5.066   1.822  14.468 -1.9952  1.3743  1.3863
 5491TIP3    H237965   4.971   1.720  14.528 -0.1711 -1.3426 -0.1226
 5492TIP3   OH237966   3.376   5.528  11.152 -0.5573  0.6315 -0.5854
 5492TIP3    H137967   3.321   5.466  11.200 -1.1321  1.6687  0.1329
 5492TIP3    H237968   3.447   5.474  11.117 -1.9191 -0.7075 -1.3983
 5493TIP3   OH237969   4.845   5.232   0.984  0.1110 -0.0882 -0.0506
 5493TIP3    H137970   4.908   5.276   1.042  0.1677  0.7656 -0.7448
 5493TIP3    H237971   4.899   5.200   0.911 -0.1283 -0.1458 -0.2009
 5494TIP3   OH237972   2.601   3.592   3.315 -0.1109 -0.2931 -0.5280
 5494TIP3    H137973   2.648   3.590   3.398 -0.1419  2.3232 -0.3762
 5494TIP3    H237974   2.670   3.590   3.249  0.1787  1.5026 -0.3320
 5495TIP3   OH237975   6.354   5.630   5.694  0.1368 -0.5526 -0.2538
 5495TIP3    H137976   6.379   5.576   5.619 -2.5141 -1.3904 -0.6445
 5495TIP3    H237977   6.263   5.655   5.677 -0.1142  0.3879  2.0351
 5496TIP3   OH237978   6.776   1.280   2.431 -0.3834  0.5255  0.6152
 5496TIP3    H137979   6.835   1.217   2.390  0.1397  0.6633  1.1437
 5496TIP3    H237980   6.833   1.350   2.462 -1.2055  3.0890 -3.0170
 5497TIP3   OH237981   5.418   0.700   2.777  0.7388  0.0990  0.0701
 5497TIP3    H137982   5.388   0.648   2.852  0.3937 -0.2005 -0.2689
 5497TIP3    H237983   5.424   0.789   2.811  3.1668 -0.3911  1.2016
 5498TIP3   OH237984   3.536   4.373   1.914 -0.1595  0.8023 -0.8429
 5498TIP3    H137985   3.590   4.427   1.972 -1.2398  0.7304  0.2645
 5498TIP3    H237986   3.449   4.413   1.917 -0.7030 -0.3353 -0.8969
 5499TIP3   OH237987   3.529   4.673   1.562  0.1249 -0.0904  0.5819
 5499TIP3    H137988   3.516   4.580   1.543  1.2169  0.0629 -1.1616
 5499TIP3    H237989   3.459   4.695   1.624 -1.4654 -1.5663 -0.5806
 5500TIP3   OH237990   2.615   3.719   5.521  0.0683  0.2559 -0.5521
 5500TIP3    H137991   2.638   3.668   5.599 -1.4601  0.2917 -0.0386
 5500TIP3    H237992   2.547   3.779   5.551 -0.8768 -0.0350 -2.0217
 5501TIP3   OH237993   4.218   2.622   3.356 -0.1291 -0.2745  0.3170
 5501TIP3    H137994   4.215   2.697   3.416 -0.4134  0.2585 -0.3460
 5501TIP3    H237995   4.234   2.547   3.412 -0.3166  0.2222  1.0520
 5502TIP3   OH237996   5.249   5.172  14.243 -0.4443 -0.0163 -0.4530
 5502TIP3    H137997   5.240   5.137  14.332 -1.4732  0.1674 -0.4702
 5502TIP3    H237998   5.316   5.118  14.203  1.8017  1.3657  1.1505
 5503TIP3   OH237999   4.732   3.775  12.786 -0.2445 -0.1417  0.2480
 5503TIP3    H138000   4.711   3.861  12.750  1.1279 -0.3673 -1.1592
 5503TIP3    H238001   4.653   3.750  12.835 -1.5442  0.9376 -1.1854
 5504TIP3   OH238002   2.613   6.547  11.321  0.3436 -0.1918  0.3665
 5504TIP3    H138003   2.588   6.638  11.339  2.3678  0.3382  0.7520
 5504TIP3    H238004   2.539   6.495  11.353 -1.6260  1.3614 -1.4083
 5505TIP3   OH238005   4.209   0.472   3.155 -0.1441 -0.0070  0.1920
 5505TIP3    H138006   4.163   0.438   3.232 -2.0698  0.0351 -0.8808
 5505TIP3    H238007   4.275   0.530   3.191 -0.5307 -0.5291  1.8428
 5506TIP3   OH238008   0.036   1.317  11.178  0.0652  0.2770  0.1302
 5506TIP3    H138009  -0.038   1.258  11.162  1.2070 -1.4977  1.1595
 5506TIP3    H238010   0.057   1.306  11.270  0.3979  2.2629  0.3496
 5507TIP3   OH238011   1.185   6.635   1.539  0.5149  0.2168  0.1062
 5507TIP3    H138012   1.280   6.628   1.539  0.4608 -0.7235  1.0176
 5507TIP3    H238013   1.161   6.631   1.446  1.5281  3.6010 -0.4229
 5508TIP3   OH238014   5.295   5.959   0.238 -0.1886 -0.1088 -0.5231
 5508TIP3    H138015   5.226   5.940   0.175 -0.1136 -1.5199 -0.2173
 5508TIP3    H238016   5.312   6.053   0.229 -0.6115 -0.1713 -2.1503
 5509TIP3   OH238017   3.815   6.534   0.084  0.0075 -0.2162  0.0494
 5509TIP3    H138018   3.895   6.489   0.112  0.9184  0.6790 -1.0014
 5509TIP3    H238019   3.784   6.579   0.163  1.8823  1.3238 -0.0181
 5510TIP3   OH238020   6.022   5.847  16.730 -0.3787 -0.3254 -0.4487
 5510TIP3    H138021   6.043   5.852  16.637  0.0722  0.3993 -0.3229
 5510TIP3    H238022   6.089   5.789  16.767  0.7496  1.0468 -0.2439
 5511TIP3   OH238023   2.082   5.438  15.013  0.1197 -1.0418 -0.0750
 5511TIP3    H138024   2.123   5.389  15.084 -0.0749 -1.7931 -0.4697
 5511TIP3    H238025   2.022   5.498  15.057  2.4063  0.9094  0.5843
 5512TIP3   OH238026   2.631   0.237  15.110  0.0962  0.3230  0.0120
 5512TIP3    H138027   2.628   0.216  15.017 -1.9111 -0.7262  0.2650
 5512TIP3    H238028   2.635   0.152  15.154 -0.1796  0.7621  0.9208
 5513TIP3   OH238029   1.959   1.473   5.743  0.4527 -0.0116  0.5541
 5513TIP3    H138030   1.891   1.413   5.714  2.1269 -1.0476 -1.5132
 5513TIP3    H238031   1.956   1.468   5.839 -1.4194 -1.0738  0.4817
 5514TIP3   OH238032   1.031   0.036  16.537  0.2381  0.6659 -0.4300
 5514TIP3    H138033   1.087  -0.023  16.487 -0.9151  1.4956 -2.8919
 5514TIP3    H238034   1.024  -0.004  16.624  0.8313 -1.9058 -1.4764
 5515TIP3   OH238035   0.722   0.790   4.327 -0.0185  0.4107 -0.3816
 5515TIP3    H138036   0.780   0.721   4.294 -1.6183 -0.2712 -1.8853
 5515TIP3    H238037   0.713   0.851   4.254  0.2752  1.5178  0.4743
 5516TIP3   OH238038   1.652   2.031   0.431  0.2228 -0.3956  0.0755
 5516TIP3    H138039   1.713   2.037   0.504 -0.4641 -0.3587  0.6529
 5516TIP3    H238040   1.618   1.942   0.436  0.4962 -0.5370 -0.4712
 5517TIP3   OH238041   6.766   4.065  14.670  0.0957 -0.3995 -0.0933
 5517TIP3    H138042   6.856   4.057  14.639  0.9521 -0.2911  2.1432
 5517TIP3    H238043   6.750   4.160  14.674  1.1229 -0.2348  2.5030
 5518TIP3   OH238044   6.213   2.394   3.288 -0.1759 -0.0378  0.0333
 5518TIP3    H138045   6.171   2.471   3.326 -0.4448 -0.2772  0.2209
 5518TIP3    H238046   6.266   2.359   3.360 -0.0996 -0.0613 -0.0349
 5519TIP3   OH238047   2.829   4.474   5.124 -0.5224 -0.3009  0.1168
 5519TIP3    H138048   2.749   4.467   5.176 -0.7558 -0.8783 -0.3089
 5519TIP3    H238049   2.880   4.397   5.147 -0.4437 -0.3487 -0.2084
 5520TIP3   OH238050   0.331   2.668  12.338  0.2551  0.6161  0.2810
 5520TIP3    H138051   0.413   2.709  12.366  0.6600  1.2641 -1.7074
 5520TIP3    H238052   0.357   2.609  12.267 -0.6071 -1.6349  1.7580
 5521TIP3   OH238053   1.276   5.322   4.125 -0.1655 -0.2547  0.0125
 5521TIP3    H138054   1.268   5.406   4.170  0.9421 -0.4178  0.5426
 5521TIP3    H238055   1.364   5.292   4.146  0.0537 -0.7732 -1.5422
 5522TIP3   OH238056   4.842   4.352  16.468  0.3271  0.4129  0.3345
 5522TIP3    H138057   4.838   4.390  16.380 -0.9416 -0.5879 -0.0779
 5522TIP3    H238058   4.838   4.428  16.527  1.1923  1.0958 -0.4489
 5523TIP3   OH238059   5.115   4.527   1.551  0.3289  0.4366 -0.4955
 5523TIP3    H138060   5.022   4.548   1.551  0.1142 -0.4717 -1.5122
 5523TIP3    H238061   5.142   4.539   1.642 -1.1188 -0.7476  0.1188
 5524TIP3   OH238062   6.463   2.270  11.719  0.2261  0.2130 -0.1064
 5524TIP3    H138063   6.557   2.280  11.735  0.7161  1.1304 -2.9324
 5524TIP3    H238064   6.441   2.184  11.754  1.4320  1.1262  3.1793
 5525TIP3   OH238065   2.031   3.217  13.242  0.0644 -0.9104  0.0946
 5525TIP3    H138066   1.948   3.173  13.225  0.1243 -1.5223  1.2936
 5525TIP3    H238067   2.093   3.146  13.261  0.9045 -0.4715 -0.9081
 5526TIP3   OH238068   5.400   0.414   1.619  0.1503 -1.0948 -0.2426
 5526TIP3    H138069   5.458   0.489   1.631  0.2382 -1.3763  1.3188
 5526TIP3    H238070   5.446   0.341   1.662  0.4775 -2.2928 -2.4689
 5527TIP3   OH238071   0.688   5.964  13.876 -0.4299 -0.3758  0.5724
 5527TIP3    H138072   0.669   5.973  13.783 -0.2106  1.4731  0.6778
 5527TIP3    H238073   0.602   5.953  13.917 -0.5654 -0.7207  0.2047
 5528TIP3   OH238074   2.247   3.507  14.857 -0.5193 -0.0112  0.4515
 5528TIP3    H138075   2.222   3.580  14.802 -0.2063 -0.6211 -0.5301
 5528TIP3    H238076   2.313   3.543  14.917 -2.6189  1.2512  2.1235
 5529TIP3   OH238077   5.012   5.145  15.881 -0.1423 -0.0222 -0.4186
 5529TIP3    H138078   5.004   5.172  15.973 -0.1920  0.7419 -0.6447
 5529TIP3    H238079   5.094   5.185  15.851  0.2795 -0.9002 -0.5039
 5530TIP3   OH238080   0.774   1.608  12.242  0.3258 -0.2781 -0.3067
 5530TIP3    H138081   0.702   1.672  12.248  0.3742 -0.2751  0.3053
 5530TIP3    H238082   0.732   1.528  12.211 -0.2229 -0.6798  1.3355
 5531TIP3   OH238083   6.675   3.141   2.708 -0.0085  0.3904 -0.3500
 5531TIP3    H138084   6.734   3.110   2.776 -1.3064 -0.7113  0.3396
 5531TIP3    H238085   6.679   3.074   2.640 -0.7053  0.1183 -0.1345
 5532TIP3   OH238086   5.411   5.705  16.246 -0.3737  0.0004 -0.2253
 5532TIP3    H138087   5.349   5.644  16.287 -0.5443  0.1449 -0.2679
 5532TIP3    H238088   5.360   5.784  16.229 -0.4137 -0.2070 -1.1161
 5533TIP3   OH238089   0.830   2.715  13.890 -0.6650 -0.3201  0.2357
 5533TIP3    H138090   0.894   2.659  13.846 -2.5767 -1.2292 -1.5677
 5533TIP3    H238091   0.749   2.665  13.888 -1.9594  1.6425  0.5260
 5534TIP3   OH238092   4.903   6.065   0.527 -0.1748 -0.3352  0.4568
 5534TIP3    H138093   4.819   6.022   0.546  0.4047 -0.7682  2.2231
 5534TIP3    H238094   4.951   6.062   0.610  1.3595  0.4527 -0.3572
 5535TIP3   OH238095   1.008   5.058   3.141  0.3265 -0.3552 -0.1416
 5535TIP3    H138096   0.986   5.000   3.215 -1.4940  0.2109 -0.1829
 5535TIP3    H238097   0.968   5.142   3.165  2.0176  0.5981 -0.5741
 5536TIP3   OH238098   4.013   4.548  17.005  0.6430  0.3947  0.7516
 5536TIP3    H138099   4.053   4.634  17.021  0.3981  0.0484  3.7716
 5536TIP3    H238100   3.921   4.560  17.025 -0.1192  0.1730 -2.1713
 5537TIP3   OH238101   0.128   2.307  15.047  1.1066 -0.1333 -0.1676
 5537TIP3    H138102   0.111   2.343  14.960  1.4705 -0.6194 -0.4400
 5537TIP3    H238103   0.213   2.265  15.040  0.0392 -2.4197 -0.3019
 5538TIP3   OH238104   4.710   3.502   3.834 -0.4493  0.3060  0.2781
 5538TIP3    H138105   4.760   3.467   3.907 -0.5459  0.0646  0.2309
 5538TIP3    H238106   4.763   3.574   3.800 -0.1441  0.0667  0.2425
 5539TIP3   OH238107   4.171   2.883   5.857 -0.6880 -0.2030 -0.2350
 5539TIP3    H138108   4.256   2.853   5.890 -0.5598  0.1747 -0.2187
 5539TIP3    H238109   4.128   2.922   5.933 -1.2266 -1.1408 -0.0431
 5540TIP3   OH238110   6.257   3.610  13.897  0.0917  0.4127 -0.6983
 5540TIP3    H138111   6.249   3.698  13.932  0.4487  0.7204 -1.3720
 5540TIP3    H238112   6.169   3.585  13.871 -0.0056  0.5790 -0.5235
 5541TIP3   OH238113   4.322   1.042   3.453 -0.0113 -0.1769  0.3072
 5541TIP3    H138114   4.351   1.130   3.431 -1.7059  0.1497 -0.8684
 5541TIP3    H238115   4.310   0.999   3.368 -4.2087  0.2292  0.5003
 5542TIP3   OH238116   2.638   6.580  12.016  0.6240  0.6672 -0.1041
 5542TIP3    H138117   2.693   6.503  12.017  0.7526  0.5784 -3.5904
 5542TIP3    H238118   2.695   6.651  11.987  0.0217  1.6889  1.0675
 5543TIP3   OH238119   4.480   6.472   3.369 -0.2569  0.3628 -0.8115
 5543TIP3    H138120   4.437   6.387   3.366 -0.0498  0.2194  0.1127
 5543TIP3    H238121   4.567   6.454   3.403  0.1050  0.8252 -1.4768
 5544TIP3   OH238122   2.216   2.425  16.911  0.1176 -0.4450  0.1060
 5544TIP3    H138123   2.278   2.449  16.979  0.0034  0.6049 -0.1433
 5544TIP3    H238124   2.187   2.508  16.874  0.0676 -0.9850 -1.1346
 5545TIP3   OH238125   0.160   0.144   2.304 -1.0444  0.6038 -0.3065
 5545TIP3    H138126   0.179   0.194   2.383  1.0570 -2.6149  1.4266
 5545TIP3    H238127   0.092   0.082   2.331 -0.0892 -0.7336 -0.9006
 5546TIP3   OH238128   2.061   0.654   5.800 -0.0588 -0.5391 -0.6948
 5546TIP3    H138129   2.071   0.600   5.878  1.5564 -1.1864 -1.3082
 5546TIP3    H238130   2.057   0.591   5.727  1.3370  0.1071 -1.3722
 5547TIP3   OH238131   5.554   1.137   4.600 -0.4322  0.6298  0.5307
 5547TIP3    H138132   5.460   1.148   4.614 -0.6220 -0.0391 -0.1423
 5547TIP3    H238133   5.574   1.052   4.639 -0.5480 -0.2423 -1.2061
 5548TIP3   OH238134   4.946   1.041   4.087  0.1330 -0.0392 -0.2806
 5548TIP3    H138135   5.028   0.993   4.074  0.5777  0.9450 -1.2854
 5548TIP3    H238136   4.878   0.980   4.059  0.6974 -0.0363 -1.7311
 5549TIP3   OH238137   4.005   0.042  13.414 -0.3765  0.0060 -0.6295
 5549TIP3    H138138   4.061  -0.024  13.454 -0.4333  0.5782  0.4598
 5549TIP3    H238139   4.005   0.114  13.478  0.8459  1.6747 -2.4079
 5550TIP3   OH238140   5.337   3.344  15.450 -0.3596  0.0769  0.2621
 5550TIP3    H138141   5.422   3.327  15.490 -1.1988  0.4187  2.3031
 5550TIP3    H238142   5.278   3.358  15.524 -1.8813  1.3826 -1.1222
 5551TIP3   OH238143   2.336   2.623   5.601 -0.5498  0.0615  0.0797
 5551TIP3    H138144   2.242   2.608   5.600 -0.8179  1.5742 -0.0899
 5551TIP3    H238145   2.354   2.669   5.518  0.2508  0.1981  0.3183
 5552TIP3   OH238146   3.642   2.027  12.875 -0.2671 -0.0519 -0.7416
 5552TIP3    H138147   3.629   2.033  12.780 -0.5099  2.0002 -0.6173
 5552TIP3    H238148   3.727   2.069  12.891 -0.4434  0.0465 -0.0091
 5553TIP3   OH238149   1.257   2.209   5.361 -0.0789  0.6585 -0.5185
 5553TIP3    H138150   1.304   2.208   5.444  0.1858  0.0828 -0.6692
 5553TIP3    H238151   1.191   2.277   5.371 -0.4223  0.2102  0.3715
 5554TIP3   OH238152   2.706   2.741  15.363  0.1548  0.1113 -0.1613
 5554TIP3    H138153   2.645   2.767  15.432 -0.1373  2.1101 -1.0947
 5554TIP3    H238154   2.651   2.700  15.296  0.4760 -2.1001  0.8467
 5555TIP3   OH238155   5.979   3.704  11.599  0.4737  0.1271 -0.6003
 5555TIP3    H138156   5.884   3.697  11.588  0.4416 -0.0304 -0.2472
 5555TIP3    H238157   5.992   3.785  11.647  0.5151  0.1275 -0.6118
 5556TIP3   OH238158   0.287   5.463   0.636  0.6605  0.3036  0.4772
 5556TIP3    H138159   0.301   5.550   0.599  2.6754  0.0061  0.4575
 5556TIP3    H238160   0.350   5.406   0.591 -0.6415 -1.2024  0.4466
 5557TIP3   OH238161   4.783   2.891  15.489  0.4436 -0.2771 -0.1248
 5557TIP3    H138162   4.730   2.839  15.549  1.1508 -0.1242  0.6510
 5557TIP3    H238163   4.760   2.859  15.402 -1.2581  0.0930  0.1512
 5558TIP3   OH238164   5.937   2.764  11.500  0.4378 -0.0493  0.1228
 5558TIP3    H138165   5.869   2.714  11.454 -0.2586  0.7468  0.2820
 5558TIP3    H238166   6.018   2.714  11.484 -0.0008 -0.4399 -0.9413
 5559TIP3   OH238167   2.876   0.401  14.736 -0.1009 -0.0207  0.1337
 5559TIP3    H138168   2.971   0.411  14.732 -0.0785  0.2817  1.1226
 5559TIP3    H238169   2.842   0.484  14.702 -0.0004  0.0272  0.1492
 5560TIP3   OH238170   2.164   1.302  11.125  0.9316  0.3085 -0.1661
 5560TIP3    H138171   2.093   1.296  11.061  0.9433 -3.1654  0.0022
 5560TIP3    H238172   2.120   1.328  11.206  0.0280 -0.6015 -0.3411
 5561TIP3   OH238173   4.925   6.719  12.390 -0.3367  0.0996 -1.1496
 5561TIP3    H138174   4.975   6.685  12.315 -0.7894  1.3378 -2.0470
 5561TIP3    H238175   4.835   6.725  12.358 -0.5415  0.6412 -0.4974
 5562TIP3   OH238176   6.553   3.714  14.782  0.2185 -0.6340  0.0013
 5562TIP3    H138177   6.610   3.708  14.705  1.4806 -0.8140  0.9115
 5562TIP3    H238178   6.575   3.637  14.834 -0.3213 -0.3009  0.7416
 5563TIP3   OH238179   0.835   1.994  15.940  0.1760  0.3092 -0.5108
 5563TIP3    H138180   0.862   1.903  15.931  1.1710  0.5599 -0.1840
 5563TIP3    H238181   0.908   2.045  15.906  0.2113  1.0090  0.5422
 5564TIP3   OH238182   5.218   6.780  14.193 -0.4335  0.0143  0.5399
 5564TIP3    H138183   5.207   6.870  14.165  0.5405 -0.2384 -0.7531
 5564TIP3    H238184   5.308   6.775  14.226 -0.9371 -0.1631  1.9669
 5565TIP3   OH238185   6.243   3.389  17.078  0.2149 -0.1026 -0.1226
 5565TIP3    H138186   6.237   3.366  17.170  0.0348  1.4659  0.2927
 5565TIP3    H238187   6.284   3.313  17.036  0.3782 -0.7957  1.2532
 5566TIP3   OH238188   5.415   4.584  14.450 -0.5974  0.5134  0.7297
 5566TIP3    H138189   5.435   4.581  14.544 -0.8634  0.5846  0.7909
 5566TIP3    H238190   5.327   4.546  14.444 -0.5250  0.3852  0.4924
 5567TIP3   OH238191   1.578   4.237   5.438  0.0138  0.4357 -0.2145
 5567TIP3    H138192   1.653   4.255   5.380  2.0574 -1.4064  1.6586
 5567TIP3    H238193   1.581   4.307   5.503 -0.4785  0.8580 -0.6348
 5568TIP3   OH238194   3.234   3.325   6.804 -0.0096  0.1706  0.1311
 5568TIP3    H138195   3.208   3.323   6.896  0.2698 -0.0205  0.2063
 5568TIP3    H238196   3.298   3.254   6.795 -1.5756 -1.2082 -0.6856
 5569TIP3   OH238197   3.267   1.889   3.794 -0.2900  0.6513 -0.4420
 5569TIP3    H138198   3.358   1.917   3.780  0.8286 -2.5750 -0.5446
 5569TIP3    H238199   3.263   1.871   3.888 -1.5753  2.8193 -0.0139
 5570TIP3   OH238200   2.641   6.030  10.507 -0.5402 -0.1382  0.3992
 5570TIP3    H138201   2.681   6.099  10.455 -1.4621  0.2720  0.2214
 5570TIP3    H238202   2.551   6.025  10.476 -0.8241 -0.5757  1.2559
 5571TIP3   OH238203   5.805   4.458  14.143  0.2729 -0.3250 -0.0566
 5571TIP3    H138204   5.743   4.442  14.214  1.3996 -0.8450  0.8415
 5571TIP3    H238205   5.771   4.409  14.069 -1.1725  0.6020 -0.0431
 5572TIP3   OH238206   5.408   4.382  12.306  0.0015 -0.3522 -0.3929
 5572TIP3    H138207   5.317   4.386  12.334  0.5094  1.3159  1.2210
 5572TIP3    H238208   5.407   4.412  12.215 -1.0255 -0.1729 -0.3341
 5573TIP3   OH238209   2.742   3.075  13.835 -0.4717 -0.1839 -0.0002
 5573TIP3    H138210   2.690   3.083  13.755 -0.8743 -1.0222  0.1651
 5573TIP3    H238211   2.680   3.044  13.901  0.4134 -2.1755 -0.0346
 5574TIP3   OH238212   5.541   6.535   3.824  0.4050 -0.7826  0.0815
 5574TIP3    H138213   5.454   6.498   3.836 -0.1442  0.2722 -0.4825
 5574TIP3    H238214   5.575   6.492   3.745  0.7109 -1.7443  0.7284
 5575TIP3   OH238215   4.237   5.211   0.680 -0.0612  0.3305 -0.0325
 5575TIP3    H138216   4.259   5.128   0.639  0.1661  0.3293  0.0883
 5575TIP3    H238217   4.222   5.189   0.772 -0.6480  0.3196 -0.1229
 5576TIP3   OH238218   0.463   2.392   1.557 -0.3306 -0.1609 -0.6187
 5576TIP3    H138219   0.528   2.327   1.581 -1.6693 -1.8129 -1.2579
 5576TIP3    H238220   0.423   2.418   1.640  0.2524 -0.0781 -0.3589
 5577TIP3   OH238221   3.125   5.299   3.022  0.1219  0.4729 -0.0487
 5577TIP3    H138222   3.083   5.305   3.108  0.0727  0.7308 -0.0886
 5577TIP3    H238223   3.067   5.241   2.971  0.4818 -0.1879  0.2788
 5578TIP3   OH238224   1.886   5.161  12.620  0.3926  0.3303 -0.0599
 5578TIP3    H138225   1.967   5.209  12.601 -0.4077  0.7606 -2.9339
 5578TIP3    H238226   1.842   5.214  12.687 -0.0314  3.3121 -2.4512
 5579TIP3   OH238227   1.852   4.988   3.981  0.2612 -0.2203 -0.4457
 5579TIP3    H138228   1.780   4.992   4.044 -0.9459 -0.1713 -1.7673
 5579TIP3    H238229   1.876   4.896   3.976  0.3307 -0.2267  0.0496
 5580TIP3   OH238230   1.800   5.493   2.675  0.3044 -0.0578  0.1650
 5580TIP3    H138231   1.771   5.467   2.587 -0.4489  0.5661  0.2202
 5580TIP3    H238232   1.801   5.412   2.725  2.3495 -0.7417 -0.8275
 5581TIP3   OH238233   1.906   6.442  12.826  0.0765  0.4376  0.3750
 5581TIP3    H138234   1.887   6.447  12.733  2.9457 -3.1209 -0.6666
 5581TIP3    H238235   1.975   6.507  12.840  0.8649 -0.1914 -0.4603
 5582TIP3   OH238236   2.363   1.011   5.711 -0.4819 -0.5055  0.1724
 5582TIP3    H138237   2.423   1.080   5.739  0.0649 -0.7030 -0.4773
 5582TIP3    H238238   2.315   0.986   5.790  1.1191 -1.1556  0.9710
 5583TIP3   OH238239   1.499   1.411   0.327  0.6117  0.5707 -0.6782
 5583TIP3    H138240   1.541   1.461   0.258 -0.0050  2.3640  0.1928
 5583TIP3    H238241   1.408   1.442   0.328  0.2876 -0.3392  0.1132
 5584TIP3   OH238242   3.049   0.897   3.653 -0.0502  0.0914  0.2162
 5584TIP3    H138243   3.009   0.811   3.665  0.1635  0.3397  3.3294
 5584TIP3    H238244   3.005   0.954   3.715  0.2349  2.1460 -1.3525
 5585TIP3   OH238245   3.136   5.192  13.831  0.4812 -0.4009  0.2271
 5585TIP3    H138246   3.104   5.156  13.749 -0.8695 -1.2479  1.0866
 5585TIP3    H238247   3.136   5.118  13.892  2.3522 -0.0096  0.7743
 5586TIP3   OH238248   4.073   2.113  15.747 -0.2411  0.6777 -0.3850
 5586TIP3    H138249   4.039   2.061  15.674  0.8369  0.5540 -0.8178
 5586TIP3    H238250   4.156   2.070  15.770  0.0902  1.5195  0.0183
 5587TIP3   OH238251   3.495   0.828   4.059  0.0991 -0.4660 -0.6831
 5587TIP3    H138252   3.410   0.811   4.099  0.7960  1.7011  2.0651
 5587TIP3    H238253   3.487   0.918   4.025  2.5170  1.9319  4.1107
 5588TIP3   OH238254   4.632   5.983   4.200  0.3018  0.0233  0.5345
 5588TIP3    H138255   4.538   6.001   4.199  0.4566  0.8950  0.8962
 5588TIP3    H238256   4.654   5.976   4.293  0.5331 -0.5517  0.4419
 5589TIP3   OH238257   5.611   5.679   4.339 -0.1506 -0.2578  0.2471
 5589TIP3    H138258   5.627   5.644   4.251 -0.0328 -1.0694  0.5795
 5589TIP3    H238259   5.530   5.635   4.367  0.1132 -0.4274  0.7530
 5590TIP3   OH238260   6.377   5.648  12.281 -0.3942  0.1574  0.1090
 5590TIP3    H138261   6.312   5.644  12.351  0.5458  2.1669  1.1929
 5590TIP3    H238262   6.445   5.585  12.306 -1.3899 -1.2203 -0.5232
 5591TIP3   OH238263   5.917   4.504  11.947  0.0545  0.3390 -0.1903
 5591TIP3    H138264   5.940   4.591  11.979  0.5177 -0.4292  1.7437
 5591TIP3    H238265   5.996   4.452  11.963 -0.9730 -0.9458  0.9210
 5592TIP3   OH238266   1.295   5.229   3.367 -0.0020 -0.0208 -0.0900
 5592TIP3    H138267   1.328   5.144   3.335 -1.4223 -0.6502  0.0278
 5592TIP3    H238268   1.310   5.226   3.461  0.9952  0.3559 -0.2278
 5593TIP3   OH238269   2.671   0.082  13.938 -0.7603  0.0341 -0.3207
 5593TIP3    H138270   2.745   0.057  13.883  0.3925 -0.4412  1.3408
 5593TIP3    H238271   2.691   0.171  13.967  0.0235 -0.6508  1.3895
 5594TIP3   OH238272   5.543   2.482   2.924 -0.1483  0.6833 -0.1271
 5594TIP3    H138273   5.504   2.518   3.003 -1.7729  0.1359 -0.6276
 5594TIP3    H238274   5.500   2.397   2.913  1.3310 -0.0308 -0.6516
 5595TIP3   OH238275   0.997   4.597  15.950  0.3064  0.3803 -0.0928
 5595TIP3    H138276   1.087   4.587  15.920  0.3918  0.2609  0.2068
 5595TIP3    H238277   0.975   4.689  15.930  0.5874  0.4872  0.0856
 5596TIP3   OH238278   4.318   2.598  16.548  0.4595 -0.3462  0.1840
 5596TIP3    H138279   4.293   2.672  16.603  0.8533  0.3734 -0.5852
 5596TIP3    H238280   4.413   2.594  16.554  0.3403 -3.0751  3.0936
 5597TIP3   OH238281   3.062   2.712  12.894  0.0456 -0.3389  0.0881
 5597TIP3    H138282   3.089   2.621  12.882 -1.2222 -0.7046 -0.0836
 5597TIP3    H238283   2.994   2.726  12.829  0.8733  1.0339 -0.5210
 5598TIP3   OH238284   2.907   3.925   5.227 -0.3379 -0.2594 -0.0498
 5598TIP3    H138285   2.879   3.834   5.236 -1.3116  0.0658  0.3053
 5598TIP3    H238286   2.850   3.974   5.286 -0.9382  0.7979 -1.4429
 5599TIP3   OH238287   5.953   2.998   3.810  0.6082  0.0783 -0.5605
 5599TIP3    H138288   5.973   2.964   3.897  1.5484 -0.5097 -0.9748
 5599TIP3    H238289   5.999   2.938   3.751  0.8432  1.0646 -1.4078
 5600TIP3   OH238290   0.994   2.239  15.236 -0.1141  0.6529 -0.0253
 5600TIP3    H138291   0.960   2.253  15.148 -1.3075  2.7678  0.7002
 5600TIP3    H238292   0.957   2.155  15.263 -0.6463  0.5217 -1.1076
 5601TIP3   OH238293   0.593   3.632  16.829  0.3481  0.5472 -0.3270
 5601TIP3    H138294   0.601   3.690  16.753  0.8883 -0.5684 -1.1399
 5601TIP3    H238295   0.660   3.664  16.890  0.7816  0.6673 -0.8513
 5602TIP3   OH238296   5.630   6.558   3.088  0.0989 -1.0153 -0.0224
 5602TIP3    H138297   5.652   6.469   3.060  0.6115 -0.8520 -0.1463
 5602TIP3    H238298   5.543   6.549   3.127  0.2702 -1.6261  0.2407
 5603TIP3   OH238299   2.842   5.973   2.967 -0.1951  0.8431 -0.1912
 5603TIP3    H138300   2.822   6.007   3.055 -0.3134  0.9799 -0.2697
 5603TIP3    H238301   2.773   5.908   2.952  0.2850  0.2525  0.1352
 5604TIP3   OH238302   3.292   6.712  15.025  0.3157  0.1620 -0.0580
 5604TIP3    H138303   3.224   6.779  15.025  0.0333 -0.0960 -1.0552
 5604TIP3    H238304   3.279   6.666  14.942  1.1089 -0.5068  0.1776
 5605TIP3   OH238305   4.119   5.311  16.057  1.1866  0.7513  0.2150
 5605TIP3    H138306   4.028   5.315  16.086  1.0667  0.9671 -0.1691
 5605TIP3    H238307   4.141   5.218  16.056  0.6321  0.6187 -0.6896
 5606TIP3   OH238308   2.939   2.892   4.681 -0.9448 -0.4215  0.3135
 5606TIP3    H138309   2.860   2.847   4.651 -0.1455 -2.1820  0.7601
 5606TIP3    H238310   2.960   2.953   4.610 -1.5855 -1.3612 -0.7157
 5607TIP3   OH238311   3.545   4.517   0.242  0.3144 -0.0433  0.3385
 5607TIP3    H138312   3.478   4.457   0.209 -0.5596  0.8517  0.4084
 5607TIP3    H238313   3.545   4.588   0.177  1.9299 -0.5064 -0.2037
 5608TIP3   OH238314   3.662   2.909  10.832 -0.2345 -0.5012  0.4216
 5608TIP3    H138315   3.708   2.992  10.848 -1.0100  0.1972 -0.8524
 5608TIP3    H238316   3.590   2.909  10.896  1.1261 -1.3498  2.0569
 5609TIP3   OH238317   0.255   2.210  11.258 -0.4505 -0.3634  0.0959
 5609TIP3    H138318   0.348   2.223  11.277 -0.5235 -0.8858  0.8869
 5609TIP3    H238319   0.253   2.182  11.167  0.1293  0.0945 -0.0628
 5610TIP3   OH238320   0.340   2.985   1.162 -0.0992 -0.0784 -0.0319
 5610TIP3    H138321   0.435   2.980   1.159 -0.1624 -1.6340 -0.9386
 5610TIP3    H238322   0.314   3.012   1.073 -0.4948  0.9296  0.3755
 5611TIP3   OH238323   0.164   0.043  12.210  0.0735  0.3732  0.2492
 5611TIP3    H138324   0.241   0.029  12.154  0.2576 -3.0796  1.1210
 5611TIP3    H238325   0.196   0.094  12.284  1.8965 -1.8811  1.1228
 5612TIP3   OH238326   5.745   1.537  12.808  0.1051  0.0753  0.4341
 5612TIP3    H138327   5.805   1.470  12.776  1.2035  0.8141  0.9055
 5612TIP3    H238328   5.658   1.502  12.787  0.6810 -0.9682 -0.3471
 5613TIP3   OH238329   1.851   4.651   4.023  0.6207  0.4924  0.2404
 5613TIP3    H138330   1.765   4.637   3.983  0.3895 -1.3283  1.2970
 5613TIP3    H238331   1.911   4.656   3.948 -0.1355 -0.2254 -0.4386
 5614TIP3   OH238332   2.984   3.028   2.820  0.6562  0.2855  0.1762
 5614TIP3    H138333   3.048   3.098   2.832  1.1870 -0.0576 -0.5837
 5614TIP3    H238334   2.901   3.065   2.851  0.5548  1.8419 -1.8084
 5615TIP3   OH238335   1.456   0.453   1.499  1.2523 -0.0225 -0.8995
 5615TIP3    H138336   1.473   0.539   1.460 -0.9244  0.4107 -1.0106
 5615TIP3    H238337   1.404   0.407   1.434 -0.6870 -0.0455  0.5688
 5616TIP3   OH238338   5.795   0.655   0.364  0.4414  0.1164 -0.4517
 5616TIP3    H138339   5.736   0.655   0.289  0.6657 -1.3252 -0.6597
 5616TIP3    H238340   5.882   0.661   0.326  0.5940 -1.2483 -0.3834
 5617TIP3   OH238341   0.129   0.157  11.776 -0.5044 -0.1030 -0.0256
 5617TIP3    H138342   0.137   0.249  11.751  0.9983  0.5526  2.4940
 5617TIP3    H238343   0.087   0.159  11.862  2.5523 -1.4187  1.6638
 5618TIP3   OH238344   1.245   0.697   5.023 -0.0732  0.1873  0.0582
 5618TIP3    H138345   1.334   0.679   5.053 -0.4826  0.9253  1.8524
 5618TIP3    H238346   1.254   0.773   4.966  0.5351 -0.2738 -0.4818
 5619TIP3   OH238347   0.318   0.004   5.051  0.3465  0.3911 -0.3877
 5619TIP3    H138348   0.383  -0.050   5.006 -0.6127  0.2758 -1.6814
 5619TIP3    H238349   0.284   0.062   4.983  0.7779  2.1086  0.8024
 5620TIP3   OH238350   4.894   6.852  16.507  0.0441  0.2516 -0.7951
 5620TIP3    H138351   4.854   6.889  16.428  2.3584  0.8307 -1.7841
 5620TIP3    H238352   4.989   6.858  16.491  0.6948  1.9839  2.7263
 5621TIP3   OH238353   2.760   4.672   2.765  0.9889 -0.2487  0.1205
 5621TIP3    H138354   2.679   4.646   2.809  1.7759 -1.0276  1.1881
 5621TIP3    H238355   2.771   4.608   2.695 -1.2958  2.1293 -2.6900
 5622TIP3   OH238356   3.813   0.915  16.125 -0.5929  0.2033  0.0954
 5622TIP3    H138357   3.817   0.835  16.073  1.9462  0.0386  0.4433
 5622TIP3    H238358   3.751   0.971  16.078 -1.3601 -1.4231 -0.9080
 5623TIP3   OH238359   3.043   2.421  11.514  0.0245 -0.4734 -0.1870
 5623TIP3    H138360   3.050   2.494  11.575 -0.6056 -0.4287 -0.1580
 5623TIP3    H238361   3.100   2.444  11.441 -2.4761  1.5428 -1.6476
 5624TIP3   OH238362   5.974   5.564   6.362  0.1844 -0.3594 -0.0664
 5624TIP3    H138363   6.048   5.625   6.354 -0.1090  0.0622  0.3958
 5624TIP3    H238364   5.896   5.618   6.349 -0.0344 -0.9246 -1.2506
 5625TIP3   OH238365   4.491   5.497  10.988  0.5598  0.0147  0.0110
 5625TIP3    H138366   4.498   5.402  10.988  1.4808  0.0648 -1.1864
 5625TIP3    H238367   4.497   5.522  10.896  1.2074  1.2925  0.3759
 5626TIP3   OH238368   5.579   0.802   1.320 -0.1624 -0.1077  0.8532
 5626TIP3    H138369   5.660   0.851   1.306  0.4263 -1.5091 -1.1236
 5626TIP3    H238370   5.521   0.830   1.249 -0.3181 -1.2128  0.5276
 5627TIP3   OH238371   0.017   1.653   5.834 -0.2279 -0.2496  0.0995
 5627TIP3    H138372   0.011   1.593   5.908  2.2740 -1.0893 -0.2782
 5627TIP3    H238373  -0.006   1.738   5.871 -1.4324 -1.0183  1.2259
 5628TIP3   OH238374   5.550   1.306  16.731  0.9140  0.0425 -0.0756
 5628TIP3    H138375   5.632   1.267  16.701  0.6545  1.3514 -2.7742
 5628TIP3    H238376   5.570   1.398  16.745  0.1629  0.1369  0.4543
 5629TIP3   OH238377   4.541   2.721   3.914  0.1868  0.3373 -0.5339
 5629TIP3    H138378   4.540   2.730   3.819 -0.6877 -0.1034 -0.5746
 5629TIP3    H238379   4.473   2.781   3.945  1.1933  1.2849 -0.0983
 5630TIP3   OH238380   4.815   6.713   2.491  0.1048 -0.0930 -0.1822
 5630TIP3    H138381   4.770   6.710   2.575  0.0574  0.0630 -0.2011
 5630TIP3    H238382   4.788   6.632   2.447  1.3883 -0.9576  0.5819
 5631TIP3   OH238383   5.043   3.063  12.999 -0.5947  0.4193 -0.2636
 5631TIP3    H138384   5.044   3.113  12.917 -0.5669  1.8631  0.5962
 5631TIP3    H238385   5.130   3.074  13.035  0.1799 -2.1460 -1.1142
 5632TIP3   OH238386   2.878   6.435   3.710  0.0161  0.7661  0.3700
 5632TIP3    H138387   2.912   6.419   3.622  1.9754  1.0305  1.0167
 5632TIP3    H238388   2.857   6.528   3.711 -1.2141  0.5068 -0.1791
 5633TIP3   OH238389   0.401   4.842  16.109  0.2412 -0.2010  0.1288
 5633TIP3    H138390   0.432   4.927  16.140 -0.3305  0.4865 -1.1203
 5633TIP3    H238391   0.387   4.791  16.189  0.9731  0.7340  0.8738
 5634TIP3   OH238392   1.816   1.746   3.045 -0.0916 -0.4199 -0.0200
 5634TIP3    H138393   1.728   1.721   3.017 -0.3875 -2.0137  2.0867
 5634TIP3    H238394   1.824   1.710   3.133  2.0181  1.2855  0.5703
 5635TIP3   OH238395   0.152   4.000  12.867 -0.2636 -0.1462 -0.5313
 5635TIP3    H138396   0.196   4.035  12.944 -0.5544  0.7296 -0.7468
 5635TIP3    H238397   0.116   3.916  12.895 -0.4445  0.2063  0.3156
 5636TIP3   OH238398   5.089   3.423   4.415 -0.4071  0.4021  0.3223
 5636TIP3    H138399   5.056   3.353   4.470  0.4779  0.6563  1.2121
 5636TIP3    H238400   5.018   3.442   4.355 -2.4630  1.8529  2.9969
 5637TIP3   OH238401   3.748   1.832   4.923 -1.1252 -0.0356 -0.0688
 5637TIP3    H138402   3.766   1.822   4.829  2.8764 -0.6089  0.5880
 5637TIP3    H238403   3.712   1.747   4.950  2.1358 -1.6385 -0.3545
 5638TIP3   OH238404   3.804   1.467  16.581  0.0956 -0.1761  0.3088
 5638TIP3    H138405   3.838   1.433  16.663  0.0678 -1.3960 -0.1626
 5638TIP3    H238406   3.879   1.466  16.522  0.2817  1.3193  0.4699
 5639TIP3   OH238407   4.242   1.440  14.685 -0.0430 -0.1998  0.5064
 5639TIP3    H138408   4.327   1.447  14.728 -0.1834 -1.1511  0.9900
 5639TIP3    H238409   4.261   1.441  14.592  0.2606  2.0231  0.5497
 5640TIP3   OH238410   4.078   5.703  16.221 -0.4808 -0.4379 -0.0403
 5640TIP3    H138411   4.150   5.741  16.171 -1.5404  0.5620 -0.8839
 5640TIP3    H238412   4.010   5.687  16.156 -2.0263  1.1995  1.0696
 5641TIP3   OH238413   1.747   6.242   3.825  0.4281  0.2294  0.4127
 5641TIP3    H138414   1.653   6.248   3.840  0.4993 -2.1294  2.2413
 5641TIP3    H238415   1.782   6.323   3.863 -0.6177 -0.1848  2.3768
 5642TIP3   OH238416   1.310   2.126  14.926  0.0389  0.1060 -0.1542
 5642TIP3    H138417   1.250   2.170  14.866  0.5215 -0.4639 -1.0832
 5642TIP3    H238418   1.286   2.033  14.920  0.6065 -0.0518 -0.0613
 5643TIP3   OH238419   6.130   3.899  16.638 -0.1344 -0.3067  0.3760
 5643TIP3    H138420   6.223   3.876  16.645  0.2060  0.6926 -0.6085
 5643TIP3    H238421   6.088   3.850  16.709  1.2385 -0.2733  1.2499
 5644TIP3   OH238422   2.983   5.086   0.741  0.3889 -0.0556 -0.6030
 5644TIP3    H138423   2.985   5.141   0.663  0.9953  1.7974  0.6524
 5644TIP3    H238424   3.075   5.059   0.753  0.0525 -1.7052 -1.3960
 5645TIP3   OH238425   4.813   5.861   0.905 -0.0304 -0.6787 -0.1241
 5645TIP3    H138426   4.835   5.818   0.987  0.0991 -0.9516 -0.2992
 5645TIP3    H238427   4.864   5.813   0.839  0.9425  0.4020 -0.1986
 5646TIP3   OH238428   4.205   2.197   2.555 -0.0622  0.2701  0.6254
 5646TIP3    H138429   4.160   2.270   2.511  0.5547  0.9463  1.0956
 5646TIP3    H238430   4.175   2.119   2.508  0.4224  0.9466 -0.8689
 5647TIP3   OH238431   5.513   0.782  12.316 -0.2557  0.2308 -0.3380
 5647TIP3    H138432   5.586   0.793  12.377  0.3647 -0.9583 -0.8421
 5647TIP3    H238433   5.451   0.851  12.340  0.3297  0.2719  1.1075
 5648TIP3   OH238434   1.699   2.884  15.988 -0.2122  0.5716  0.1044
 5648TIP3    H138435   1.720   2.810  15.930 -0.4687 -0.4243  1.2594
 5648TIP3    H238436   1.783   2.929  15.999 -0.4795  1.8888 -2.4858
 5649TIP3   OH238437   5.387   3.240  13.285 -0.2823  0.1799 -0.5314
 5649TIP3    H138438   5.419   3.298  13.216 -0.8115  0.3341 -0.6554
 5649TIP3    H238439   5.456   3.242  13.352  0.1416  0.1874 -0.9648
 5650TIP3   OH238440   6.284   5.163  12.195  0.1427  0.8940 -0.2024
 5650TIP3    H138441   6.289   5.195  12.105 -1.7331  0.6176 -0.4551
 5650TIP3    H238442   6.281   5.068  12.185 -0.9936  0.8934  0.0753
 5651TIP3   OH238443   4.864   1.839   5.452 -0.4178  0.3010 -0.9155
 5651TIP3    H138444   4.781   1.828   5.498  0.8761 -2.5500  0.9703
 5651TIP3    H238445   4.859   1.778   5.378  0.7002 -1.5025  0.4136
 5652TIP3   OH238446   6.436   0.275   1.314 -0.2489  0.0559 -0.1014
 5652TIP3    H138447   6.461   0.339   1.381 -1.0203 -1.3919  1.6660
 5652TIP3    H238448   6.358   0.313   1.273  1.1694  1.7243 -1.4130
 5653TIP3   OH238449   4.775   4.031  13.597  0.1991  0.2639 -0.0672
 5653TIP3    H138450   4.748   3.957  13.542  2.0971  0.0293 -0.7633
 5653TIP3    H238451   4.839   4.078  13.543  0.8532  0.9972  1.3044
 5654TIP3   OH238452   5.422   5.821   0.816 -0.5361  0.0898  0.2093
 5654TIP3    H138453   5.334   5.789   0.796 -0.6660  0.6210 -0.1087
 5654TIP3    H238454   5.408   5.895   0.875 -0.3575  0.6765 -0.4710
 5655TIP3   OH238455   0.930   3.895  12.325  0.3164 -0.5787 -0.4502
 5655TIP3    H138456   0.850   3.939  12.294 -0.6406 -3.4236 -2.3941
 5655TIP3    H238457   0.899   3.826  12.383  1.7352  0.6486  1.9395
 5656TIP3   OH238458   5.402   5.212  15.347 -0.2062  0.9898 -0.3888
 5656TIP3    H138459   5.380   5.161  15.425 -0.1848  0.6753 -0.5851
 5656TIP3    H238460   5.354   5.294  15.358 -0.1903  0.9563 -0.0375
 5657TIP3   OH238461   5.146   5.988  13.445 -0.0220 -0.0242  0.3516
 5657TIP3    H138462   5.157   6.048  13.518  0.2074  2.0681 -1.2915
 5657TIP3    H238463   5.077   6.029  13.391  0.7021 -0.8013 -1.2299
 5658TIP3   OH238464   5.908   5.295   3.032 -0.5041 -0.1402  0.6178
 5658TIP3    H138465   5.990   5.302   3.079  0.9712 -1.2061 -1.6276
 5658TIP3    H238466   5.878   5.205   3.049 -0.3851 -0.2630  0.1837
 5659TIP3   OH238467   2.377   3.523  10.809  0.2911 -0.5992  0.2123
 5659TIP3    H138468   2.429   3.491  10.883 -0.5043 -2.1100  0.1504
 5659TIP3    H238469   2.287   3.496  10.828 -0.2379  0.5779 -0.4492
 5660TIP3   OH238470   1.389   5.358  13.877 -0.3303  0.3988 -0.1113
 5660TIP3    H138471   1.330   5.380  13.805 -0.6892  1.3054  0.4562
 5660TIP3    H238472   1.336   5.367  13.956  1.0542  3.2809  0.6074
 5661TIP3   OH238473   5.190   4.439  15.193 -0.0754 -0.4199  0.0185
 5661TIP3    H138474   5.205   4.345  15.203  1.3157 -0.1307  0.8421
 5661TIP3    H238475   5.274   4.480  15.212  0.0058  0.8912 -2.6556
 5662TIP3   OH238476   0.484   2.956  12.253  0.4752 -0.1751 -0.1736
 5662TIP3    H138477   0.391   2.945  12.271  1.0345 -1.9997  2.1381
 5662TIP3    H238478   0.525   2.954  12.340  2.4934  3.2534 -0.8735
 5663TIP3   OH238479   6.164   3.965  12.496 -0.8077 -0.1194 -0.9150
 5663TIP3    H138480   6.107   4.030  12.454 -0.2607  0.3784 -0.9009
 5663TIP3    H238481   6.215   4.016  12.559 -0.5731 -0.6158 -0.7044
 5664TIP3   OH238482   2.777   6.761   0.965  0.0451 -0.9060 -0.1032
 5664TIP3    H138483   2.753   6.842   1.011  0.6166 -1.4271  1.1603
 5664TIP3    H238484   2.858   6.783   0.919  1.7401 -1.4150  2.4002
 5665TIP3   OH238485   4.503   5.442   0.016  0.5791  0.2521  0.0809
 5665TIP3    H138486   4.429   5.493  -0.019 -1.2507 -2.2036  0.0738
 5665TIP3    H238487   4.474   5.415   0.103  1.8023 -0.1673  0.3738
 5666TIP3   OH238488   3.499   5.946  14.906 -0.2401 -0.0625 -0.3160
 5666TIP3    H138489   3.477   5.870  14.852 -1.4629  0.5163 -0.6605
 5666TIP3    H238490   3.516   5.909  14.993 -2.7125 -0.5864  0.0071
 5667TIP3   OH238491   4.245   4.423   4.363  0.3841  0.4569 -0.2365
 5667TIP3    H138492   4.250   4.398   4.455  0.1506  0.5275 -0.2036
 5667TIP3    H238493   4.238   4.340   4.316 -0.5907  0.4548 -0.1124
 5668TIP3   OH238494   6.436   2.844   4.415 -0.7646 -0.1085  0.3887
 5668TIP3    H138495   6.367   2.783   4.441 -0.2274 -0.5139  0.9006
 5668TIP3    H238496   6.425   2.919   4.473 -0.7886 -0.1709  0.4660
 5669TIP3   OH238497   0.527   4.003  14.165  0.3541 -0.4784  0.1972
 5669TIP3    H138498   0.608   3.956  14.185  1.4065  1.3927  0.5415
 5669TIP3    H238499   0.531   4.082  14.219 -1.2242  0.1474 -0.5354
 5670TIP3   OH238500   4.125   0.622   5.648 -0.0032 -0.3205  0.6102
 5670TIP3    H138501   4.185   0.548   5.640  0.2310 -0.2597  1.6970
 5670TIP3    H238502   4.180   0.696   5.674 -0.3066  0.1298  0.0028
 5671TIP3   OH238503   4.751   1.290   1.582  0.1125 -0.5031  0.3880
 5671TIP3    H138504   4.719   1.380   1.588  0.1256 -0.5496  1.1952
 5671TIP3    H238505   4.769   1.278   1.488 -0.1624  0.2346  0.2302
 5672TIP3   OH238506   6.646   3.278   3.076  0.1378 -0.3289 -0.0818
 5672TIP3    H138507   6.572   3.285   3.135 -0.3815 -1.1332 -0.6249
 5672TIP3    H238508   6.700   3.355   3.096  0.0361 -0.6319  1.5008
 5673TIP3   OH238509   5.650   3.625   2.856  0.1947 -0.1309  0.1457
 5673TIP3    H138510   5.581   3.668   2.806 -0.8760 -1.4763  0.4075
 5673TIP3    H238511   5.635   3.531   2.843  0.5750 -0.5034  2.0579
 5674TIP3   OH238512   4.564   2.775  11.762  0.4380 -0.2498 -0.2070
 5674TIP3    H138513   4.584   2.852  11.707  1.1790 -1.0890 -1.1559
 5674TIP3    H238514   4.491   2.732  11.718 -0.1088  0.0081  0.4341
 5675TIP3   OH238515   0.257   5.375   3.042 -0.4895 -0.4564  0.3348
 5675TIP3    H138516   0.244   5.456   2.993  0.0999 -1.2129 -1.1464
 5675TIP3    H238517   0.187   5.317   3.011  1.4711 -1.8750 -1.7766
 5676TIP3   OH238518   5.122   6.595  12.553  0.4784  0.0470 -0.7595
 5676TIP3    H138519   5.043   6.638  12.520  0.4311  1.1744  0.7133
 5676TIP3    H238520   5.099   6.502  12.556 -0.8771  0.3726 -0.1738
 5677TIP3   OH238521   4.146   3.527   5.005 -0.0066  0.0293 -0.0666
 5677TIP3    H138522   4.164   3.544   4.913  1.7503 -0.1281  0.2147
 5677TIP3    H238523   4.156   3.432   5.014 -2.2853 -0.2853 -0.0979
 5678TIP3   OH238524   6.342   2.597   1.976 -0.7199 -0.0075 -0.4426
 5678TIP3    H138525   6.325   2.681   2.017  2.0512 -0.3259  1.6190
 5678TIP3    H238526   6.435   2.580   1.993 -0.8917 -2.9309 -1.8296
 5679TIP3   OH238527   5.164   6.488  10.529  0.2647  0.3341  0.3344
 5679TIP3    H138528   5.165   6.581  10.548  0.1863  0.3898  0.0727
 5679TIP3    H238529   5.226   6.476  10.457 -0.3447  0.3193 -0.2071
 5680TIP3   OH238530   5.108   2.634   1.805  0.1135 -0.3776 -0.3563
 5680TIP3    H138531   5.126   2.650   1.898  0.6474  1.0691 -0.6801
 5680TIP3    H238532   5.165   2.561   1.782 -1.6205 -2.2368  0.9534
 5681TIP3   OH238533   3.395   2.531   1.662 -0.0351  0.0975 -0.3311
 5681TIP3    H138534   3.339   2.537   1.585 -0.4071  1.1219 -0.0005
 5681TIP3    H238535   3.478   2.570   1.635 -0.6603  1.9490  0.1890
 5682TIP3   OH238536   2.048   1.801   2.323  0.1683  0.8087  0.0338
 5682TIP3    H138537   2.073   1.710   2.305 -0.8237  0.5852 -0.3264
 5682TIP3    H238538   2.111   1.831   2.389  0.6322 -0.0787  0.0113
 5683TIP3   OH238539   6.617   2.071  12.996 -0.1518  0.2325  0.1815
 5683TIP3    H138540   6.589   2.007  13.062 -1.2213  0.9135  0.4067
 5683TIP3    H238541   6.656   2.018  12.927  0.9544 -0.5009  1.3203
 5684TIP3   OH238542   6.525   3.659   0.327 -0.2474  0.1035 -0.1057
 5684TIP3    H138543   6.584   3.691   0.259 -0.1912  0.4925  0.1246
 5684TIP3    H238544   6.491   3.577   0.292  1.4540 -0.8350  0.3298
 5685TIP3   OH238545   1.694   4.471  13.314  0.2492  0.9209 -0.1327
 5685TIP3    H138546   1.600   4.460  13.300  0.1599  1.0781  0.3237
 5685TIP3    H238547   1.718   4.548  13.261 -0.0427  1.3892  0.4127
 5686TIP3   OH238548   1.253   2.308  15.450  0.0061  0.2578  0.2032
 5686TIP3    H138549   1.253   2.241  15.518  0.4813 -0.5185 -0.5403
 5686TIP3    H238550   1.279   2.262  15.370 -1.7157  0.8911 -0.7827
 5687TIP3   OH238551   1.875   4.068  10.315  0.2550  0.1420  0.0046
 5687TIP3    H138552   1.808   4.000  10.311  0.0013  0.2145  2.0047
 5687TIP3    H238553   1.954   4.026  10.284 -0.2806 -0.5504 -0.4482
 5688TIP3   OH238554   5.943   5.299   4.607 -0.1388  0.1975  0.3827
 5688TIP3    H138555   6.018   5.359   4.608 -1.2605  1.6502  0.2779
 5688TIP3    H238556   5.945   5.260   4.520  1.5399 -1.2075  0.9841
 5689TIP3   OH238557   1.660   4.036   5.173  0.4258 -0.1478 -0.0499
 5689TIP3    H138558   1.724   3.985   5.223  0.6133  0.7361  0.6567
 5689TIP3    H238559   1.682   4.127   5.194 -0.6452  0.1846 -0.3282
 5690TIP3   OH238560   2.033   0.905   3.219 -0.2575 -0.1623  0.1954
 5690TIP3    H138561   1.990   0.844   3.159  2.3962 -2.2041  0.1254
 5690TIP3    H238562   2.013   0.871   3.306 -2.2304  1.4483  0.4177
 5691TIP3   OH238563   1.228   6.091  12.988 -0.1863  0.5875 -0.0801
 5691TIP3    H138564   1.310   6.115  12.944  0.9411 -0.2093  1.4688
 5691TIP3    H238565   1.205   6.006  12.951 -0.7721  1.1686 -1.0873
 5692TIP3   OH238566   1.590   4.100   3.075 -0.3615  0.2498 -0.4559
 5692TIP3    H138567   1.586   4.090   2.980 -0.0381 -0.7439 -0.3692
 5692TIP3    H238568   1.616   4.015   3.107  0.7670  0.9147  0.4447
 5693TIP3   OH238569   5.416   0.011  10.724  0.0602  0.0283  0.3382
 5693TIP3    H138570   5.350   0.077  10.704 -1.0142 -1.2243 -0.3935
 5693TIP3    H238571   5.375  -0.072  10.700  1.7070 -0.8349  0.3715
 5694TIP3   OH238572   3.861   0.756  12.915 -0.1944  0.2186  0.5590
 5694TIP3    H138573   3.823   0.742  12.829 -1.5079  0.7096  1.0341
 5694TIP3    H238574   3.944   0.801  12.898 -0.2898  0.0310 -0.4538
 5695TIP3   OH238575   1.725   4.594   0.070 -0.2220 -0.1156 -0.6637
 5695TIP3    H138576   1.784   4.656   0.112 -1.9012  0.8775  0.3235
 5695TIP3    H238577   1.783   4.533   0.024  1.4860  2.1845 -1.7271
 5696TIP3   OH238578   2.290   1.063   4.959 -0.2216 -0.1227  0.2725
 5696TIP3    H138579   2.196   1.070   4.941  0.2876  4.1990 -1.9347
 5696TIP3    H238580   2.328   1.029   4.878  0.2326 -1.4464  1.0095
 5697TIP3   OH238581   5.939   4.979  15.605  0.1945  0.1771 -0.3039
 5697TIP3    H138582   5.859   4.972  15.657  1.0486  0.5638  1.1148
 5697TIP3    H238583   5.908   4.996  15.516 -1.3012  0.5894  0.2592
 5698TIP3   OH238584   0.206   4.232   2.582  0.2756  0.0984 -0.0337
 5698TIP3    H138585   0.241   4.148   2.551  1.3307  0.7882 -0.7829
 5698TIP3    H238586   0.149   4.209   2.655  1.8375 -1.1395  0.8617
 5699TIP3   OH238587   4.902   4.185   0.010  0.1099 -0.2318 -0.0095
 5699TIP3    H138588   4.863   4.179   0.097  0.4801  0.4602  0.2185
 5699TIP3    H238589   4.894   4.278  -0.014 -0.0029 -0.4147 -0.7220
 5700TIP3   OH238590   1.476   2.288  16.513 -0.2548  0.4673 -0.1310
 5700TIP3    H138591   1.531   2.244  16.448 -1.1477  1.0205 -1.3110
 5700TIP3    H238592   1.509   2.377  16.516  0.8507  0.0445  1.4495
 5701TIP3   OH238593   4.936   6.178  14.800  0.3198  0.5569 -0.1239
 5701TIP3    H138594   4.903   6.134  14.878 -0.2860  1.5895  0.2214
 5701TIP3    H238595   4.896   6.132  14.726  0.8908 -0.4207  0.1608
 5702TIP3   OH238596   6.793   2.903   0.536 -0.0662  0.3292  0.0016
 5702TIP3    H138597   6.819   2.924   0.626 -3.2713  0.1406  1.0819
 5702TIP3    H238598   6.746   2.820   0.543 -2.4725  1.4688 -1.3925
 5703TIP3   OH238599   3.830   4.097   5.805 -0.3642  0.3089  0.8640
 5703TIP3    H138600   3.849   4.005   5.826  3.0795  1.0210  1.5346
 5703TIP3    H238601   3.802   4.135   5.889  1.1153  0.4523  1.3205
 5704TIP3   OH238602   3.256   3.254  13.307 -0.4438  0.0638  0.5799
 5704TIP3    H138603   3.204   3.323  13.265 -1.4428 -2.3633 -2.6951
 5704TIP3    H238604   3.333   3.245  13.251 -0.4430 -1.5107  0.7815
 5705TIP3   OH238605   4.634   3.969  12.616 -0.8205  0.0420  0.3639
 5705TIP3    H138606   4.668   3.993  12.530  1.8648 -1.3602  0.9384
 5705TIP3    H238607   4.582   3.890  12.599  1.8853 -1.8460  0.2575
 5706TIP3   OH238608   3.132   6.646  11.490  0.0526  0.7389 -0.5990
 5706TIP3    H138609   3.056   6.600  11.455  1.0220 -0.8509 -0.6767
 5706TIP3    H238610   3.193   6.577  11.516  1.2058  1.9626  0.0877
 5707TIP3   OH238611   0.836   1.007   2.465  1.0272  0.0166 -0.1705
 5707TIP3    H138612   0.829   1.094   2.427  0.7214 -1.0528 -2.7295
 5707TIP3    H238613   0.928   0.999   2.491  1.2053  0.8413 -0.5427
 5708TIP3   OH238614   0.639   0.663  16.945  0.0109 -0.6013 -0.3515
 5708TIP3    H138615   0.656   0.753  16.974  0.6097 -0.7712 -0.1556
 5708TIP3    H238616   0.698   0.610  16.998  1.6187 -0.8822 -2.3015
 5709TIP3   OH238617   4.570   5.424  16.540  0.2179 -0.0825  0.6176
 5709TIP3    H138618   4.613   5.417  16.626  1.3408 -1.4444 -0.0263
 5709TIP3    H238619   4.614   5.497  16.497  0.5191 -0.2055  0.7155
 5710TIP3   OH238620   0.771   2.705   3.608  0.4493  0.5065  0.1904
 5710TIP3    H138621   0.702   2.719   3.673  1.8119 -2.4862  2.4780
 5710TIP3    H238622   0.851   2.736   3.650  1.0500  0.5621 -0.9617
 5711TIP3   OH238623   2.819   5.282   5.537  0.5607  0.6942  0.2827
 5711TIP3    H138624   2.842   5.337   5.613  0.2248  1.4843 -0.1797
 5711TIP3    H238625   2.792   5.198   5.576  0.3380  1.1067  1.0458
 5712TIP3   OH238626   2.439   3.231  16.759 -0.5237  0.5847  0.7232
 5712TIP3    H138627   2.380   3.169  16.716  0.1518  1.7226 -2.0576
 5712TIP3    H238628   2.503   3.177  16.805 -1.2640 -0.7137  0.2618
 5713TIP3   OH238629   3.268   4.736   3.216 -0.3596  0.6065 -0.0424
 5713TIP3    H138630   3.333   4.668   3.234 -1.5157 -0.4082  0.4870
 5713TIP3    H238631   3.300   4.780   3.137  0.8048 -0.0432  0.0398
 5714TIP3   OH238632   5.827   4.973  13.466 -0.3540 -0.5575 -0.8736
 5714TIP3    H138633   5.848   4.931  13.382 -0.4553 -0.4178 -0.9709
 5714TIP3    H238634   5.751   5.028  13.446  2.6755  3.7540 -2.0869
 5715TIP3   OH238635   0.768   0.156  16.543 -0.2472 -0.1149 -0.6271
 5715TIP3    H138636   0.857   0.123  16.535 -0.1934  0.1203 -1.0022
 5715TIP3    H238637   0.719   0.084  16.583  0.1724 -0.1442 -0.1514
 5716TIP3   OH238638   3.121   5.809  16.400 -0.4319  0.4458 -0.0555
 5716TIP3    H138639   3.057   5.868  16.438 -1.5413 -1.3366  0.9732
 5716TIP3    H238640   3.204   5.857  16.407 -1.0332  1.3120  2.0965
 5717TIP3   OH238641   2.130   0.736   0.627 -0.7230 -0.0649  0.5824
 5717TIP3    H138642   2.174   0.668   0.679  1.0946  0.6182  0.0055
 5717TIP3    H238643   2.194   0.760   0.560 -2.3800  0.2651 -0.9650
 5718TIP3   OH238644   5.820   6.010  14.891  0.5788  0.0001 -0.3539
 5718TIP3    H138645   5.897   5.997  14.946 -0.3312  0.0549  0.9720
 5718TIP3    H238646   5.789   6.097  14.913 -1.8784 -1.2904  1.8323
 5719TIP3   OH238647   3.684   1.543  11.883 -0.2470  0.2058 -0.0388
 5719TIP3    H138648   3.631   1.558  11.962  0.3657  0.4914  0.3254
 5719TIP3    H238649   3.692   1.448  11.877 -0.3679  0.1801  0.1968
 5720TIP3   OH238650   0.583   2.872  10.805 -0.1677 -0.0485 -0.0472
 5720TIP3    H138651   0.584   2.923  10.724  0.7053 -0.4398 -0.3020
 5720TIP3    H238652   0.492   2.845  10.816 -0.4314  0.6398 -0.4958
 5721TIP3   OH238653   0.733   1.451   4.743 -0.2360 -0.2830  0.3364
 5721TIP3    H138654   0.697   1.495   4.820  0.0592 -0.6373  0.6793
 5721TIP3    H238655   0.687   1.367   4.741 -0.6164 -0.0677 -0.1724
 5722TIP3   OH238656   0.576   1.122  14.372  0.0465 -0.8661  0.0878
 5722TIP3    H138657   0.641   1.087  14.311  0.2658 -0.5387  0.1315
 5722TIP3    H238658   0.624   1.135  14.454 -0.2812 -1.4462  0.3796
 5723TIP3   OH238659   3.627   2.241   6.685  0.4707 -0.3364 -0.0366
 5723TIP3    H138660   3.677   2.227   6.765 -1.6314 -2.3945  1.0717
 5723TIP3    H238661   3.561   2.306   6.709  0.8152  0.2198 -0.5874
 5724TIP3   OH238662   2.276   2.908  12.614  0.5885  0.3704 -0.5572
 5724TIP3    H138663   2.279   2.867  12.701  2.3695 -0.1687 -0.8233
 5724TIP3    H238664   2.235   2.842  12.558  1.2204 -0.0880 -0.4933
 5725TIP3   OH238665   1.969   5.603   4.534  0.0725  0.4607 -0.2079
 5725TIP3    H138666   1.879   5.584   4.560 -0.4998  3.0027 -0.1068
 5725TIP3    H238667   1.961   5.651   4.452  1.4014  0.0409 -0.6152
 5726TIP3   OH238668   6.233   1.408   4.916 -0.0809 -0.3095  0.6708
 5726TIP3    H138669   6.177   1.332   4.934  1.2811 -1.1248  1.6511
 5726TIP3    H238670   6.298   1.408   4.987  0.9282  0.8275 -0.2002
 5727TIP3   OH238671   3.624   6.689   3.790 -0.3892 -1.3718 -0.0320
 5727TIP3    H138672   3.667   6.654   3.712  1.3280 -1.3256  0.8572
 5727TIP3    H238673   3.695   6.729   3.841 -1.2732 -2.3500  2.0794
 5728TIP3   OH238674   1.088   1.986  10.885 -0.3508  0.5173  0.0552
 5728TIP3    H138675   1.135   2.056  10.839 -1.6308  0.6383 -1.1298
 5728TIP3    H238676   1.036   2.031  10.951  0.7475  0.4261  1.0223
 5729TIP3   OH238677   3.285   1.374   3.603  0.3495  0.3588 -0.0404
 5729TIP3    H138678   3.289   1.305   3.537 -0.9548  0.6124 -0.4152
 5729TIP3    H238679   3.330   1.448   3.565  0.2847  0.2484 -0.3302
 5730TIP3   OH238680   4.602   3.140  12.921 -0.8437 -0.3230  0.5864
 5730TIP3    H138681   4.673   3.125  12.859 -0.1708 -0.6534  1.4122
 5730TIP3    H238682   4.529   3.170  12.867  0.6624  2.5529 -0.0612
 5731TIP3   OH238683   1.098   0.046   2.652 -0.1242 -0.4034 -0.2910
 5731TIP3    H138684   1.161   0.113   2.680 -0.4287  0.4648 -1.6092
 5731TIP3    H238685   1.151  -0.018   2.604  0.0198 -0.6435  0.1756
 5732TIP3   OH238686   0.085   1.863  11.061 -0.2051 -0.9930 -0.4746
 5732TIP3    H138687   0.034   1.863  10.981  0.3654  2.0990 -0.9754
 5732TIP3    H238688   0.149   1.793  11.049 -0.9656 -1.4524 -2.1306
 5733TIP3   OH238689   6.497   0.528   5.263 -0.1217 -0.4996 -0.4287
 5733TIP3    H138690   6.512   0.497   5.352  1.2651 -1.8400 -1.0835
 5733TIP3    H238691   6.569   0.589   5.246 -1.6353  1.5518  0.0951
 5734TIP3   OH238692   0.982   2.810  14.114 -0.1764  0.0136  0.4351
 5734TIP3    H138693   0.939   2.781  14.033  1.0347 -0.3438 -0.1154
 5734TIP3    H238694   1.056   2.863  14.083  0.6301 -0.5847  1.2848
 5735TIP3   OH238695   1.398   2.688   3.584 -0.9574 -0.1776 -0.0632
 5735TIP3    H138696   1.378   2.781   3.571 -3.0664 -0.7516 -1.4888
 5735TIP3    H238697   1.315   2.649   3.610 -0.4367 -1.8990 -0.8491
 5736TIP3   OH238698   5.379   3.349  16.558  0.0980 -0.1428 -0.4304
 5736TIP3    H138699   5.436   3.395  16.619  2.2209 -2.8527 -0.1523
 5736TIP3    H238700   5.336   3.282  16.611 -0.8220 -0.2412 -1.2719
 5737TIP3   OH238701   5.292   2.547   6.416 -0.2599  0.4934  0.5624
 5737TIP3    H138702   5.221   2.550   6.480 -0.9991 -1.6173 -0.0653
 5737TIP3    H238703   5.255   2.587   6.338 -0.4195  0.3380  0.5560
 5738TIP3   OH238704   3.712   3.202   3.852 -0.0037  0.2672 -0.4254
 5738TIP3    H138705   3.658   3.123   3.849 -0.6621  0.6569  0.5553
 5738TIP3    H238706   3.725   3.226   3.760 -1.5210  0.1661 -0.7023
 5739TIP3   OH238707   1.679   6.197  12.564  0.7952 -0.0456  0.0370
 5739TIP3    H138708   1.694   6.291  12.576  0.8197  0.0375 -0.6542
 5739TIP3    H238709   1.725   6.175  12.483 -0.8509 -0.2607 -0.8666
 5740TIP3   OH238710   3.910   1.625   5.313  0.2476 -0.4583  0.3129
 5740TIP3    H138711   3.874   1.690   5.374  0.2952 -1.0522  0.9866
 5740TIP3    H238712   3.922   1.674   5.231 -3.2937 -0.4825 -0.3855
 5741TIP3   OH238713   2.092   3.084   2.466  0.0688  0.3750  0.3014
 5741TIP3    H138714   2.129   3.058   2.550  1.4613 -0.4524 -0.5174
 5741TIP3    H238715   2.059   3.003   2.427 -0.9117  0.8089  0.2006
 5742TIP3   OH238716   5.175   5.441  14.138  0.6028 -0.6036  0.5938
 5742TIP3    H138717   5.083   5.445  14.113  0.2148  0.6737  2.0834
 5742TIP3    H238718   5.182   5.363  14.192  0.3027 -0.5080  0.7733
 5743TIP3   OH238719   5.506   4.149  15.966 -0.3975  0.1169  0.5279
 5743TIP3    H138720   5.422   4.106  15.981  0.1291 -1.3945 -0.6010
 5743TIP3    H238721   5.554   4.139  16.048 -0.7427 -0.3889  0.6714
 5744TIP3   OH238722   3.071   4.608   5.522  0.3224  0.3640 -0.1113
 5744TIP3    H138723   3.056   4.608   5.428  0.9882 -0.5526 -0.2290
 5744TIP3    H238724   3.132   4.535   5.537 -0.4255 -0.0368  1.1238
 5745TIP3   OH238725   4.569   0.707   3.643 -0.3473 -0.7598  0.3153
 5745TIP3    H138726   4.656   0.741   3.624 -0.2495 -1.4178 -0.4777
 5745TIP3    H238727   4.514   0.785   3.649  0.0038 -0.4167 -0.7521
 5746TIP3   OH238728   2.973   6.217  11.136 -0.0880  0.2114  0.1209
 5746TIP3    H138729   2.923   6.137  11.154 -1.2462  0.6932 -0.7872
 5746TIP3    H238730   2.916   6.288  11.166  1.1661  0.7008  1.4298
 5747TIP3   OH238731   1.381   6.145   6.140  0.4073  0.3260 -0.0920
 5747TIP3    H138732   1.425   6.085   6.079  1.1813 -2.0250  2.5360
 5747TIP3    H238733   1.452   6.199   6.175  0.1814  0.7889 -0.3478
 5748TIP3   OH238734   1.029   0.290   5.360 -0.0070 -0.5129 -0.4768
 5748TIP3    H138735   1.060   0.220   5.417  0.2223 -0.0420 -0.0251
 5748TIP3    H238736   1.108   0.338   5.335 -0.3436  0.7547  0.7689
 5749TIP3   OH238737   0.194   5.398  11.070 -0.0811  0.7172  0.0297
 5749TIP3    H138738   0.237   5.382  11.154 -0.4972  2.7116  0.6656
 5749TIP3    H238739   0.144   5.318  11.053  1.6581 -0.5559  0.5983
 5750TIP3   OH238740   0.587   5.831  12.503 -0.2780  0.5816 -0.3752
 5750TIP3    H138741   0.666   5.812  12.555 -0.8405 -0.0821  0.2502
 5750TIP3    H238742   0.559   5.746  12.469 -3.2191 -0.0424  3.0368
 5751TIP3   OH238743   1.696   3.719   1.686 -0.5154  0.0131  0.4652
 5751TIP3    H138744   1.699   3.811   1.657  0.3238 -0.0250  0.3874
 5751TIP3    H238745   1.655   3.723   1.772 -2.2090  0.2347 -0.3142
 5752TIP3   OH238746   4.173   5.358   0.181 -0.5304 -0.0417  0.1838
 5752TIP3    H138747   4.260   5.325   0.200 -0.0271  1.4654  0.6302
 5752TIP3    H238748   4.116   5.315   0.245  0.2451  0.6377  1.3468
 5753TIP3   OH238749   1.501   3.868  12.349 -0.7382  0.0490 -0.1535
 5753TIP3    H138750   1.489   3.845  12.441  2.0309 -0.3356  0.1835
 5753TIP3    H238751   1.478   3.961  12.344 -1.9675 -0.1878  0.6587
 5754TIP3   OH238752   6.594   4.396  11.371 -0.3985  0.1491  0.3311
 5754TIP3    H138753   6.611   4.380  11.463 -0.6922  2.0951  0.7819
 5754TIP3    H238754   6.511   4.352  11.353 -0.1583 -0.5409  0.8863
 5755TIP3   OH238755   0.881   1.974  13.255  0.3760 -0.2543  0.1701
 5755TIP3    H138756   0.972   1.974  13.284  0.0474  0.8288  1.2929
 5755TIP3    H238757   0.882   2.023  13.173  0.7971 -0.1235  0.2482
 5756TIP3   OH238758   1.491   5.929   2.947  0.1196 -0.8734 -0.1615
 5756TIP3    H138759   1.399   5.913   2.924  0.3718 -0.1265 -1.8715
 5756TIP3    H238760   1.539   5.864   2.896  0.6255 -0.2266 -0.5195
 5757TIP3   OH238761   1.244   0.344   4.123 -0.1510  0.0283  0.4771
 5757TIP3    H138762   1.278   0.433   4.110  1.5713 -0.4100  1.6407
 5757TIP3    H238763   1.231   0.337   4.218 -0.5626 -0.8697  0.3644
 5758TIP3   OH238764   0.906   1.163   1.915 -0.5753  0.3984  0.2015
 5758TIP3    H138765   0.884   1.071   1.929 -0.0580  0.3365  0.6342
 5758TIP3    H238766   0.849   1.190   1.843  1.7065 -1.2311 -2.4204
 5759TIP3   OH238767   6.410   2.444   3.091 -0.1184 -0.6459  0.1570
 5759TIP3    H138768   6.342   2.400   3.143 -1.0584  0.0478 -0.4523
 5759TIP3    H238769   6.361   2.504   3.035  1.0142 -0.1466 -0.3083
 5760TIP3   OH238770   1.383   4.736   4.779 -0.3950  0.3511  0.3098
 5760TIP3    H138771   1.381   4.831   4.764  0.3413  0.2944 -0.2048
 5760TIP3    H238772   1.296   4.716   4.812 -0.2997  1.3382  1.2518
 5761TIP3   OH238773   0.348   0.929  12.569 -0.1469 -0.1032 -0.1845
 5761TIP3    H138774   0.296   0.918  12.491 -1.1949  0.1379  0.4616
 5761TIP3    H238775   0.439   0.925  12.539 -0.5326  0.6354 -1.4957
 5762TIP3   OH238776   4.373   5.633   1.040 -0.0513  0.4209  0.6421
 5762TIP3    H138777   4.432   5.708   1.039 -0.1631  0.5064  0.4183
 5762TIP3    H238778   4.289   5.668   1.009  0.0269  0.0970  0.0570
 5763TIP3   OH238779   0.451   3.270   0.188 -0.1287  0.1279 -0.5066
 5763TIP3    H138780   0.361   3.240   0.182 -0.0426 -1.1545  2.4808
 5763TIP3    H238781   0.495   3.202   0.240  1.8373  2.0314  0.4904
 5764TIP3   OH238782   4.441   3.706  10.365  0.4702 -0.5950 -0.2110
 5764TIP3    H138783   4.471   3.619  10.393  0.9808 -0.9242 -1.6697
 5764TIP3    H238784   4.346   3.695  10.352  0.7054 -1.2754 -1.4962
 5765TIP3   OH238785   6.434   2.018   3.741  0.3585 -0.2086 -0.1521
 5765TIP3    H138786   6.468   1.984   3.658 -0.7977 -0.2615 -0.6243
 5765TIP3    H238787   6.452   1.948   3.805  0.7990 -0.3833 -0.4629
 5766TIP3   OH238788   6.078   6.675   4.756  0.1711  0.0814 -0.7588
 5766TIP3    H138789   6.109   6.746   4.700  0.7113  1.3963  1.0953
 5766TIP3    H238790   6.158   6.631   4.785  0.0888  0.9226  0.8262
 5767TIP3   OH238791   2.019   4.605   4.656  0.2578 -0.0883  0.2610
 5767TIP3    H138792   1.989   4.672   4.594 -2.0014 -0.8286  0.4628
 5767TIP3    H238793   2.082   4.553   4.606 -1.1755 -0.3886 -1.3139
 5768TIP3   OH238794   4.814   0.772  16.590  0.4610 -0.5636 -0.8782
 5768TIP3    H138795   4.725   0.748  16.564  0.1204 -0.0261 -0.2294
 5768TIP3    H238796   4.832   0.719  16.668  0.8244 -0.8788 -1.1662
 5769TIP3   OH238797   1.478   6.733  15.004 -0.1322 -0.1025 -0.1145
 5769TIP3    H138798   1.467   6.827  15.021 -0.5062 -0.3955  1.4393
 5769TIP3    H238799   1.443   6.691  15.082  0.4919 -1.5332 -0.5789
 5770TIP3   OH238800   6.226   1.777  11.181 -0.5957  0.2078 -0.3800
 5770TIP3    H138801   6.157   1.720  11.146 -2.1134  2.1397 -0.6932
 5770TIP3    H238802   6.178   1.848  11.224  1.2087 -0.1489  2.4917
 5771TIP3   OH238803   5.353   0.663   0.762  0.3578 -0.3355 -0.0400
 5771TIP3    H138804   5.275   0.688   0.812 -1.2805 -2.0771 -1.5693
 5771TIP3    H238805   5.352   0.568   0.761  1.3806 -0.3693 -1.7789
 5772TIP3   OH238806   2.738   3.528  17.021 -0.0809 -0.0681  0.0913
 5772TIP3    H138807   2.664   3.587  17.024 -1.2520 -1.3995 -1.1200
 5772TIP3    H238808   2.809   3.579  16.982 -0.6508  0.9166  0.3308
 5773TIP3   OH238809   5.025   0.513  14.626  0.0001 -0.2492  0.4554
 5773TIP3    H138810   5.030   0.513  14.531  1.9754  1.5376  0.4764
 5773TIP3    H238811   5.112   0.483  14.655  0.0726  1.0026  1.6468
 5774TIP3   OH238812   6.509   3.891   0.908  0.2016  0.2145 -0.6866
 5774TIP3    H138813   6.507   3.948   0.831 -2.1162  0.1882 -0.7161
 5774TIP3    H238814   6.506   3.802   0.873 -0.0736  0.1777 -0.5688
 5775TIP3   OH238815   2.392   4.032  16.836 -0.0815 -0.7656 -0.8332
 5775TIP3    H138816   2.459   4.091  16.802  0.4278 -1.3793 -0.9140
 5775TIP3    H238817   2.415   3.946  16.801  1.2114 -1.7025  1.9775
 5776TIP3   OH238818   2.313   0.393  15.340  0.5524 -0.4201 -0.3136
 5776TIP3    H138819   2.373   0.438  15.281  1.3188 -1.6155 -0.4703
 5776TIP3    H238820   2.350   0.407  15.427  0.2902  0.0122 -0.2699
 5777TIP3   OH238821   1.510   5.462  14.211 -0.5802  0.2542 -0.6404
 5777TIP3    H138822   1.472   5.408  14.142 -1.4306 -0.3174  0.2520
 5777TIP3    H238823   1.451   5.537  14.219 -0.8716 -0.0202 -0.0944
 5778TIP3   OH238824   3.356   2.443   4.914  0.2975 -0.8588 -0.1012
 5778TIP3    H138825   3.348   2.535   4.886 -2.9264 -1.4777 -1.6670
 5778TIP3    H238826   3.408   2.402   4.845  0.8519 -0.4540  0.0620
 5779TIP3   OH238827   1.783   0.069   0.701 -0.2498 -0.2849  0.3842
 5779TIP3    H138828   1.707   0.127   0.698  0.5147  0.7266 -0.2994
 5779TIP3    H238829   1.764   0.002   0.635 -0.1677  0.4774 -0.4410
 5780TIP3   OH238830   2.413   4.725   4.210  0.2780 -0.1477  0.4063
 5780TIP3    H138831   2.365   4.776   4.275 -0.7605  0.2342 -0.6165
 5780TIP3    H238832   2.344   4.687   4.155  1.1305 -0.0026 -0.8039
 5781TIP3   OH238833   5.831   5.862  14.061 -0.0088  0.5626 -0.1099
 5781TIP3    H138834   5.924   5.842  14.071  0.0562  0.7674 -0.3095
 5781TIP3    H238835   5.814   5.851  13.968 -0.3254 -0.0724  0.0168
 5782TIP3   OH238836   0.657   2.864   1.926 -0.0064 -0.1007 -0.1883
 5782TIP3    H138837   0.668   2.959   1.924 -0.7852 -0.0011 -0.1612
 5782TIP3    H238838   0.565   2.851   1.952  0.2280 -0.8628  0.3154
 5783TIP3   OH238839   4.607   5.227  10.549 -0.3676 -0.2553  0.6787
 5783TIP3    H138840   4.635   5.296  10.489  1.4708  1.3623  3.1663
 5783TIP3    H238841   4.536   5.267  10.600  0.5667 -0.1980  1.9925
 5784TIP3   OH238842   1.316   1.797  11.197 -0.1904 -0.2319  0.4722
 5784TIP3    H138843   1.269   1.765  11.121  2.0448  1.0520 -1.5946
 5784TIP3    H238844   1.262   1.869  11.231 -1.4120 -1.0938  0.4135
 5785TIP3   OH238845   2.668   5.721  15.018 -0.5230 -0.1338 -0.0518
 5785TIP3    H138846   2.760   5.695  15.019 -0.1407  1.0987 -0.7675
 5785TIP3    H238847   2.665   5.796  14.958 -2.1687 -0.7915 -0.8492
 5786TIP3   OH238848   1.372   3.375   0.336  0.1648 -0.4178  0.2795
 5786TIP3    H138849   1.340   3.463   0.356 -0.0403 -0.1498 -1.1798
 5786TIP3    H238850   1.467   3.382   0.344  0.2383  0.2630 -1.0236
 5787TIP3   OH238851   1.286   1.672   3.479  0.4498  0.6195  0.5174
 5787TIP3    H138852   1.260   1.579   3.476  3.1754 -0.3112  2.0250
 5787TIP3    H238853   1.365   1.672   3.532 -1.0111  4.2367  3.0778
 5788TIP3   OH238854   1.270   0.036  14.441  0.0004  0.1157 -0.1558
 5788TIP3    H138855   1.230  -0.006  14.517 -0.2668 -1.6456 -1.2211
 5788TIP3    H238856   1.236   0.126  14.443 -0.8552 -0.2110  1.1826
 5789TIP3   OH238857   1.761   1.605   2.740  0.4028  0.4200  0.2553
 5789TIP3    H138858   1.756   1.692   2.701 -2.6948  0.2855  0.0876
 5789TIP3    H238859   1.735   1.618   2.831 -0.2304 -0.3118  0.1922
 5790TIP3   OH238860   1.307   2.552  13.058 -0.4665  0.0962 -0.1947
 5790TIP3    H138861   1.233   2.556  12.998  0.0412 -0.0982 -0.8382
 5790TIP3    H238862   1.329   2.459  13.064 -0.1857  0.1652 -0.1178
 5791TIP3   OH238863   0.020   0.927  11.196 -0.0182  0.0829 -0.0328
 5791TIP3    H138864  -0.005   0.908  11.106  1.4823  1.1748 -0.7303
 5791TIP3    H238865  -0.027   1.008  11.217  0.4824  0.4361 -0.2464
 5792TIP3   OH238866   2.728   1.979  14.992 -0.3965  0.2426  0.2215
 5792TIP3    H138867   2.633   1.980  14.980 -0.8499  1.3113  3.2630
 5792TIP3    H238868   2.749   1.887  15.007 -0.8282 -0.0617 -0.8750
 5793TIP3   OH238869   3.909   2.455  14.129 -0.6464 -0.0383 -0.2462
 5793TIP3    H138870   3.946   2.478  14.044 -2.6722 -0.2312 -1.2394
 5793TIP3    H238871   3.909   2.537  14.179  0.8074  0.0164 -0.2994
 5794TIP3   OH238872   1.242   2.176   1.010 -0.4584  0.0026 -0.4626
 5794TIP3    H138873   1.191   2.102   1.044  0.0853  0.3095  1.0954
 5794TIP3    H238874   1.177   2.238   0.979 -1.0237  0.1344  0.9486
 5795TIP3   OH238875   2.902   0.131  13.310 -0.9565 -0.6523  0.1878
 5795TIP3    H138876   2.825   0.141  13.365  0.6654  1.8174  2.2374
 5795TIP3    H238877   2.968   0.092  13.368  0.3963  0.7274 -0.3547
 5796TIP3   OH238878   2.389   6.281   5.103 -0.4202 -0.0907  0.2887
 5796TIP3    H138879   2.364   6.200   5.148 -1.5965  0.1698  0.1230
 5796TIP3    H238880   2.350   6.272   5.016 -0.5100  0.6335  0.2531
 5797TIP3   OH238881   1.289   0.155   1.331  0.3105  0.2197  0.5777
 5797TIP3    H138882   1.384   0.157   1.321  0.2202 -1.0490 -0.7855
 5797TIP3    H238883   1.263   0.247   1.332  1.4742  0.5634  0.1434
 5798TIP3   OH238884   6.088   1.873  16.321  0.2275  0.7480  0.1635
 5798TIP3    H138885   6.066   1.956  16.280  0.9473  1.7153  1.6281
 5798TIP3    H238886   6.176   1.853  16.289 -0.4111 -0.1148 -1.1387
 5799TIP3   OH238887   4.164   0.485  14.043 -0.2833  0.0952  0.4346
 5799TIP3    H138888   4.084   0.535  14.064 -0.1766  0.1963  0.6016
 5799TIP3    H238889   4.133   0.397  14.025 -0.6554  0.5375 -1.2894
 5800TIP3   OH238890   0.313   3.691  15.774  0.3066  0.7704  0.0972
 5800TIP3    H138891   0.220   3.688  15.755  0.4323 -0.6469 -0.4147
 5800TIP3    H238892   0.320   3.740  15.856 -0.9089  0.5805  0.3209
 5801TIP3   OH238893   1.719   0.860  11.552  0.8828  0.3934  0.1133
 5801TIP3    H138894   1.755   0.869  11.464  2.2372  0.9299  0.6992
 5801TIP3    H238895   1.730   0.768  11.574  2.9998  0.7295  0.6963
 5802TIP3   OH238896   2.097   3.597   3.536 -0.1283 -0.7334 -0.3183
 5802TIP3    H138897   2.040   3.646   3.477  2.0974  0.5718 -1.5045
 5802TIP3    H238898   2.181   3.644   3.533  1.1596 -2.8003  0.9976
 5803TIP3   OH238899   5.960   4.639  13.520 -0.5369 -0.2328 -0.3365
 5803TIP3    H138900   5.985   4.731  13.532 -0.4714 -0.2701 -0.1834
 5803TIP3    H238901   5.929   4.612  13.606 -2.0304  0.0950 -0.7453
 5804TIP3   OH238902   5.988   5.191   2.451  0.3605 -0.5689  0.1453
 5804TIP3    H138903   6.038   5.183   2.370 -0.6915  1.8964 -0.8725
 5804TIP3    H238904   6.045   5.243   2.509 -0.1144  0.3589 -0.2040
 5805TIP3   OH238905   4.785   2.852  12.831 -0.3714  0.1945 -0.5098
 5805TIP3    H138906   4.699   2.811  12.835  0.3639 -1.4155 -0.5553
 5805TIP3    H238907   4.803   2.880  12.921 -0.5211 -0.3962 -0.2926
 5806TIP3   OH238908   5.593   2.217  17.081  0.2596 -0.0095  0.8070
 5806TIP3    H138909   5.574   2.128  17.051 -0.7466  1.0072 -1.9080
 5806TIP3    H238910   5.642   2.257  17.009  2.3102  1.1340  2.7256
 5807TIP3   OH238911   1.553   1.267   0.031 -0.2447 -0.0019 -0.0557
 5807TIP3    H138912   1.593   1.260   0.118 -0.9390  0.4735  0.3226
 5807TIP3    H238913   1.481   1.204   0.033  0.4983 -0.8885 -0.7456
 5808TIP3   OH238914   2.426   4.905   2.368  0.0327  0.9701  0.2106
 5808TIP3    H138915   2.448   4.979   2.425  0.5302  1.2237 -0.3067
 5808TIP3    H238916   2.480   4.833   2.400 -0.1769  0.9315  0.4785
 5809TIP3   OH238917   2.254   3.447   0.769 -0.5208 -0.1834 -0.2420
 5809TIP3    H138918   2.346   3.422   0.778 -0.2843  0.8535  0.3440
 5809TIP3    H238919   2.216   3.379   0.714  0.6859 -0.4167 -0.8188
 5810TIP3   OH238920   2.892   5.617  12.771 -0.1191 -0.3706  0.3975
 5810TIP3    H138921   2.879   5.523  12.761 -2.0997 -0.1447  0.5937
 5810TIP3    H238922   2.806   5.656  12.755  0.8569  1.4955 -0.6041
 5811TIP3   OH238923   3.027   3.494  16.613  0.0893 -0.4784  0.9029
 5811TIP3    H138924   3.115   3.526  16.593 -0.1395 -0.9794 -1.2395
 5811TIP3    H238925   3.017   3.417  16.556 -2.1562  0.2963  0.1543
 5812TIP3   OH238926   5.187   2.345  12.603  0.0673  0.0910 -0.2299
 5812TIP3    H138927   5.152   2.265  12.642 -0.4022 -0.1439 -1.0841
 5812TIP3    H238928   5.110   2.402  12.594  0.2891  0.3968 -0.1874
 5813TIP3   OH238929   2.774   4.069   1.242  0.0413  0.4904 -0.0160
 5813TIP3    H138930   2.682   4.059   1.265 -0.0288  0.3264 -0.3646
 5813TIP3    H238931   2.814   4.107   1.320 -0.3532  0.7223  0.0740
 5814TIP3   OH238932   3.276   3.730   1.822  0.5578 -0.3680  0.1448
 5814TIP3    H138933   3.302   3.822   1.836 -0.9773  0.1044  0.0746
 5814TIP3    H238934   3.343   3.695   1.764  0.8684  0.8817 -0.2844
 5815TIP3   OH238935   5.986   6.136   4.989  1.0039 -0.1324 -0.5766
 5815TIP3    H138936   5.970   6.200   5.058  0.5429 -0.5992 -0.2397
 5815TIP3    H238937   5.962   6.181   4.908  0.8612  0.1789 -0.3627
 5816TIP3   OH238938   4.647   4.029  15.974 -0.4372  0.3360  0.4808
 5816TIP3    H138939   4.732   4.066  15.997 -0.3015 -0.9520  2.2405
 5816TIP3    H238940   4.668   3.954  15.918 -0.7343  2.9839 -3.6278
 5817TIP3   OH238941   1.225   2.434  11.493  0.1375 -0.5887  0.1294
 5817TIP3    H138942   1.291   2.471  11.435 -0.8972 -1.2662 -1.5565
 5817TIP3    H238943   1.167   2.508  11.514  1.8079  0.1934  2.2716
 5818TIP3   OH238944   1.366   4.831  16.516 -0.6031  0.0719 -0.0727
 5818TIP3    H138945   1.284   4.871  16.544  0.3838  2.5797 -0.3993
 5818TIP3    H238946   1.432   4.870  16.574  0.3875 -1.9068  0.2062
 5819TIP3   OH238947   1.444   1.132   3.077  0.6671 -0.2036  0.6686
 5819TIP3    H138948   1.485   1.063   3.130 -1.8915  0.0646  3.2256
 5819TIP3    H238949   1.467   1.213   3.122  0.2912  0.2531  0.0450
 5820TIP3   OH238950   2.860   6.602   5.678  0.2468 -0.1160  0.4316
 5820TIP3    H138951   2.779   6.570   5.640  1.3659  0.6104 -2.8780
 5820TIP3    H238952   2.848   6.696   5.688  1.1010  0.2570 -1.5375
 5821TIP3   OH238953   6.565   6.245  15.435 -0.0522  0.6234  0.2191
 5821TIP3    H138954   6.496   6.278  15.378  1.7888  1.6132 -1.5567
 5821TIP3    H238955   6.646   6.263  15.388  1.3362 -3.6167  0.5745
 5822TIP3   OH238956   1.372   3.988  12.002  0.1065 -0.4233 -0.3587
 5822TIP3    H138957   1.432   3.932  11.952  0.4191  1.3646 -2.1060
 5822TIP3    H238958   1.351   4.060  11.942 -1.6862  0.4015  1.1743
 5823TIP3   OH238959   6.697   5.474   4.881 -0.5342 -0.3345  0.4467
 5823TIP3    H138960   6.632   5.537   4.912 -0.3411 -0.1360  0.4508
 5823TIP3    H238961   6.780   5.505   4.918  0.0984  1.1345 -1.9379
 5824TIP3   OH238962   2.273   0.366  11.724  0.3173  0.0600 -0.1725
 5824TIP3    H138963   2.262   0.407  11.638 -0.6141  2.1567  0.8551
 5824TIP3    H238964   2.366   0.345  11.729  0.7061  1.3957 -1.1221
 5825TIP3   OH238965   4.793   1.394   4.579  0.3637 -0.2423  0.2308
 5825TIP3    H138966   4.883   1.413   4.553  0.0835  1.0617  0.1560
 5825TIP3    H238967   4.761   1.335   4.510  0.8937 -0.0305 -0.2073
 5826TIP3   OH238968   3.455   0.771   4.366  0.2374  0.2753 -0.4355
 5826TIP3    H138969   3.483   0.862   4.361  0.3059  0.1810 -2.1511
 5826TIP3    H238970   3.389   0.762   4.297 -0.9278 -0.5926  0.7333
 5827TIP3   OH238971   4.927   0.108   2.650 -0.3118 -0.1355 -0.0870
 5827TIP3    H138972   4.963   0.036   2.598  0.2014 -0.9648  1.3576
 5827TIP3    H238973   4.992   0.178   2.642  0.2967 -0.6496  0.3103
 5828TIP3   OH238974   1.472   3.904  12.644 -0.5801  0.3075  1.0073
 5828TIP3    H138975   1.461   3.855  12.726  0.4519 -0.3846  0.7551
 5828TIP3    H238976   1.549   3.958  12.660 -0.8371  0.7488  0.7569
 5829TIP3   OH238977   5.465   6.631  16.554 -0.0399  0.0212  0.4838
 5829TIP3    H138978   5.452   6.695  16.485  0.3902 -0.1296  0.2625
 5829TIP3    H238979   5.485   6.550  16.509  2.7941  0.4522  0.7760
 5830TIP3   OH238980   1.433   3.272  10.967 -0.8079 -0.1792 -0.6632
 5830TIP3    H138981   1.465   3.226  11.044 -0.6469 -0.5250 -0.9346
 5830TIP3    H238982   1.462   3.218  10.893  1.8510  1.7509 -1.1694
 5831TIP3   OH238983   0.781   3.292   1.351  0.0862 -0.0285 -0.5017
 5831TIP3    H138984   0.722   3.217   1.363 -0.6832  0.7888  1.1447
 5831TIP3    H238985   0.782   3.306   1.256  0.2775 -2.1033 -0.8664
 5832TIP3   OH238986   2.945   2.567   0.565 -0.0280  0.1844  0.7301
 5832TIP3    H138987   2.856   2.589   0.538  0.0798  1.1562  1.1201
 5832TIP3    H238988   2.934   2.517   0.646 -0.1918  2.1041  1.9677
 5833TIP3   OH238989   4.619   5.337   1.242 -0.2314 -0.2463 -0.6263
 5833TIP3    H138990   4.530   5.345   1.276  0.2227 -2.6459  1.5272
 5833TIP3    H238991   4.608   5.295   1.157 -1.2161  1.1839 -1.2286
 5834TIP3   OH238992   3.340   3.636   3.613 -0.0564  0.1839 -0.3737
 5834TIP3    H138993   3.251   3.656   3.643 -0.3567 -2.2138  0.5398
 5834TIP3    H238994   3.397   3.677   3.678 -0.5917 -0.6840  0.6758
 5835TIP3   OH238995   2.546   5.164   2.468 -0.5912 -0.4667  0.6684
 5835TIP3    H138996   2.639   5.156   2.443 -0.1063  0.7049  1.9921
 5835TIP3    H238997   2.508   5.222   2.402  0.8057  3.0777  2.7257
 5836TIP3   OH238998   5.642   0.175   4.567  0.4617 -0.1610  0.0093
 5836TIP3    H138999   5.594   0.103   4.525  0.2289 -0.2952  0.5007
 5836TIP3    H239000   5.734   0.151   4.556  0.4123 -0.1177 -0.5573
 5837TIP3   OH239001   6.372   1.219   3.850  0.6010  0.1543  0.1497
 5837TIP3    H139002   6.456   1.188   3.817 -0.4750  0.8787 -3.6819
 5837TIP3    H239003   6.386   1.311   3.869  0.6382  0.3206 -0.6711
 5838TIP3   OH239004   0.010   0.583   1.341 -0.2743  0.1595 -0.1885
 5838TIP3    H139005  -0.085   0.595   1.347 -0.1713  0.9235 -0.0084
 5838TIP3    H239006   0.021   0.516   1.273 -0.9357  0.0923 -0.2383
 5839TIP3   OH239007   0.865   4.627   3.631  0.0740 -0.3078 -0.2141
 5839TIP3    H139008   0.773   4.638   3.607  0.4572  1.4302 -1.0933
 5839TIP3    H239009   0.864   4.568   3.706 -1.8544  0.5039  0.4550
 5840TIP3   OH239010   2.011   2.751  14.380 -0.5451  0.3277 -0.2457
 5840TIP3    H139011   2.013   2.781  14.471 -0.2019 -2.3408  0.7198
 5840TIP3    H239012   2.088   2.792  14.339 -0.2007  0.8707  0.9193
 5841TIP3   OH239013   5.964   3.633   4.820 -0.7731 -0.2311  0.3431
 5841TIP3    H139014   5.932   3.645   4.910 -1.4869 -0.2012  0.0911
 5841TIP3    H239015   5.890   3.661   4.765 -0.6134 -0.9708 -0.2533
 5842TIP3   OH239016   6.376   5.027  10.945 -0.0276  0.3051  0.1559
 5842TIP3    H139017   6.468   5.002  10.942  0.7576  2.9020 -1.3107
 5842TIP3    H239018   6.336   4.985  10.869  0.3184  0.4129 -0.0837
 5843TIP3   OH239019   1.243   6.439   0.526  0.2218 -0.1084  0.7043
 5843TIP3    H139020   1.321   6.483   0.493 -1.1403  0.9107 -1.3861
 5843TIP3    H239021   1.241   6.356   0.478 -1.1060  0.8397 -0.9910
 5844TIP3   OH239022   6.791   3.945   2.317  0.1241 -0.1779  0.5428
 5844TIP3    H139023   6.869   4.001   2.317  0.4524 -0.5857 -0.8642
 5844TIP3    H239024   6.792   3.901   2.402  1.6425 -0.4448  0.4099
 5845TIP3   OH239025   2.066   6.371   5.524  0.2952 -0.1027  0.1941
 5845TIP3    H139026   2.016   6.290   5.536  0.9858 -0.9156 -1.9343
 5845TIP3    H239027   2.004   6.441   5.545 -1.0334 -1.1425 -0.1068
 5846TIP3   OH239028   4.472   0.687  16.266  0.1977 -0.7975  0.3871
 5846TIP3    H139029   4.548   0.696  16.208 -0.3977  1.2388 -0.1574
 5846TIP3    H239030   4.509   0.688  16.354  0.8229  0.1472  0.1273
 5847TIP3   OH239031   0.957   4.205  10.507 -0.1169 -0.3261 -0.0564
 5847TIP3    H139032   1.020   4.135  10.527 -0.1937  0.3050  2.8079
 5847TIP3    H239033   0.959   4.261  10.584 -3.5401  0.2263 -0.2409
 5848TIP3   OH239034   5.602   6.579  11.587 -0.6821  0.2528  0.3152
 5848TIP3    H139035   5.515   6.539  11.575  0.1363 -1.3579 -0.5901
 5848TIP3    H239036   5.650   6.515  11.639  0.1897  0.8033  0.1933
 5849TIP3   OH239037   3.478   0.898  12.853  0.0417  0.4025  0.4532
 5849TIP3    H139038   3.449   0.866  12.768  1.3691  0.9593 -0.2422
 5849TIP3    H239039   3.462   0.826  12.913 -0.2238 -0.2786 -0.4181
 5850TIP3   OH239040   2.130   6.463   2.844  0.5947  0.0975  0.1251
 5850TIP3    H139041   2.067   6.535   2.834  1.8138  0.9419 -2.5504
 5850TIP3    H239042   2.206   6.503   2.886  1.1602  0.3570 -1.0980
 5851TIP3   OH239043   3.408   4.191   4.220  0.3303 -0.5142 -0.0595
 5851TIP3    H139044   3.417   4.243   4.140  0.8839 -0.6942 -0.1219
 5851TIP3    H239045   3.478   4.224   4.277 -0.9475  0.5984  0.9079
 5852TIP3   OH239046   0.224   2.163  14.007 -0.2878 -0.2765 -0.4018
 5852TIP3    H139047   0.243   2.074  14.035 -0.5526 -0.9190 -2.1043
 5852TIP3    H239048   0.265   2.170  13.920  0.3969  1.5265  0.0242
 5853TIP3   OH239049   0.058   3.856  11.387  0.5408 -0.5550 -0.1276
 5853TIP3    H139050   0.094   3.918  11.451 -0.2623  2.3489 -2.2557
 5853TIP3    H239051   0.134   3.826  11.338  0.9393 -1.2443  0.8894
 5854TIP3   OH239052   1.048   1.744  14.220  0.2894  0.3441  0.1276
 5854TIP3    H139053   1.004   1.826  14.200  0.2585  0.5965  1.1564
 5854TIP3    H239054   1.035   1.689  14.143  2.2823  2.1098 -1.5885
 5855TIP3   OH239055   2.309   4.502  16.158 -0.1737  0.1253  0.0759
 5855TIP3    H139056   2.306   4.568  16.227 -0.7735  1.2501 -0.9919
 5855TIP3    H239057   2.306   4.419  16.205  1.2631  0.8148  1.4905
 5856TIP3   OH239058   3.763   6.465   0.872 -0.0598  0.3826 -0.6886
 5856TIP3    H139059   3.755   6.559   0.856  0.1445  0.4531 -0.3715
 5856TIP3    H239060   3.817   6.458   0.950 -3.5528  0.1765  1.9716
 5857TIP3   OH239061   2.776   5.817   4.394 -0.4997  0.4133 -0.1519
 5857TIP3    H139062   2.778   5.912   4.398 -2.4590  0.5436 -0.8074
 5857TIP3    H239063   2.817   5.796   4.310 -2.2002  0.8998 -1.1665
 5858TIP3   OH239064   0.137   4.589  15.041 -0.1430 -0.0528 -0.4762
 5858TIP3    H139065   0.214   4.644  15.027 -0.8276  0.8141 -0.8938
 5858TIP3    H239066   0.122   4.545  14.957 -0.5411  0.3493 -0.6184
 5859TIP3   OH239067   5.529   1.300  12.434  0.2111  0.4330 -0.6872
 5859TIP3    H139068   5.516   1.373  12.373  0.2505  0.2593 -0.9053
 5859TIP3    H239069   5.492   1.224  12.389 -1.6176  0.6487  0.3496
 5860TIP3   OH239070   5.423   6.221   5.145 -0.1249  0.0111 -0.0887
 5860TIP3    H139071   5.387   6.299   5.187 -1.1829 -0.2255 -0.5381
 5860TIP3    H239072   5.409   6.150   5.208  0.9784  0.1922  0.3865
 5861TIP3   OH239073   0.179   6.353   6.351 -0.1260  0.5200 -0.0582
 5861TIP3    H139074   0.229   6.435   6.352 -0.6029  0.8145  0.2154
 5861TIP3    H239075   0.167   6.334   6.258 -2.0882  2.0812 -0.1924
 5862TIP3   OH239076   4.869   2.483  10.920 -0.0448  0.6099 -0.3110
 5862TIP3    H139077   4.827   2.550  10.867 -1.9786 -0.7948 -0.6650
 5862TIP3    H239078   4.800   2.419  10.937  1.1424 -0.2077  1.8587
 5863TIP3   OH239079   4.703   2.378   3.218 -0.1671 -0.0995 -0.3032
 5863TIP3    H139080   4.694   2.473   3.209 -1.0379 -0.2550 -1.2730
 5863TIP3    H239081   4.735   2.349   3.133  2.5571 -0.4408  0.7329
 5864TIP3   OH239082   0.455   5.785   2.701 -0.2013 -0.6304  0.2468
 5864TIP3    H139083   0.414   5.856   2.750  1.3967  1.2477 -0.9892
 5864TIP3    H239084   0.543   5.778   2.738  0.0997 -1.0438 -0.5354
 5865TIP3   OH239085   0.809   0.988   0.127 -0.3321 -0.1372  0.3629
 5865TIP3    H139086   0.740   0.938   0.083 -1.7305  0.4287  1.8025
 5865TIP3    H239087   0.776   1.078   0.130  0.9180  0.3425  0.2173
 5866TIP3   OH239088   4.771   1.800   3.037 -0.1510 -0.0300  0.4073
 5866TIP3    H139089   4.747   1.774   2.948 -0.3854  1.0780  0.1260
 5866TIP3    H239090   4.805   1.720   3.077 -0.1303 -0.5698 -0.6431
 5867TIP3   OH239091   6.585   3.198  13.931  0.0318  0.2872 -0.3891
 5867TIP3    H139092   6.533   3.123  13.960 -0.2449  0.1831 -1.1357
 5867TIP3    H239093   6.545   3.273  13.975 -1.5624  0.3745 -1.8702
 5868TIP3   OH239094   5.019   5.914  16.193 -0.0502 -0.0913 -0.2080
 5868TIP3    H139095   4.974   5.969  16.129 -0.0632  0.4122  0.2320
 5868TIP3    H239096   5.088   5.969  16.228 -0.5475 -0.0909  0.8021
 5869TIP3   OH239097   1.254   2.450   6.335 -0.0962 -0.7148  0.2652
 5869TIP3    H139098   1.213   2.368   6.306  1.4776 -0.6477 -2.4502
 5869TIP3    H239099   1.269   2.499   6.254  0.4425  1.6001  1.6885
 5870TIP3   OH239100   0.562   2.909   4.289  0.0477 -0.3683 -0.4471
 5870TIP3    H139101   0.591   2.999   4.301 -0.2423 -0.1034 -1.6404
 5870TIP3    H239102   0.470   2.909   4.317  0.9488 -1.1546  3.0967
 5871TIP3   OH239103   0.633   3.900   4.309 -0.2697  0.2953 -0.1541
 5871TIP3    H139104   0.599   3.987   4.328 -1.6801 -0.2300 -0.1685
 5871TIP3    H239105   0.622   3.851   4.391 -0.1047 -0.0557 -0.3376
 5872TIP3   OH239106   3.847   1.410  13.489  0.6537 -0.4114  0.2895
 5872TIP3    H139107   3.889   1.370  13.412 -1.7037 -2.6247  0.0057
 5872TIP3    H239108   3.780   1.346  13.515  1.5780  0.0879  4.4475
 5873TIP3   OH239109   1.155   4.023  14.185 -0.2054 -0.0174  0.5837
 5873TIP3    H139110   1.207   3.986  14.114  1.3096  2.8607  0.0115
 5873TIP3    H239111   1.184   3.975  14.263 -0.7407 -2.1355 -0.4367
 5874TIP3   OH239112   3.278   6.123  14.751  0.0117 -0.3189 -0.2604
 5874TIP3    H139113   3.261   6.197  14.809 -1.5447 -1.5236  0.9208
 5874TIP3    H239114   3.357   6.082  14.787  0.4656  0.3276 -0.4963
 5875TIP3   OH239115   5.748   1.953   0.617  0.1970  0.3562  0.2988
 5875TIP3    H139116   5.720   2.033   0.661 -1.1835  0.1995 -0.2586
 5875TIP3    H239117   5.667   1.907   0.597  0.7598  0.3773 -2.3209
 5876TIP3   OH239118   6.279   1.676  13.120  0.0098  0.1857  0.4144
 5876TIP3    H139119   6.203   1.630  13.156  0.9576 -1.1337  0.7916
 5876TIP3    H239120   6.276   1.762  13.162 -1.0483  0.0088  0.7355
 5877TIP3   OH239121   1.131   5.931  16.382  0.3178 -0.0779 -0.0079
 5877TIP3    H139122   1.051   5.975  16.355  0.0539 -1.3822 -1.5048
 5877TIP3    H239123   1.116   5.907  16.474 -0.0838  1.6234  0.3977
 5878TIP3   OH239124   2.030   4.431   4.203  0.3231 -0.3722  0.0388
 5878TIP3    H139125   2.010   4.368   4.272  3.5686 -0.7808  0.7458
 5878TIP3    H239126   1.975   4.404   4.129  0.3616 -2.9548  0.8632
 5879TIP3   OH239127   4.443   6.792   1.064  0.1641  0.5296 -0.1311
 5879TIP3    H139128   4.505   6.861   1.039  2.5283  1.0265  5.6791
 5879TIP3    H239129   4.483   6.711   1.032  1.6080  1.1987 -0.0807
 5880TIP3   OH239130   1.578   0.516   5.195  0.2802  0.0708 -0.7431
 5880TIP3    H139131   1.638   0.574   5.148  0.0513  1.9820  1.1834
 5880TIP3    H239132   1.635   0.458   5.246  0.6142  2.2538  1.5241
 5881TIP3   OH239133   1.302   0.029   0.436  0.0237  0.2120 -0.5174
 5881TIP3    H139134   1.260   0.015   0.351  0.6399  0.5731 -0.8829
 5881TIP3    H239135   1.234   0.005   0.500  0.2933 -2.2635 -1.0864
 5882TIP3   OH239136   0.358   1.826  14.902 -0.2227 -0.9113  0.3221
 5882TIP3    H139137   0.393   1.737  14.903 -0.3852 -0.9984 -0.5723
 5882TIP3    H239138   0.332   1.843  14.993 -0.4993 -1.9012  0.4450
 5883TIP3   OH239139   5.857   2.073  12.680 -0.0425 -0.3136 -0.0995
 5883TIP3    H139140   5.785   2.135  12.682  0.1642 -0.0286 -1.0214
 5883TIP3    H239141   5.911   2.096  12.755 -0.0113  0.5837 -0.3850
 5884TIP3   OH239142   2.868   0.979  16.861  0.2477  0.1858 -0.0444
 5884TIP3    H139143   2.891   1.071  16.857 -0.9740  0.4846 -0.5880
 5884TIP3    H239144   2.772   0.978  16.866  0.2323 -1.0488 -0.2225
 5885TIP3   OH239145   2.826   3.650   1.715  0.1512  0.9186 -0.3077
 5885TIP3    H139146   2.733   3.639   1.736  0.2961 -0.3887 -0.2867
 5885TIP3    H239147   2.858   3.561   1.699  0.8984  1.5102 -2.5288
 5886TIP3   OH239148   1.517   3.881   0.481 -0.3517 -0.3376  0.8451
 5886TIP3    H139149   1.545   3.870   0.572  1.5139  2.5796  0.7580
 5886TIP3    H239150   1.594   3.858   0.430 -1.0660 -0.9440  0.0051
 5887TIP3   OH239151   2.314   5.332  11.335 -0.1100 -0.3182 -0.6271
 5887TIP3    H139152   2.319   5.411  11.281 -0.5294 -1.3371 -2.2146
 5887TIP3    H239153   2.249   5.353  11.402  0.6570  1.0851 -0.2882
 5888TIP3   OH239154   0.406   4.302   4.884 -0.1211  0.2324  0.3239
 5888TIP3    H139155   0.366   4.285   4.969 -0.9125 -1.2900 -0.3088
 5888TIP3    H239156   0.391   4.395   4.868  0.5440  0.6780  2.0777
 5889TIP3   OH239157   1.135   5.927   1.246 -0.3441  0.2721  0.0086
 5889TIP3    H139158   1.051   5.924   1.291  0.3131  0.1205  1.2747
 5889TIP3    H239159   1.155   6.020   1.240  1.0579  0.3096  3.0610
 5890TIP3   OH239160   3.235   6.804   1.030 -0.1678 -0.3276 -0.6968
 5890TIP3    H139161   3.224   6.789   0.936 -2.1855 -3.9969 -0.0453
 5890TIP3    H239162   3.267   6.721   1.065 -0.1060  0.7156  1.9794
 5891TIP3   OH239163   6.691   4.049   3.375 -0.1986 -0.5021 -0.1998
 5891TIP3    H139164   6.598   4.063   3.361 -0.2052  0.6074  0.8581
 5891TIP3    H239165   6.706   4.070   3.467  1.4432  1.3344 -0.8102
 5892TIP3   OH239166   6.223   2.206   3.875 -0.8581 -0.3713 -0.3334
 5892TIP3    H139167   6.294   2.143   3.860 -1.0074 -0.3167 -1.2950
 5892TIP3    H239168   6.257   2.263   3.944 -0.2825 -0.8256 -0.2220
 5893TIP3   OH239169   3.330   2.714  14.345 -0.0259  0.1601 -0.5530
 5893TIP3    H139170   3.373   2.702  14.260  1.2327  0.1886  0.0618
 5893TIP3    H239171   3.267   2.785  14.329  0.7011  0.6618 -1.2951
 5894TIP3   OH239172   4.915   1.290   0.539  0.5108  0.0014  0.3459
 5894TIP3    H139173   4.940   1.288   0.631 -0.8522  2.1685  0.8376
 5894TIP3    H239174   4.865   1.371   0.530 -2.0068 -1.6300 -1.6108
 5895TIP3   OH239175   4.928   0.684  12.829  0.3336  0.3880 -0.0509
 5895TIP3    H139176   4.873   0.624  12.780 -1.9152  2.0168  0.3310
 5895TIP3    H239177   4.930   0.764  12.777  0.4091  1.1384  1.0569
 5896TIP3   OH239178   2.269   0.035   6.128  0.2231 -0.2655  0.0659
 5896TIP3    H139179   2.235   0.089   6.200  0.0692  0.8798 -0.8459
 5896TIP3    H239180   2.191  -0.005   6.090  0.0477  0.8760 -0.8340
 5897TIP3   OH239181   5.495   5.091   4.651  0.0585  0.2132  0.4457
 5897TIP3    H139182   5.433   5.110   4.721  0.5663  0.0847  0.9296
 5897TIP3    H239183   5.539   5.174   4.635 -0.6241  0.4508 -0.2932
 5898TIP3   OH239184   5.681   6.176  16.737  0.1192  0.6067  0.0945
 5898TIP3    H139185   5.737   6.234  16.789 -1.2471  0.2151  2.1483
 5898TIP3    H239186   5.611   6.233  16.705 -0.7512  0.3115  1.3886
 5899TIP3   OH239187   5.958   2.178   5.721  0.2033 -0.1014  0.4245
 5899TIP3    H139188   5.903   2.245   5.679 -0.4737  1.0146  2.8605
 5899TIP3    H239189   5.901   2.102   5.728 -0.4918  0.4755  1.3503
 5900TIP3   OH239190   2.823   0.406  17.024  0.1192  0.1418 -0.4761
 5900TIP3    H139191   2.880   0.478  17.050 -0.6396  0.4882  0.2658
 5900TIP3    H239192   2.843   0.392  16.931  1.6784 -0.0119 -0.1362
 5901TIP3   OH239193   3.018   0.949  13.469 -0.4891  0.1724  0.0884
 5901TIP3    H139194   2.948   1.007  13.440  0.2993  1.4634  0.6886
 5901TIP3    H239195   3.096   0.982  13.424 -0.2032 -1.0755 -0.3678
 5902TIP3   OH239196   1.385   6.556  14.487  0.5797 -0.5257 -0.2648
 5902TIP3    H139197   1.364   6.635  14.536 -2.0651 -2.1128  1.4677
 5902TIP3    H239198   1.450   6.510  14.540  1.5444  0.0773 -0.8918
 5903TIP3   OH239199   6.528   4.239  15.442 -0.7502  0.2083 -0.0742
 5903TIP3    H139200   6.582   4.260  15.518 -1.1210 -1.0301  0.5549
 5903TIP3    H239201   6.465   4.174  15.474  0.1118 -1.6132 -1.8140
 5904TIP3   OH239202   5.023   0.519  15.165 -0.1758  0.3710 -0.0246
 5904TIP3    H139203   5.090   0.458  15.196  0.2580  1.1234  0.5588
 5904TIP3    H239204   5.056   0.549  15.080  0.2747  0.7855  0.2876
 5905TIP3   OH239205   2.567   4.595  12.876  0.2381 -0.4054  0.1239
 5905TIP3    H139206   2.498   4.536  12.846  0.8574 -1.3310  0.4850
 5905TIP3    H239207   2.589   4.565  12.964  0.0453  0.8416  0.6210
 5906TIP3   OH239208   5.672   3.898  12.897 -0.0268  0.1528  0.0417
 5906TIP3    H139209   5.687   3.892  12.802  1.1085  0.9883  0.1364
 5906TIP3    H239210   5.723   3.975  12.923  0.1112 -0.3924  1.4191
 5907TIP3   OH239211   6.749   1.651  12.655 -0.1834 -0.0653 -0.1816
 5907TIP3    H139212   6.713   1.584  12.597  1.1724  0.2663 -1.4738
 5907TIP3    H239213   6.841   1.657  12.630  0.6749 -0.4533  2.5740
 5908TIP3   OH239214   3.952   2.996   2.670  0.0707 -0.3474 -0.0414
 5908TIP3    H139215   3.927   3.066   2.731 -2.3739 -0.3479 -0.9199
 5908TIP3    H239216   4.005   2.936   2.723 -3.2414 -1.1907  2.6689
 5909TIP3   OH239217   3.848   2.780   1.635 -0.0957 -0.2604 -0.0656
 5909TIP3    H139218   3.921   2.726   1.604  0.2051 -0.2588  0.6301
 5909TIP3    H239219   3.882   2.824   1.713 -1.1038 -0.8920  0.7561
 5910TIP3   OH239220   6.450   4.987  14.656  0.6900 -0.0830  0.0126
 5910TIP3    H139221   6.393   5.053  14.616  0.4883  0.1378  0.6573
 5910TIP3    H239222   6.485   5.029  14.734  2.7976  0.2765 -1.0302
 5911TIP3   OH239223   5.182   6.334   1.151  0.2024 -0.2939  0.6283
 5911TIP3    H139224   5.232   6.292   1.081 -1.6805  0.9580 -1.6097
 5911TIP3    H239225   5.129   6.264   1.188 -0.9996 -0.4948 -1.3167
 5912TIP3   OH239226   5.587   0.449  14.849  0.3612  0.0318  0.3104
 5912TIP3    H139227   5.672   0.448  14.893 -0.4934  0.5442  2.0651
 5912TIP3    H239228   5.606   0.424  14.759  2.4685  0.8436  0.4835
 5913TIP3   OH239229   6.020   3.750  15.561 -0.0425  0.2101 -0.4727
 5913TIP3    H139230   6.105   3.711  15.583 -1.3239 -1.8747  1.0837
 5913TIP3    H239231   6.002   3.809  15.635 -0.4580 -0.1971 -0.2516
 5914TIP3   OH239232   4.057   6.287   1.454  0.2075 -0.0150  0.3836
 5914TIP3    H139233   4.018   6.209   1.493  1.4836 -1.5114 -1.1717
 5914TIP3    H239234   4.148   6.287   1.484  0.1759  0.9850  0.5174
 5915TIP3   OH239235   4.808   5.146   0.580  0.1450 -0.4502  0.0678
 5915TIP3    H139236   4.880   5.138   0.642  0.0609 -1.7366  0.0170
 5915TIP3    H239237   4.796   5.058   0.545 -0.1319  0.1439 -1.4174
 5916TIP3   OH239238   4.146   1.171   6.359  0.0966 -0.0615 -0.2593
 5916TIP3    H139239   4.207   1.235   6.321  1.9487 -1.7861 -0.3343
 5916TIP3    H239240   4.181   1.086   6.332 -1.6125 -1.1573  0.8358
 5917TIP3   OH239241   1.833   2.929   4.326  0.2777 -0.5782  0.4544
 5917TIP3    H139242   1.868   2.958   4.411  0.2053 -0.6582  0.5116
 5917TIP3    H239243   1.738   2.939   4.335  0.1417 -2.0884  0.9552
 5918TIP3   OH239244   3.716   3.532  15.543 -0.0426 -0.3923 -0.2297
 5918TIP3    H139245   3.675   3.454  15.580  1.2922 -0.8261  0.3827
 5918TIP3    H239246   3.667   3.606  15.580  1.0126 -0.8227  2.1569
 5919TIP3   OH239247   4.993   4.395  11.580 -0.1469 -0.1279  0.1866
 5919TIP3    H139248   5.008   4.437  11.664  0.7605  0.4850 -0.2612
 5919TIP3    H239249   4.904   4.420  11.556 -0.1613  0.2792  0.6441
 5920TIP3   OH239250   3.689   6.660   0.303  0.6209  0.0839 -0.0531
 5920TIP3    H139251   3.595   6.649   0.286  0.4659  0.0487  0.7593
 5920TIP3    H239252   3.699   6.753   0.324  0.9404  0.2955 -1.1025
 5921TIP3   OH239253   1.146   3.843  11.736 -0.4993  0.0205 -0.3092
 5921TIP3    H139254   1.107   3.780  11.676 -0.2671  0.2746 -0.7317
 5921TIP3    H239255   1.192   3.790  11.801 -1.1540 -0.2696 -0.0767
 5922TIP3   OH239256   3.925   5.218   1.480 -0.1926 -0.3063 -0.6736
 5922TIP3    H139257   3.983   5.162   1.428  1.2987 -0.0377  0.6202
 5922TIP3    H239258   3.918   5.172   1.564 -0.9658  0.2408 -0.4318
 5923TIP3   OH239259   4.435   1.494  13.464  0.2934 -0.0779 -0.2403
 5923TIP3    H139260   4.485   1.423  13.505 -0.0252 -0.3961 -0.3969
 5923TIP3    H239261   4.484   1.515  13.384  1.6344  1.4251  0.9094
 5924TIP3   OH239262   2.090   1.729   0.353 -0.1189 -0.2596  0.3823
 5924TIP3    H139263   2.140   1.688   0.423  1.0632  1.9332  0.9055
 5924TIP3    H239264   2.003   1.744   0.391 -0.1265 -0.9548  0.6533
 5925TIP3   OH239265   4.300   5.600   4.031  0.4360  0.4486 -0.2040
 5925TIP3    H139266   4.286   5.523   4.086  1.7317  0.2681 -0.0965
 5925TIP3    H239267   4.384   5.584   3.988 -0.9195  0.1762 -2.9408
 5926TIP3   OH239268   6.186   0.892  17.005  0.2910 -0.2703 -0.1261
 5926TIP3    H139269   6.179   0.797  17.010 -0.7006 -0.1415  2.1630
 5926TIP3    H239270   6.258   0.908  16.943  0.3904 -2.4765 -0.6462
 5927TIP3   OH239271   5.783   0.852  11.688 -0.7030  0.3011  0.4495
 5927TIP3    H139272   5.709   0.910  11.705 -1.2770 -0.1590 -0.4082
 5927TIP3    H239273   5.801   0.811  11.773 -2.3261 -0.5880  0.4183
 5928TIP3   OH239274   0.610   1.506  12.536 -0.1656 -0.1312 -0.1361
 5928TIP3    H139275   0.551   1.485  12.464 -0.7341 -2.3575  0.9218
 5928TIP3    H239276   0.654   1.586  12.507 -3.3949  1.4500 -1.1020
 5929TIP3   OH239277   5.497   6.617   5.157 -0.1182 -0.1576  0.2205
 5929TIP3    H139278   5.508   6.526   5.129 -1.8522 -0.7536  1.2899
 5929TIP3    H239279   5.584   6.643   5.189  0.5486 -1.2189 -0.6557
 5930TIP3   OH239280   0.554   2.416   1.253  0.0160 -0.3141 -0.5413
 5930TIP3    H139281   0.554   2.359   1.177 -0.2888 -0.4480 -0.4398
 5930TIP3    H239282   0.466   2.454   1.255 -0.8249 -2.1569  1.1172
 5931TIP3   OH239283   4.964   1.119  16.241  0.7903  0.2179 -0.3653
 5931TIP3    H139284   4.987   1.032  16.207  2.4622  0.2149  0.6987
 5931TIP3    H239285   4.927   1.102  16.328  0.6104  0.5395 -0.3769
 5932TIP3   OH239286   4.601   2.639  16.505 -0.0252 -0.1709 -0.4706
 5932TIP3    H139287   4.685   2.598  16.523  0.2473 -0.3735 -2.0457
 5932TIP3    H239288   4.609   2.727  16.542 -0.7310 -1.4978  3.2197
 5933TIP3   OH239289   2.445   6.076  14.107  0.1205 -0.7233  0.3919
 5933TIP3    H139290   2.484   6.158  14.076 -0.3575 -0.0129  1.6037
 5933TIP3    H239291   2.354   6.080  14.077  0.0102 -0.6563  0.7332
 5934TIP3   OH239292   0.906   3.650  11.707 -0.4393  0.7070 -0.2516
 5934TIP3    H139293   0.888   3.645  11.613 -0.2616  0.5932 -0.2800
 5934TIP3    H239294   0.893   3.561  11.739  0.5414  0.5131 -0.3602
 5935TIP3   OH239295   6.220   2.559  15.918  0.2247 -0.1661 -0.3406
 5935TIP3    H139296   6.206   2.654  15.913 -0.0167 -0.1907 -0.1151
 5935TIP3    H239297   6.307   2.550  15.957  0.3540 -0.0358 -0.5916
 5936TIP3   OH239298   5.125   3.793  15.454  0.5804  0.0923  0.5510
 5936TIP3    H139299   5.185   3.743  15.509  0.8626  0.1720  0.3224
 5936TIP3    H239300   5.048   3.808  15.508  0.6372 -0.2923  0.7340
 5937TIP3   OH239301   0.905   5.853  14.727  0.1844 -0.2767 -0.3626
 5937TIP3    H139302   0.823   5.901  14.734  0.4241  0.2501 -1.0336
 5937TIP3    H239303   0.958   5.887  14.800 -0.8708 -2.0776  1.3614
 5938TIP3   OH239304   4.324   5.753   1.516 -0.0310  0.2523  0.6533
 5938TIP3    H139305   4.287   5.838   1.495  0.9856  0.2266 -1.4720
 5938TIP3    H239306   4.248   5.698   1.537 -0.7335  1.5007  1.4807
 5939TIP3   OH239307   5.754   2.943   5.309  0.2666 -0.2067  0.6555
 5939TIP3    H139308   5.729   2.860   5.269  1.6201 -0.0449 -0.6127
 5939TIP3    H239309   5.672   2.983   5.336 -0.6041 -0.8419 -0.9694
 5940TIP3   OH239310   0.133   6.257   3.963 -0.4442  0.6912  0.0278
 5940TIP3    H139311   0.045   6.293   3.974 -0.1766  1.5104 -0.4385
 5940TIP3    H239312   0.192   6.331   3.979  0.1057  0.5614 -1.2733
 5941TIP3   OH239313   6.811   0.671  11.533 -0.4248 -0.3811  0.3499
 5941TIP3    H139314   6.814   0.724  11.613  1.2151  1.9810 -1.1506
 5941TIP3    H239315   6.746   0.714  11.478  0.1808 -0.5414 -0.5051
 5942TIP3   OH239316   4.639   3.042   4.611 -0.3401 -0.0532 -0.0206
 5942TIP3    H139317   4.610   2.961   4.653 -1.2406  1.1245  1.7891
 5942TIP3    H239318   4.656   3.101   4.685  2.1392  0.8271 -1.2019
 5943TIP3   OH239319   4.829   0.795   5.095  0.1913  0.2759  0.6592
 5943TIP3    H139320   4.829   0.746   5.012  3.0435  0.8441  0.2042
 5943TIP3    H239321   4.778   0.740   5.155 -1.2831 -0.5417 -1.2308
 5944TIP3   OH239322   3.523   1.055  14.522  0.5722  0.4809 -0.1772
 5944TIP3    H139323   3.535   1.042  14.616 -0.1730  1.9363  0.1512
 5944TIP3    H239324   3.498   0.969  14.488  1.0396 -0.1031  0.9184
 5945TIP3   OH239325   0.068   6.204   1.537 -0.4187  0.4492  0.2167
 5945TIP3    H139326   0.135   6.191   1.471 -1.6569 -0.4678 -0.9032
 5945TIP3    H239327   0.033   6.291   1.519 -1.5955 -0.2740 -1.1779
 5946TIP3   OH239328   3.076   1.402  14.443  0.1359  0.1535 -0.2232
 5946TIP3    H139329   2.995   1.353  14.428  0.9394 -0.4868 -2.9204
 5946TIP3    H239330   3.046   1.491  14.463 -1.2340 -0.3060 -0.1122
 5947TIP3   OH239331   0.151   5.536   3.652 -1.1319 -0.4067 -0.1786
 5947TIP3    H139332   0.188   5.525   3.740 -1.0412 -1.7467 -0.3649
 5947TIP3    H239333   0.224   5.569   3.599 -0.9829 -0.3211  0.0776
 5948TIP3   OH239334   6.611   1.670  14.464 -0.4924 -0.2058 -0.3104
 5948TIP3    H139335   6.697   1.629  14.470  0.5871  2.0660  1.5702
 5948TIP3    H239336   6.561   1.634  14.538 -0.2306  0.3527  0.1488
 5949TIP3   OH239337   6.543   3.256   6.613 -0.2939 -0.1083  0.0437
 5949TIP3    H139338   6.512   3.277   6.525 -0.2108  1.0420  0.2778
 5949TIP3    H239339   6.466   3.220   6.658 -0.2468 -1.0372 -0.5961
 5950TIP3   OH239340   6.269   5.847   5.943 -0.4157 -0.0639 -0.5419
 5950TIP3    H139341   6.330   5.859   5.870 -1.7777 -0.3467 -1.7844
 5950TIP3    H239342   6.238   5.757   5.933 -0.8883  0.0195  0.1646
 5951TIP3   OH239343   2.641   0.384   1.191 -0.2484 -0.8611 -0.0928
 5951TIP3    H139344   2.574   0.451   1.177 -0.8026 -1.4688 -0.4140
 5951TIP3    H239345   2.724   0.432   1.191 -0.6793 -0.0950  0.3221
 5952TIP3   OH239346   5.810   3.785   2.161 -0.0634  0.1273  1.2019
 5952TIP3    H139347   5.808   3.864   2.106  0.3513  0.9463  2.3122
 5952TIP3    H239348   5.795   3.818   2.250 -0.3394 -1.1173  1.6398
 5953TIP3   OH239349   5.736   1.123   3.584 -0.4144  0.4821 -0.2963
 5953TIP3    H139350   5.740   1.101   3.677 -0.1114  1.1796 -0.1398
 5953TIP3    H239351   5.826   1.116   3.554 -0.7509 -1.5763 -0.9930
 5954TIP3   OH239352   4.630   0.868  10.470  0.1577  0.4577  0.1465
 5954TIP3    H139353   4.678   0.931  10.417  2.1326  0.8461  2.2578
 5954TIP3    H239354   4.544   0.907  10.483  0.7679  1.8977 -0.0228
 5955TIP3   OH239355   0.644   6.243   1.967  0.3282  0.2811  0.0103
 5955TIP3    H139356   0.591   6.197   1.902 -0.4054  0.1569  0.6791
 5955TIP3    H239357   0.702   6.299   1.915 -0.6343  0.6138 -0.7409
 5956TIP3   OH239358   0.971   4.114   3.733 -0.2581  0.2085  0.2155
 5956TIP3    H139359   0.928   4.087   3.652  0.4776 -0.7483  0.1209
 5956TIP3    H239360   1.064   4.102   3.716 -0.0050  1.2365  0.7753
 5957TIP3   OH239361   1.634   2.012  13.543 -0.1679 -0.2728  0.4129
 5957TIP3    H139362   1.660   2.079  13.607 -2.0117 -0.2529  1.2020
 5957TIP3    H239363   1.649   2.053  13.458 -1.6187  1.3342  0.8843
 5958TIP3   OH239364   0.987   4.304  12.346 -0.0572 -0.9180 -0.3387
 5958TIP3    H139365   0.961   4.254  12.269  0.8576 -1.9418 -0.0207
 5958TIP3    H239366   0.987   4.240  12.417 -1.9874  0.2377  0.7838
 5959TIP3   OH239367   5.114   4.556   0.865  0.6579  0.5375 -0.4144
 5959TIP3    H139368   5.046   4.520   0.808  1.2052  0.8757 -1.3210
 5959TIP3    H239369   5.082   4.542   0.954 -0.0870 -0.2872 -0.7990
 5960TIP3   OH239370   6.536   0.199   3.272 -0.0813  0.2044 -0.2728
 5960TIP3    H139371   6.492   0.122   3.307 -0.9514  0.5638 -0.5443
 5960TIP3    H239372   6.540   0.184   3.178 -0.6112  0.6634 -0.3717
 5961TIP3   OH239373   1.266   3.267   2.996 -0.1174  0.4445  0.3251
 5961TIP3    H139374   1.280   3.359   2.975  3.3395 -0.3996 -1.9055
 5961TIP3    H239375   1.218   3.232   2.921 -0.3124  0.2033  0.5625
 5962TIP3   OH239376   0.169   1.698  14.111 -0.3263 -0.0598 -0.1419
 5962TIP3    H139377   0.153   1.686  14.205 -1.7430 -2.9204 -0.6332
 5962TIP3    H239378   0.100   1.757  14.082 -0.7505 -0.2776  0.4028
 5963TIP3   OH239379   5.580   4.406  15.867  0.2520 -0.2768  0.1145
 5963TIP3    H139380   5.561   4.330  15.922 -1.5200 -1.5293 -2.0163
 5963TIP3    H239381   5.508   4.407  15.803  2.0138  1.1808 -1.9950
 5964TIP3   OH239382   0.252   1.146   5.205  0.4797  0.3534 -0.4296
 5964TIP3    H139383   0.227   1.158   5.296 -1.7970 -0.0658 -0.9599
 5964TIP3    H239384   0.325   1.084   5.208  0.8656  0.8487  1.1277
 5965TIP3   OH239385   4.960   0.063  12.578 -0.1965 -0.2452  0.2304
 5965TIP3    H139386   5.032   0.026  12.629 -0.5790 -0.0780  0.8902
 5965TIP3    H239387   4.946  -0.001  12.508 -1.1226 -1.5884  1.5811
 5966TIP3   OH239388   3.007   5.308   4.132  0.4609 -0.2624 -0.3086
 5966TIP3    H139389   2.941   5.276   4.071  0.9963  0.8731 -1.5232
 5966TIP3    H239390   3.087   5.314   4.081  0.8113  1.2125  0.3475
 5967TIP3   OH239391   6.817   3.477   3.155 -0.4870  0.3609 -0.5126
 5967TIP3    H139392   6.782   3.561   3.188 -2.3144 -0.8172  0.7446
 5967TIP3    H239393   6.870   3.444   3.227 -0.9289 -0.1974 -0.4360
 5968TIP3   OH239394   3.800   2.521  13.567  0.0034  0.3274 -0.1289
 5968TIP3    H139395   3.822   2.559  13.482 -0.3743  1.5399  0.3003
 5968TIP3    H239396   3.806   2.426  13.553 -0.6378  0.4871 -1.6641
 5969TIP3   OH239397   1.173   4.810  11.876  0.7206 -0.1366  0.0699
 5969TIP3    H139398   1.149   4.721  11.851  0.4870 -0.2440  0.6563
 5969TIP3    H239399   1.089   4.855  11.888  0.6468 -0.9055  3.5723
 5970TIP3   OH239400   0.612   4.085  16.442  0.0342 -0.3264 -0.7983
 5970TIP3    H139401   0.578   4.077  16.531  1.6289 -1.0756 -0.2107
 5970TIP3    H239402   0.544   4.131  16.394 -0.4846  0.9198  1.0308
 5971TIP3   OH239403   5.889   0.132   6.128 -0.3125 -0.3443 -0.4403
 5971TIP3    H139404   5.822   0.129   6.060 -0.3007 -1.9042 -0.4052
 5971TIP3    H239405   5.848   0.090   6.204  0.5517 -0.9268 -0.2880
 5972TIP3   OH239406   1.292   6.294   2.184  0.2879 -0.3025  0.3183
 5972TIP3    H139407   1.292   6.311   2.279  1.9114 -0.5937  0.3895
 5972TIP3    H239408   1.249   6.209   2.176 -1.0112  0.2979  0.6572
 5973TIP3   OH239409   4.565   4.116   1.115  0.0301  0.8505  0.7748
 5973TIP3    H139410   4.488   4.143   1.165 -1.2817 -0.1232 -0.6247
 5973TIP3    H239411   4.598   4.039   1.160  0.3101  1.3724  1.4787
 5974TIP3   OH239412   1.513   3.579   2.930  0.4364  0.8955 -0.1476
 5974TIP3    H139413   1.570   3.570   3.006 -0.8501  1.4561  0.9191
 5974TIP3    H239414   1.554   3.524   2.863  2.4870  1.6430  0.3950
 5975TIP3   OH239415   1.070   4.437  16.512  0.4304 -0.0944 -0.3927
 5975TIP3    H139416   1.060   4.435  16.607  2.2516 -0.0938 -0.1740
 5975TIP3    H239417   1.008   4.371  16.480 -0.6350  0.3114  0.7240
 5976TIP3   OH239418   6.374   2.927   4.078  0.3074 -0.6908 -0.1537
 5976TIP3    H139419   6.326   3.010   4.078  0.5457 -0.5403  0.8834
 5976TIP3    H239420   6.366   2.895   4.168 -0.0922 -1.9774 -0.6246
 5977TIP3   OH239421   6.027   2.746  14.639 -0.1166 -0.4018  0.6235
 5977TIP3    H139422   6.072   2.766  14.557 -1.5936 -0.7966 -0.3104
 5977TIP3    H239423   6.027   2.829  14.687 -0.2963  0.1361 -0.2919
 5978TIP3   OH239424   5.671   6.161  12.421  0.5232  0.5114 -0.2164
 5978TIP3    H139425   5.586   6.205  12.422  0.6851  0.8796  1.8400
 5978TIP3    H239426   5.651   6.072  12.392 -0.0326  1.4166 -2.9109
 5979TIP3   OH239427   4.723   1.512   1.031  0.0293  0.2783 -0.0886
 5979TIP3    H139428   4.708   1.600   1.067 -1.3777 -0.5023  1.3438
 5979TIP3    H239429   4.676   1.454   1.090  1.1264 -1.4864 -0.8887
 5980TIP3   OH239430   5.336   4.368   5.615  0.0173 -0.4261 -0.4176
 5980TIP3    H139431   5.307   4.290   5.569  0.2276 -0.6388 -0.1919
 5980TIP3    H239432   5.401   4.336   5.678 -2.4630 -0.6185  2.2428
 5981TIP3   OH239433   3.150   5.854   5.919  0.5389  0.0060 -0.1175
 5981TIP3    H139434   3.119   5.818   5.836  0.8025  0.7238 -0.5392
 5981TIP3    H239435   3.157   5.779   5.977  0.0033 -0.4539 -0.6392
 5982TIP3   OH239436   1.080   4.622   3.488 -0.0537 -0.2464  0.1647
 5982TIP3    H139437   1.159   4.669   3.515  0.9777 -2.4012  1.2077
 5982TIP3    H239438   1.012   4.651   3.549 -0.4772  2.4988 -1.4597
 5983TIP3   OH239439   5.879   2.573  13.716 -0.9506  0.3986 -0.6705
 5983TIP3    H139440   5.970   2.551  13.734 -0.2585  0.4918 -3.5872
 5983TIP3    H239441   5.829   2.499  13.750  0.3821 -0.4682 -0.5427
 5984TIP3   OH239442   0.434   1.296  14.881 -0.2937 -0.3763 -0.3808
 5984TIP3    H139443   0.362   1.275  14.822  0.0743 -1.6704 -0.3968
 5984TIP3    H239444   0.504   1.236  14.856  0.3372 -0.0295  0.4967
 5985TIP3   OH239445   5.945   3.837  16.435  0.0800 -0.7847 -0.5877
 5985TIP3    H139446   5.996   3.878  16.366  1.1296  0.8320  1.0733
 5985TIP3    H239447   5.967   3.885  16.514 -0.1840 -3.2907  1.1471
 5986TIP3   OH239448   2.357   4.386   4.281  0.2860 -0.2429 -0.2876
 5986TIP3    H139449   2.323   4.412   4.195  0.8281  0.4022 -0.3102
 5986TIP3    H239450   2.452   4.391   4.273  0.3367  0.7246  0.6088
 5987TIP3   OH239451   1.917   3.068  14.440 -0.3067  0.4336 -0.1382
 5987TIP3    H139452   1.898   3.152  14.481  0.7295  0.3441  0.5381
 5987TIP3    H239453   2.011   3.057  14.448 -0.5062 -1.1233  0.4224
 5988TIP3   OH239454   3.024   6.501   0.469  0.1422  0.1769 -0.1501
 5988TIP3    H139455   3.012   6.443   0.544 -1.9558 -2.2190 -2.1438
 5988TIP3    H239456   2.951   6.563   0.474  0.8976  1.0338  0.5748
 5989TIP3   OH239457   1.303   3.442  15.937 -0.4159  0.0843 -0.2002
 5989TIP3    H139458   1.328   3.357  15.901  0.1564 -0.2990  1.0831
 5989TIP3    H239459   1.239   3.422  16.005 -0.8865  0.7474 -0.4296
 5990TIP3   OH239460   1.046   0.381  10.937  0.4939 -0.2359 -0.2855
 5990TIP3    H139461   1.001   0.349  10.859  2.7762 -2.0210 -0.9731
 5990TIP3    H239462   1.086   0.463  10.910 -0.1896  0.0528 -0.4324
 5991TIP3   OH239463   4.336   3.560  11.649  0.1019 -0.1686  0.0657
 5991TIP3    H139464   4.246   3.558  11.618 -0.4658 -0.8343  1.6246
 5991TIP3    H239465   4.341   3.490  11.714  1.1378  1.1734  1.5442
 5992TIP3   OH239466   4.344   6.378  15.212  0.2241  0.0548 -0.0472
 5992TIP3    H139467   4.324   6.467  15.240  0.9379  0.4233 -0.6683
 5992TIP3    H239468   4.406   6.389  15.140  0.1748 -0.9391 -0.2520
 5993TIP3   OH239469   1.848   4.338   4.394  0.3820  0.3397  0.5676
 5993TIP3    H139470   1.788   4.277   4.351  1.1667  1.1867 -1.9097
 5993TIP3    H239471   1.791   4.398   4.442 -0.8363  1.0040 -1.5523
 5994TIP3   OH239472   1.800   3.464  10.976 -0.3820 -0.2352  0.1543
 5994TIP3    H139473   1.717   3.459  10.929  0.0812 -1.5146 -0.5849
 5994TIP3    H239474   1.845   3.539  10.938 -0.3220 -0.8233 -0.9641
 5995TIP3   OH239475   5.876   0.920   1.314 -0.0040 -0.2378  0.0350
 5995TIP3    H139476   5.947   0.965   1.269 -0.3624 -1.2408 -1.5997
 5995TIP3    H239477   5.919   0.852   1.365  0.3662  0.6201  0.9055
 5996TIP3   OH239478   5.050   5.860  12.371  0.1361 -0.0118 -0.5283
 5996TIP3    H139479   5.130   5.821  12.337  0.3279  0.3842 -0.5373
 5996TIP3    H239480   5.080   5.929  12.430 -0.1996  0.5043 -0.9576
 5997TIP3   OH239481   0.326   4.002   2.488 -0.2924  0.0354  0.1646
 5997TIP3    H139482   0.420   3.992   2.477 -0.2885  1.0663 -0.9517
 5997TIP3    H239483   0.302   3.933   2.550  1.0865 -0.6481 -0.0135
 5998TIP3   OH239484   6.035   0.722  13.325  0.0431 -0.0151  0.1344
 5998TIP3    H139485   5.960   0.676  13.362 -0.8426  0.1368 -1.3647
 5998TIP3    H239486   6.106   0.708  13.388 -0.1909 -3.3385 -0.1591
 5999TIP3   OH239487   2.481   2.977   5.890 -0.1704  0.1883  0.2637
 5999TIP3    H139488   2.468   2.976   5.985  1.8925 -0.2973  0.5812
 5999TIP3    H239489   2.406   2.928   5.855  0.1837 -1.6226  1.8458
 6000TIP3   OH239490   0.236   5.915  12.288 -0.2550 -0.0428 -0.1394
 6000TIP3    H139491   0.236   5.820  12.282  1.3528 -0.1183  0.5946
 6000TIP3    H239492   0.154   5.936  12.333 -0.3327 -1.1210  0.2427
 6001TIP3   OH239493   5.455   4.703   3.112  0.2722  0.3398 -0.0116
 6001TIP3    H139494   5.364   4.694   3.084 -0.3690 -0.5578  2.1726
 6001TIP3    H239495   5.473   4.797   3.104 -0.5034  0.3982 -1.3942
 6002TIP3   OH239496   4.942   1.001   4.966 -0.2879  0.4300  0.2370
 6002TIP3    H139497   4.916   0.922   5.014 -1.0457  0.5997  0.1033
 6002TIP3    H239498   4.940   1.071   5.031  1.4620  0.1704  0.6291
 6003TIP3   OH239499   1.298   6.359  14.908 -0.6861  0.3408  0.1732
 6003TIP3    H139500   1.263   6.283  14.861 -0.9304  0.2282  0.5409
 6003TIP3    H239501   1.235   6.429  14.890 -0.5859  0.3956  0.0319
 6004TIP3   OH239502   2.763   3.446  16.588 -0.0183  0.3355  0.1153
 6004TIP3    H139503   2.772   3.534  16.553 -0.3706 -0.2333 -1.5111
 6004TIP3    H239504   2.841   3.433  16.642 -0.5250  2.0274  1.3251
 6005TIP3   OH239505   4.981   1.095   2.904  1.0367 -0.4437 -0.0270
 6005TIP3    H139506   5.020   1.174   2.867  0.4667  0.0680  0.4394
 6005TIP3    H239507   4.977   1.033   2.831  0.4819  0.3433 -0.6824
 6006TIP3   OH239508   2.451   4.717  14.808  0.1874 -1.1087  0.3977
 6006TIP3    H139509   2.409   4.644  14.763 -2.2516  1.3479 -1.6488
 6006TIP3    H239510   2.393   4.738  14.881 -0.1504 -0.0926 -0.1405
 6007TIP3   OH239511   3.338   1.766  14.474  0.1474  0.0566  0.7836
 6007TIP3    H139512   3.248   1.771  14.442  1.1077 -0.0916 -2.2302
 6007TIP3    H239513   3.353   1.850  14.518 -0.7884  1.0441 -0.6974
 6008TIP3   OH239514   2.171   0.719   1.308 -0.2584  0.4986 -0.0764
 6008TIP3    H139515   2.116   0.672   1.244  2.6631 -0.8366 -1.8136
 6008TIP3    H239516   2.182   0.656   1.379 -0.1760  0.3864 -0.1874
 6009TIP3   OH239517   6.344   0.194  11.109  0.0812  0.2874 -0.0807
 6009TIP3    H139518   6.275   0.208  11.174 -1.3573 -1.0588 -1.2400
 6009TIP3    H239519   6.408   0.264  11.126 -2.5790  2.9484 -0.3131
 6010TIP3   OH239520   1.824   3.468   0.888 -0.1022 -0.1655 -0.3847
 6010TIP3    H139521   1.762   3.403   0.920 -1.1399  0.7270 -0.5247
 6010TIP3    H239522   1.799   3.483   0.797 -0.9773  1.6368  0.1093
 6011TIP3   OH239523   1.642   0.108   5.399 -0.1581  0.1536  0.7011
 6011TIP3    H139524   1.550   0.091   5.377 -0.5629  0.1707  2.2255
 6011TIP3    H239525   1.637   0.159   5.480  1.1981  0.5602  0.5413
 6012TIP3   OH239526   1.444   5.017   3.812 -0.4004  0.6779 -0.2035
 6012TIP3    H139527   1.362   4.973   3.833 -0.6302  0.7226 -0.9788
 6012TIP3    H239528   1.489   4.958   3.752  0.1235  0.6711  0.1852
 6013TIP3   OH239529   4.390   5.166   2.886  0.0801  0.2060 -0.2886
 6013TIP3    H139530   4.409   5.188   2.977 -2.0446  2.0797 -0.1901
 6013TIP3    H239531   4.319   5.102   2.891 -0.4083  0.7064 -0.5815
 6014TIP3   OH239532   0.136   4.940   3.478 -0.4946  1.1062  0.3729
 6014TIP3    H139533   0.046   4.947   3.509 -0.7294 -0.0070  0.0105
 6014TIP3    H239534   0.172   5.028   3.487 -1.4478  1.4473  1.0348
 6015TIP3   OH239535   2.878   6.715   4.281  0.1904  0.3153 -0.0900
 6015TIP3    H139536   2.858   6.782   4.216 -2.4448 -0.1539  0.1188
 6015TIP3    H239537   2.870   6.761   4.365  1.7962  0.5003 -0.0178
 6016TIP3   OH239538   4.092   1.671  14.261  0.4309  0.4757  0.2846
 6016TIP3    H139539   4.003   1.668  14.296  0.4318  1.3806  0.3912
 6016TIP3    H239540   4.140   1.726  14.323  1.5352 -1.4431  1.2216
 6017TIP3   OH239541   3.039   3.248  16.465 -0.4488 -0.3060 -0.6227
 6017TIP3    H139542   2.956   3.200  16.464 -0.0405 -1.0498 -2.3380
 6017TIP3    H239543   3.106   3.181  16.450  0.3990  0.3938 -0.0493
 6018TIP3   OH239544   2.491   0.875  16.458  0.3648 -0.0829 -0.3544
 6018TIP3    H139545   2.482   0.960  16.501 -0.9626 -0.9612  1.2065
 6018TIP3    H239546   2.578   0.845  16.483  0.0698 -0.0513  0.7432
 6019TIP3   OH239547   4.231   1.828  13.495  0.1380  0.4846 -0.3297
 6019TIP3    H139548   4.194   1.769  13.431 -0.9061 -1.0140  1.5555
 6019TIP3    H239549   4.298   1.776  13.541  1.9445  1.9760 -1.1253
 6020TIP3   OH239550   0.283   2.147  13.187  0.0773 -0.5463  0.1683
 6020TIP3    H139551   0.356   2.090  13.212  0.4172 -0.3133 -0.2778
 6020TIP3    H239552   0.258   2.190  13.268  0.6553 -0.3832  0.2668
 6021TIP3   OH239553   3.535   5.588  14.135  0.4209 -0.5443  0.1901
 6021TIP3    H139554   3.582   5.506  14.147 -0.5887 -1.6775 -2.7492
 6021TIP3    H239555   3.541   5.606  14.041 -0.3253  2.1977  0.5706
 6022TIP3   OH239556   1.585   2.873   2.844  0.1535 -0.3197  0.5306
 6022TIP3    H139557   1.596   2.839   2.933  0.0081 -0.5954  0.4433
 6022TIP3    H239558   1.525   2.948   2.855  0.3436 -0.1916  0.6993
 6023TIP3   OH239559   3.751   0.488  14.371  0.4983  0.1491  0.0111
 6023TIP3    H139560   3.727   0.580  14.358 -2.3443 -0.0494  2.6626
 6023TIP3    H239561   3.813   0.490  14.444  1.0212 -0.0282 -0.4199
 6024TIP3   OH239562   3.026   1.107   3.836  0.1193 -0.0204  0.0289
 6024TIP3    H139563   3.102   1.160   3.860 -0.7325  1.4295 -0.3959
 6024TIP3    H239564   2.986   1.083   3.920  1.0258 -0.7966  0.2538
 6025TIP3   OH239565   3.790   4.783   6.122  0.5660  0.2834 -0.4959
 6025TIP3    H139566   3.863   4.750   6.174  0.5547  0.9872 -0.0135
 6025TIP3    H239567   3.718   4.791   6.185 -0.4913 -2.0590 -1.2841
 6026TIP3   OH239568   3.997   0.949   1.150 -0.5343  0.2567  0.1156
 6026TIP3    H139569   4.058   0.924   1.220  0.2856 -2.0933 -1.3276
 6026TIP3    H239570   3.925   0.888   1.159 -0.7189  0.3473 -0.7034
 6027TIP3   OH239571   3.395   5.570   4.641 -0.0508  0.0790  0.2256
 6027TIP3    H139572   3.364   5.635   4.578 -1.7544 -0.4360  0.4700
 6027TIP3    H239573   3.346   5.490   4.619  0.6489 -0.5983  1.0707
 6028TIP3   OH239574   5.749   6.858  10.302  0.1359 -0.2343 -0.2016
 6028TIP3    H139575   5.707   6.919  10.362  0.8368  0.5242 -0.4611
 6028TIP3    H239576   5.801   6.914  10.244  0.2071 -1.0253 -0.9129
 6029TIP3   OH239577   2.180   4.875   2.267  0.0749 -0.3680  0.1651
 6029TIP3    H139578   2.274   4.890   2.278 -0.1050  0.4407  0.7298
 6029TIP3    H239579   2.151   4.948   2.213 -0.2374 -0.5832  0.0469
 6030TIP3   OH239580   6.745   2.376   2.583  0.1935 -0.6597 -0.4631
 6030TIP3    H139581   6.791   2.368   2.666 -2.8580  0.2995  1.4911
 6030TIP3    H239582   6.723   2.469   2.576 -1.7763 -1.1004 -0.9613
 6031TIP3   OH239583   0.841   4.068   3.106 -0.1585 -0.0130  0.0638
 6031TIP3    H139584   0.816   4.009   3.034  1.8740 -0.8972  0.0066
 6031TIP3    H239585   0.891   4.012   3.166 -0.0324  1.1960  1.1146
 6032TIP3   OH239586   2.243   1.345   2.429  0.4978  1.1098  0.3701
 6032TIP3    H139587   2.299   1.274   2.399 -3.1011 -1.8941  0.0632
 6032TIP3    H239588   2.290   1.383   2.504  3.0070 -0.9225 -0.0439
 6033TIP3   OH239589   0.643   6.305   4.913  0.3709 -0.0763  0.3079
 6033TIP3    H139590   0.727   6.324   4.870  0.7422  1.1010  1.4941
 6033TIP3    H239591   0.577   6.332   4.850  0.8996  1.9484  0.5494
 6034TIP3   OH239592   2.742   4.608   4.868 -0.1198  0.2196 -0.0090
 6034TIP3    H139593   2.793   4.652   4.800 -0.7806  1.9515  0.5683
 6034TIP3    H239594   2.808   4.573   4.928  0.4577  1.8933  0.3998
 6035TIP3   OH239595   2.279   6.020  13.805 -0.5497 -1.0328 -0.3835
 6035TIP3    H139596   2.277   6.111  13.834  0.1379 -0.4433 -2.0956
 6035TIP3    H239597   2.227   5.974  13.871  0.4926  0.2878  1.4669
 6036TIP3   OH239598   3.818   1.599   4.080  0.0273  0.6826 -0.5854
 6036TIP3    H139599   3.899   1.552   4.057  0.7101  1.4199  0.2203
 6036TIP3    H239600   3.749   1.532   4.074  0.9145 -0.3425  0.1852
 6037TIP3   OH239601   5.527   3.117  16.401  0.2426 -0.1180 -0.1510
 6037TIP3    H139602   5.454   3.178  16.415 -0.7747 -1.1276 -0.8419
 6037TIP3    H239603   5.542   3.119  16.306 -1.2630 -2.4592 -0.5378
 6038TIP3   OH239604   6.255   1.164   1.785  0.5987  0.0965  0.1036
 6038TIP3    H139605   6.301   1.221   1.847 -1.1503  1.5036  0.2164
 6038TIP3    H239606   6.226   1.089   1.837 -2.3806  2.0845  1.5914
 6039TIP3   OH239607   6.785   0.053   4.903  0.0111 -0.3590 -0.3414
 6039TIP3    H139608   6.741  -0.005   4.966  0.7641  1.9111  2.4933
 6039TIP3    H239609   6.870   0.012   4.887  0.5537 -0.0920  1.6579
 6040TIP3   OH239610   0.226   1.862  12.718  0.1965 -0.2432 -0.3283
 6040TIP3    H139611   0.201   1.952  12.700 -0.4290 -0.3390  0.0415
 6040TIP3    H239612   0.255   1.862  12.809  0.2044 -0.4163 -0.3300
 6041TIP3   OH239613   1.312   2.653   4.540  0.1286 -0.3544 -0.4090
 6041TIP3    H139614   1.297   2.565   4.507  2.0114 -0.9505  0.2057
 6041TIP3    H239615   1.334   2.641   4.632  0.8586  0.7009 -0.4228
 6042TIP3   OH239616   2.886   3.807   0.086  0.2449  0.2053 -0.1947
 6042TIP3    H139617   2.807   3.762   0.117 -0.0050 -0.1769 -1.3353
 6042TIP3    H239618   2.927   3.744   0.026  1.1067  0.6313 -0.0694
 6043TIP3   OH239619   2.605   1.169   0.862 -0.0385  0.1063  0.3203
 6043TIP3    H139620   2.549   1.140   0.790 -0.5621 -0.1467  0.8275
 6043TIP3    H239621   2.668   1.229   0.821 -0.2547 -0.1316 -0.3668
 6044TIP3   OH239622   0.094   5.738  11.333 -0.2199  0.1547 -0.3831
 6044TIP3    H139623   0.080   5.669  11.398  2.1688 -0.2063 -0.1379
 6044TIP3    H239624   0.044   5.710  11.256 -0.2903 -1.2264  0.1392
 6045TIP3   OH239625   6.548   3.259   2.309 -0.4446  0.0709 -0.2737
 6045TIP3    H139626   6.526   3.336   2.362  0.0728 -0.2202  0.3714
 6045TIP3    H239627   6.465   3.234   2.268 -0.8540  0.2958  0.4022
 6046TIP3   OH239628   6.607   1.912   0.140 -0.7719 -0.1457  0.5627
 6046TIP3    H139629   6.654   1.987   0.103 -1.4091 -0.4882 -1.0394
 6046TIP3    H239630   6.668   1.875   0.204  0.7584 -0.0073 -0.7363
 6047TIP3   OH239631   1.164   2.779  11.463  0.0108  0.3190  0.6601
 6047TIP3    H139632   1.080   2.745  11.432 -1.1552  3.6277 -0.3135
 6047TIP3    H239633   1.174   2.741  11.550 -1.6851 -1.4271  0.1675
 6048TIP3   OH239634   6.826   2.904  12.471 -0.3705  0.2045 -0.1083
 6048TIP3    H139635   6.909   2.899  12.424 -0.6002 -0.9201 -0.4223
 6048TIP3    H239636   6.842   2.968  12.540  0.8202 -0.1280 -0.0479
 6049TIP3   OH239637   1.304   4.344  12.823  0.0581 -0.0758 -0.2477
 6049TIP3    H139638   1.276   4.432  12.848 -0.9321 -0.6892  0.9001
 6049TIP3    H239639   1.243   4.316  12.755 -1.3970 -0.9157  1.3460
 6050TIP3   OH239640   5.053   3.863   3.017 -0.2119  0.0257  0.3015
 6050TIP3    H139641   4.969   3.882   2.976  0.1917  0.2188 -0.4545
 6050TIP3    H239642   5.074   3.942   3.067  0.3369  0.6814 -0.9210
 6051TIP3   OH239643   0.862   1.370  13.126  0.4864 -0.1039  0.1861
 6051TIP3    H139644   0.805   1.417  13.186 -0.9396 -2.2732  0.6731
 6051TIP3    H239645   0.949   1.405  13.142  0.0107  0.0491  2.8921
 6052TIP3   OH239646   5.419   2.715   1.099 -0.0256 -0.0671 -0.6249
 6052TIP3    H139647   5.437   2.627   1.065  0.4759  0.0727 -0.7242
 6052TIP3    H239648   5.464   2.773   1.038  0.8160  0.1951  0.2283
 6053TIP3   OH239649   1.679   6.575  11.831  0.0796  0.2974  0.1166
 6053TIP3    H139650   1.633   6.585  11.914 -0.8350  0.3830 -0.3890
 6053TIP3    H239651   1.734   6.653  11.824 -1.7617  1.6205 -0.5222
 6054TIP3   OH239652   6.313   1.861  14.814  0.4181  0.1467 -0.0019
 6054TIP3    H139653   6.257   1.837  14.740  2.0336 -2.5635 -0.5288
 6054TIP3    H239654   6.303   1.788  14.876  0.4071  1.5320  1.6844
 6055TIP3   OH239655   2.804   1.337   5.072 -0.1945 -0.1386  0.1518
 6055TIP3    H139656   2.756   1.368   4.995  0.3334  1.2019  0.3363
 6055TIP3    H239657   2.871   1.278   5.036 -0.6826 -0.4372 -0.2902
 6056TIP3   OH239658   2.102   2.908   1.927 -0.0037 -0.0142  0.3432
 6056TIP3    H139659   2.157   2.893   2.004 -0.6152 -1.4376  0.5212
 6056TIP3    H239660   2.163   2.941   1.861  1.2718 -2.3077  0.2807
 6057TIP3   OH239661   3.462   0.351   4.655  0.1203  0.4062 -0.5665
 6057TIP3    H139662   3.505   0.433   4.629 -0.4533  0.7833 -0.3515
 6057TIP3    H239663   3.464   0.353   4.751 -1.0017  0.7701 -0.5462
 6058TIP3   OH239664   3.786   5.867   0.529  0.1452  0.5800 -1.1281
 6058TIP3    H139665   3.722   5.939   0.530  0.0848  0.5227 -0.4611
 6058TIP3    H239666   3.830   5.876   0.445 -0.4725  0.8629 -1.4314
 6059TIP3   OH239667   3.093   3.733   2.707 -0.6216  0.5665 -0.1107
 6059TIP3    H139668   3.160   3.681   2.662 -2.1823  0.0454 -1.9487
 6059TIP3    H239669   3.128   3.822   2.708  0.2848  0.2272 -0.6637
 6060TIP3   OH239670   5.344   0.338  14.998 -0.3336 -0.0028 -0.0303
 6060TIP3    H139671   5.375   0.264  14.946 -1.1953 -1.4775  1.4667
 6060TIP3    H239672   5.390   0.414  14.961  1.3829 -1.3994 -0.9319
 6061TIP3   OH239673   1.735   3.103   3.002  0.0795 -0.2991 -1.0944
 6061TIP3    H139674   1.654   3.085   2.954 -1.2710 -0.6053  1.1424
 6061TIP3    H239675   1.705   3.142   3.085  2.1600 -1.1570  0.1355
 6062TIP3   OH239676   2.911   1.716  16.146  0.3908  0.0498 -0.3523
 6062TIP3    H139677   2.993   1.691  16.189  0.6807  0.6731 -0.5265
 6062TIP3    H239678   2.937   1.737  16.056 -0.0044 -0.0088 -0.4830
 6063TIP3   OH239679   1.686   0.112  14.726  0.0546  0.0195  0.1570
 6063TIP3    H139680   1.591   0.114  14.736 -0.0838  0.5488 -1.0620
 6063TIP3    H239681   1.718   0.070  14.806 -1.1796  0.0838  0.7047
 6064TIP3   OH239682   1.995   1.699  13.738  0.4601 -0.0820 -0.2921
 6064TIP3    H139683   1.912   1.734  13.705  0.2908 -0.6691 -0.4924
 6064TIP3    H239684   1.995   1.721  13.831  1.3731  2.4519 -0.8094
 6065TIP3   OH239685   2.837   2.863  13.632  0.3868 -0.0665 -0.1395
 6065TIP3    H139686   2.773   2.846  13.563  1.0766  0.1602 -0.8602
 6065TIP3    H239687   2.919   2.879  13.584  0.6305  1.2422  0.6667
 6066TIP3   OH239688   2.880   6.008   4.124  0.3327 -0.1019 -0.0454
 6066TIP3    H139689   2.827   6.088   4.131  0.0118 -0.3701  0.6907
 6066TIP3    H239690   2.816   5.938   4.119  0.5697 -0.5275  1.9222
 6067TIP3   OH239691   6.131   2.471  10.998 -0.1382  0.2859 -0.2331
 6067TIP3    H139692   6.141   2.429  10.912 -0.2976  1.9015 -1.0656
 6067TIP3    H239693   6.074   2.546  10.982  0.5581  1.1406  1.1095
 6068TIP3   OH239694   3.638   2.211  11.166 -0.4559  0.4093  0.1543
 6068TIP3    H139695   3.730   2.222  11.140 -0.2110  0.0888  0.8407
 6068TIP3    H239696   3.588   2.235  11.089  0.1885  1.4207  0.0298
 6069TIP3   OH239697   3.909   3.106   2.925 -0.3746 -0.2133 -0.0396
 6069TIP3    H139698   3.997   3.073   2.946  0.3029 -0.1562 -2.4588
 6069TIP3    H239699   3.899   3.183   2.982  1.5753  0.3659 -0.3888
 6070TIP3   OH239700   3.145   1.269  10.768 -0.2231 -0.4949 -0.2626
 6070TIP3    H139701   3.152   1.363  10.751  0.0571 -0.4252  0.2148
 6070TIP3    H239702   3.235   1.243  10.790  0.1766 -1.3034 -2.5094
 6071TIP3   OH239703   0.118   2.023  11.727 -0.1023 -0.2996  0.1783
 6071TIP3    H139704   0.119   2.106  11.774 -1.7343 -0.3504  0.3757
 6071TIP3    H239705   0.114   2.048  11.635 -3.0909 -0.0093  0.2642
 6072TIP3   OH239706   2.189   1.875   4.016 -0.0430 -0.1214 -0.8400
 6072TIP3    H139707   2.211   1.890   4.107 -1.3125  0.9554 -0.6888
 6072TIP3    H239708   2.241   1.940   3.968 -1.0697  0.8371 -0.6800
 6073TIP3   OH239709   5.533   4.793   6.124  0.1694  0.1993 -0.0119
 6073TIP3    H139710   5.452   4.806   6.173 -0.1052  2.4228 -0.9415
 6073TIP3    H239711   5.589   4.743   6.183 -0.8038  1.2131  1.8473
 6074TIP3   OH239712   3.836   3.326   6.081  0.0761 -0.2843 -0.1480
 6074TIP3    H139713   3.870   3.275   6.155  0.1993 -1.7335 -1.1699
 6074TIP3    H239714   3.818   3.261   6.013  3.9350  1.2732 -3.0350
 6075TIP3   OH239715   4.314   3.222  12.832 -0.2402  0.0736  0.5301
 6075TIP3    H139716   4.229   3.233  12.876  0.4987 -0.3736  2.1294
 6075TIP3    H239717   4.356   3.308  12.840  0.7430 -0.5268  2.6507
 6076TIP3   OH239718   0.537   1.946   1.690 -0.3360  1.0795  0.6822
 6076TIP3    H139719   0.623   1.906   1.702 -0.3265  1.0912  0.6534
 6076TIP3    H239720   0.479   1.896   1.749 -0.6973 -0.2013 -0.6986
 6077TIP3   OH239721   6.414   2.371   4.003 -0.3112  0.0717 -0.0616
 6077TIP3    H139722   6.463   2.453   4.002 -0.5302  0.2062  0.1849
 6077TIP3    H239723   6.478   2.305   4.032 -0.4652  0.3734  0.9961
 6078TIP3   OH239724   3.878   0.477   3.199  0.1347 -0.5937 -0.4983
 6078TIP3    H139725   3.825   0.398   3.184  0.4955 -1.0488  0.5577
 6078TIP3    H239726   3.813   0.547   3.208 -0.1620 -0.5132 -2.6272
 6079TIP3   OH239727   1.947   6.749   0.857 -0.0547 -0.1227 -0.2825
 6079TIP3    H139728   1.923   6.675   0.801 -0.5786 -0.8729  0.9042
 6079TIP3    H239729   1.898   6.823   0.820 -0.4560 -0.6213 -0.7768
 6080TIP3   OH239730   5.819   1.920  16.222 -0.2591  0.4524 -0.4930
 6080TIP3    H139731   5.821   1.950  16.313 -0.7375 -0.8447 -0.0235
 6080TIP3    H239732   5.900   1.955  16.184 -0.5483  1.8646  0.1307
 6081TIP3   OH239733   5.177   4.975   3.258  0.2666 -0.3132  0.5609
 6081TIP3    H139734   5.168   5.031   3.181 -1.2077  0.6430  1.3804
 6081TIP3    H239735   5.087   4.949   3.280  0.6122 -0.3430  2.0962
 6082TIP3   OH239736   2.611   4.432   2.094 -0.3949 -0.0954  0.3614
 6082TIP3    H139737   2.601   4.467   2.006  1.8579  0.1959  0.1425
 6082TIP3    H239738   2.705   4.440   2.112 -0.7891 -0.0886  2.8165
 6083TIP3   OH239739   6.456   3.247  15.182  0.2364  0.8166  0.3648
 6083TIP3    H139740   6.434   3.217  15.094 -0.3030  3.0105 -0.3059
 6083TIP3    H239741   6.472   3.166  15.231 -4.7904 -0.9227 -0.2272
 6084TIP3   OH239742   3.077   6.230   5.377  0.1940 -0.0387  0.3318
 6084TIP3    H139743   3.145   6.165   5.362  1.0337  1.0786 -1.0499
 6084TIP3    H239744   3.119   6.297   5.431  0.1240  0.4965 -0.2554
 6085TIP3   OH239745   2.027   2.327   4.807  0.1083 -0.3575  0.3571
 6085TIP3    H139746   1.942   2.341   4.849 -0.8432 -0.4341 -1.4475
 6085TIP3    H239747   2.091   2.362   4.869 -1.4992  4.1794 -0.1967
 6086TIP3   OH239748   1.283   1.604  14.016  0.0278  0.0234 -0.1970
 6086TIP3    H139749   1.268   1.546  13.942  2.3686  0.4761 -1.1310
 6086TIP3    H239750   1.302   1.690  13.977  2.4789  0.0201  0.7554
 6087TIP3   OH239751   2.019   4.652  14.780 -0.2044  0.2105 -0.8740
 6087TIP3    H139752   2.031   4.689  14.693  0.4208  0.9168 -0.5059
 6087TIP3    H239753   2.061   4.715  14.839  0.7030 -0.9651 -0.2003
 6088TIP3   OH239754   4.674   0.155  12.093  0.2907 -0.4072  0.3557
 6088TIP3    H139755   4.763   0.122  12.106  0.1728  0.1122  3.0131
 6088TIP3    H239756   4.647   0.186  12.179 -2.3634 -0.2368 -0.4497
 6089TIP3   OH239757   6.085   3.350   3.262  0.0869 -0.2456  0.0798
 6089TIP3    H139758   6.155   3.356   3.327  0.4762 -0.6718 -0.3018
 6089TIP3    H239759   6.130   3.337   3.179 -0.4167  0.1420 -0.2591
 6090TIP3   OH239760   2.009   6.734  15.944 -0.0030 -0.4594 -0.2770
 6090TIP3    H139761   2.022   6.666  15.878 -0.0048 -0.3915 -0.3474
 6090TIP3    H239762   2.080   6.721  16.006  1.0325  0.5474 -1.2004
 6091TIP3   OH239763   6.519   4.916   5.223  0.3443 -0.1820  0.3209
 6091TIP3    H139764   6.521   4.890   5.131  1.7800 -0.5553  0.4226
 6091TIP3    H239765   6.505   5.011   5.221 -1.0877 -0.3851 -0.2046
 6092TIP3   OH239766   0.570   5.079  11.544  0.3465  0.0100  0.5585
 6092TIP3    H139767   0.582   5.131  11.624 -0.3540 -1.6136  1.7909
 6092TIP3    H239768   0.547   4.991  11.576  1.9612 -1.2250 -1.4079
 6093TIP3   OH239769   4.003   2.557   5.004  0.2746  0.2988 -0.0878
 6093TIP3    H139770   4.077   2.601   4.962 -0.4172  1.2861 -0.3026
 6093TIP3    H239771   3.940   2.544   4.934  0.9001 -2.1064 -0.2878
 6094TIP3   OH239772   6.314   2.712  16.232 -0.0402  0.2781  0.5065
 6094TIP3    H139773   6.339   2.801  16.257 -0.0776  0.2127  0.7850
 6094TIP3    H239774   6.393   2.659  16.249  0.3095  0.4177 -0.5980
 6095TIP3   OH239775   6.279   6.717  14.792  0.0041 -0.4850 -0.0116
 6095TIP3    H139776   6.348   6.725  14.726  1.3448 -1.5146  1.2049
 6095TIP3    H239777   6.237   6.633  14.773  0.6492 -0.9688  0.6516
 6096TIP3   OH239778   6.593   2.810   4.641 -0.2333  0.1907  0.4394
 6096TIP3    H139779   6.684   2.841   4.635 -0.5299  0.7601 -1.8669
 6096TIP3    H239780   6.596   2.720   4.609 -0.3143 -0.2428  1.5965
 6097TIP3   OH239781   2.789   2.341  14.454 -0.2522 -0.0179  0.0955
 6097TIP3    H139782   2.880   2.354  14.480  0.0005 -0.0170 -0.7527
 6097TIP3    H239783   2.790   2.350  14.359 -0.9791 -0.9328 -0.0125
 6098TIP3   OH239784   5.284   5.952   5.611  0.4949 -0.0220 -0.5339
 6098TIP3    H139785   5.285   5.887   5.541 -1.0354 -3.5776  2.4118
 6098TIP3    H239786   5.193   5.980   5.617  0.6632  0.4514 -0.1306
 6099TIP3   OH239787   0.045   0.063   2.788  0.2723  0.4351 -0.5539
 6099TIP3    H139788   0.104   0.023   2.724  0.8657  1.1369 -0.4542
 6099TIP3    H239789   0.103   0.107   2.850 -0.3506  1.0118 -0.3756
 6100TIP3   OH239790   2.426   1.556  12.085  0.3655 -0.1705 -0.1163
 6100TIP3    H139791   2.511   1.601  12.083  0.9478 -1.0955  1.6839
 6100TIP3    H239792   2.435   1.491  12.155 -1.4107 -1.1607 -0.7523
 6101TIP3   OH239793   3.658   5.369   3.485 -0.5559 -0.0905 -0.9234
 6101TIP3    H139794   3.717   5.316   3.431 -1.0353  0.2653 -1.8223
 6101TIP3    H239795   3.659   5.326   3.571  0.1064 -0.7628 -1.2551
 6102TIP3   OH239796   2.348   0.360  13.748 -0.1183 -0.4443  0.3737
 6102TIP3    H139797   2.347   0.423  13.821  0.5907  0.8371 -0.6722
 6102TIP3    H239798   2.257   0.357  13.718  0.3038  2.9061 -1.7997
 6103TIP3   OH239799   2.449   5.780  11.989 -0.1118 -0.3375  0.0741
 6103TIP3    H139800   2.368   5.759  12.035 -0.3145  0.4822  0.0996
 6103TIP3    H239801   2.517   5.736  12.040 -0.4177 -0.1006  0.7022
 6104TIP3   OH239802   2.099   5.631   0.266 -0.1033 -0.3256 -0.4875
 6104TIP3    H139803   2.027   5.613   0.206  1.2567  0.6092 -2.4936
 6104TIP3    H239804   2.146   5.705   0.227  0.8501  0.3597  1.7538
 6105TIP3   OH239805   0.559   4.662   0.549 -0.3000 -0.1458 -0.4098
 6105TIP3    H139806   0.552   4.640   0.456 -1.2722  0.4089 -0.4744
 6105TIP3    H239807   0.652   4.653   0.568 -0.2694 -1.5666 -1.1088
 6106TIP3   OH239808   6.700   6.060  17.120  0.2087  0.2832 -0.1454
 6106TIP3    H139809   6.710   6.154  17.103  0.8011  0.2369 -0.0624
 6106TIP3    H239810   6.673   6.056  17.212 -0.1867  0.3869 -0.2538
 6107TIP3   OH239811   4.109   2.743   1.183  0.1557  0.4076 -0.2275
 6107TIP3    H139812   4.133   2.668   1.129  1.4632  0.2281  0.5587
 6107TIP3    H239813   4.082   2.706   1.267  1.8509  0.8127  0.5458
 6108TIP3   OH239814   2.134   2.598   4.129  0.9397  0.0437  0.3046
 6108TIP3    H139815   2.109   2.673   4.076 -0.5660 -0.9624 -0.4903
 6108TIP3    H239816   2.155   2.529   4.065 -0.7927 -1.1588  0.9562
 6109TIP3   OH239817   2.129   6.210   2.987  0.7950 -0.0495  0.5956
 6109TIP3    H139818   2.053   6.181   3.037 -0.0238 -2.2751 -1.7230
 6109TIP3    H239819   2.110   6.301   2.965 -0.1460  0.0755  1.8560
 6110TIP3   OH239820   5.514   2.798   4.044 -0.5447 -0.4930 -0.2279
 6110TIP3    H139821   5.473   2.718   4.009 -0.6355 -0.1258 -0.9851
 6110TIP3    H239822   5.526   2.853   3.967 -1.8828  0.8522  0.4769
 6111TIP3   OH239823   1.284   2.460  12.138 -0.3055  0.4364  0.1575
 6111TIP3    H139824   1.342   2.514  12.192 -1.7345  0.5407  1.6452
 6111TIP3    H239825   1.294   2.371  12.172  0.4935  0.0689 -0.9504
 6112TIP3   OH239826   3.815   3.843   4.769  0.5953 -0.3161 -0.0595
 6112TIP3    H139827   3.812   3.755   4.731 -0.6962 -0.7178  0.8737
 6112TIP3    H239828   3.749   3.892   4.720 -1.0062 -0.8085  1.4963
 6113TIP3   OH239829   6.669   0.792  15.075 -0.4298  0.3496  0.4373
 6113TIP3    H139830   6.763   0.772  15.077 -0.7200 -1.3097 -0.2953
 6113TIP3    H239831   6.644   0.780  14.984 -1.2681  1.3222  0.5212
 6114TIP3   OH239832   0.005   0.200  14.085  0.4039 -0.3838  0.1235
 6114TIP3    H139833   0.009   0.105  14.082  0.6676 -0.3633 -0.7078
 6114TIP3    H239834   0.088   0.228  14.046 -0.1557  0.1761 -0.7102
 6115TIP3   OH239835   3.229   0.768  12.017 -0.5886 -0.0192  1.1158
 6115TIP3    H139836   3.221   0.788  12.110 -3.5058 -1.4603  1.2943
 6115TIP3    H239837   3.212   0.673  12.012  0.2655 -0.1116 -0.8195
 6116TIP3   OH239838   5.647   4.998   0.005  0.0177 -0.8854  0.0156
 6116TIP3    H139839   5.707   5.071   0.022  0.5789 -1.8576  2.6451
 6116TIP3    H239840   5.629   5.004  -0.089  2.7066  0.6184 -0.5262
 6117TIP3   OH239841   4.879   1.493   2.041 -0.0217 -0.0698  0.6077
 6117TIP3    H139842   4.954   1.506   1.982  0.5796 -0.5112  1.2573
 6117TIP3    H239843   4.847   1.581   2.059  0.8391  0.1825  0.9468
 6118TIP3   OH239844   5.171   1.293  15.768  0.2880  0.0920 -0.0150
 6118TIP3    H139845   5.211   1.300  15.854  0.3978  2.1962 -0.1787
 6118TIP3    H239846   5.224   1.351  15.712 -1.3803  0.8798 -0.8551
 6119TIP3   OH239847   1.344   5.386   1.393  0.1036  0.3409 -0.0295
 6119TIP3    H139848   1.413   5.385   1.459  1.9130 -0.5028 -1.8061
 6119TIP3    H239849   1.347   5.474   1.357  0.7574  0.1125 -0.5588
 6120TIP3   OH239850   0.249   0.482   4.404 -0.0376  0.2007  0.2789
 6120TIP3    H139851   0.297   0.471   4.322  0.2825 -1.2125  0.6272
 6120TIP3    H239852   0.305   0.539   4.457  0.7912 -0.5933  0.2910
 6121TIP3   OH239853   6.000   4.798  12.349 -0.3119 -0.1907 -0.1843
 6121TIP3    H139854   5.998   4.894  12.344 -1.7467 -0.1980 -0.2629
 6121TIP3    H239855   5.968   4.778  12.437 -0.4514 -0.6107 -0.3284
 6122TIP3   OH239856   1.848   6.262   1.857 -0.0390 -0.3237 -0.9548
 6122TIP3    H139857   1.811   6.175   1.871 -0.4127  0.2670  2.9989
 6122TIP3    H239858   1.942   6.247   1.847  0.0862 -1.2007  1.0776
 6123TIP3   OH239859   0.627   0.262   1.075  0.2060 -0.6307 -0.0159
 6123TIP3    H139860   0.608   0.290   1.164  0.7525  0.9958 -0.3611
 6123TIP3    H239861   0.718   0.290   1.060 -0.0844 -0.2862 -1.2748
 6124TIP3   OH239862   3.921   5.280   3.384 -0.5933  0.1165  0.0929
 6124TIP3    H139863   4.001   5.328   3.408 -0.3473 -0.7581  1.0626
 6124TIP3    H239864   3.905   5.306   3.294  1.5299 -0.6888 -0.5762
 6125TIP3   OH239865   2.878   1.663  13.863 -0.1046  0.4154 -0.1321
 6125TIP3    H139866   2.950   1.662  13.925 -0.8098  1.1628  0.7218
 6125TIP3    H239867   2.892   1.585  13.809  0.6402 -0.1208  0.8125
 6126TIP3   OH239868   5.285   3.900   1.148 -0.5377  0.3455  0.1520
 6126TIP3    H139869   5.233   3.966   1.103 -2.5402 -0.2880  1.4193
 6126TIP3    H239870   5.347   3.950   1.201 -1.5733  1.2192  0.5738
 6127TIP3   OH239871   5.591   4.520   0.078  0.3465  0.5280 -0.2992
 6127TIP3    H139872   5.684   4.510   0.056  0.5230  0.4202  0.4716
 6127TIP3    H239873   5.547   4.453   0.025  0.8444 -0.2233  0.2152
 6128TIP3   OH239874   3.350   2.542  15.242  0.0133 -0.7917  0.2220
 6128TIP3    H139875   3.334   2.529  15.335 -2.6566 -2.8073 -0.3844
 6128TIP3    H239876   3.266   2.574  15.208  0.7310 -0.7125 -1.5869
 6129TIP3   OH239877   0.596   2.634  13.113 -0.2757 -0.1044  0.0623
 6129TIP3    H139878   0.508   2.668  13.099 -0.8738 -1.0803  1.2632
 6129TIP3    H239879   0.610   2.640  13.208  1.7412  1.8588 -0.2634
 6130TIP3   OH239880   2.045   4.620   0.290 -0.6129 -0.2788 -0.3384
 6130TIP3    H139881   2.009   4.572   0.365 -0.1140  1.4048  1.0627
 6130TIP3    H239882   2.115   4.565   0.257 -1.4584 -1.4894 -0.1756
 6131TIP3   OH239883   4.407   0.211   2.666 -0.3769  0.3545  0.4699
 6131TIP3    H139884   4.364   0.254   2.592  0.2960  2.3336  1.1628
 6131TIP3    H239885   4.489   0.178   2.629  0.1053  1.6090  0.3491
 6132TIP3   OH239886   2.010   0.468   1.335  0.1811 -0.2682 -0.7588
 6132TIP3    H139887   1.957   0.489   1.412 -0.4324 -1.6029 -0.7891
 6132TIP3    H239888   1.951   0.479   1.261  0.6274  0.5142 -1.0047
 6133TIP3   OH239889   5.594   1.409   0.683 -0.1676 -0.5889 -0.1604
 6133TIP3    H139890   5.598   1.489   0.630 -0.6891 -0.6060 -0.2339
 6133TIP3    H239891   5.676   1.364   0.664  0.1265 -0.0733 -0.1246
 6134TIP3   OH239892   2.373   0.467   0.461  0.1008 -0.6791 -0.3301
 6134TIP3    H139893   2.311   0.401   0.429  0.7907 -0.7852 -1.4563
 6134TIP3    H239894   2.392   0.522   0.385 -0.0120  0.4808  0.4533
 6135TIP3   OH239895   0.387   5.124  11.088  0.5898 -0.0020 -0.5596
 6135TIP3    H139896   0.397   5.194  11.152 -0.2064 -0.1761 -0.2331
 6135TIP3    H239897   0.300   5.087  11.105  0.7074 -0.6060 -1.1873
 6136TIP3   OH239898   0.668   1.677  14.861 -0.0452  0.0611 -0.0980
 6136TIP3    H139899   0.727   1.622  14.913 -0.4239 -0.5149 -0.2672
 6136TIP3    H239900   0.667   1.760  14.907  0.5450 -0.0700  0.1601
 6137TIP3   OH239901   1.952   5.965   0.114  0.1257 -0.3328  0.0020
 6137TIP3    H139902   1.928   5.882   0.074  0.5080  0.7465 -2.7670
 6137TIP3    H239903   2.037   5.949   0.155  0.2605 -1.2943 -0.6275
 6138TIP3   OH239904   4.098   4.317  12.697  0.4729  0.0493 -0.3587
 6138TIP3    H139905   4.182   4.274  12.688  0.3863  0.1030 -1.5624
 6138TIP3    H239906   4.056   4.274  12.771  1.7508  0.3608  0.5779
 6139TIP3   OH239907   2.424   0.195   2.971  0.2093  0.0788  0.3616
 6139TIP3    H139908   2.365   0.241   2.912 -0.5700 -0.1630  0.9364
 6139TIP3    H239909   2.368   0.166   3.043  0.7647 -1.3104  0.2708
 6140TIP3   OH239910   5.491   6.209   2.725 -0.2579 -0.2715 -0.2899
 6140TIP3    H139911   5.470   6.129   2.678 -1.0642 -1.4905  1.9970
 6140TIP3    H239912   5.408   6.255   2.734 -0.9353 -1.8384  2.9399
 6141TIP3   OH239913   6.828   0.642  13.231  0.0824  0.2787  0.3032
 6141TIP3    H139914   6.755   0.583  13.252  0.9449 -0.8957  0.1358
 6141TIP3    H239915   6.875   0.597  13.161  0.2541  1.6310 -0.4806
 6142TIP3   OH239916   2.021   6.512   0.115  0.5763 -0.2201 -0.3650
 6142TIP3    H139917   1.965   6.436   0.102 -0.1181  0.1803  0.1792
 6142TIP3    H239918   1.960   6.582   0.141  1.3640  0.1370  0.5877
 6143TIP3   OH239919   2.522   6.040   0.853 -0.3418 -0.8022  0.1502
 6143TIP3    H139920   2.560   6.125   0.874 -0.5726 -1.2514  2.7249
 6143TIP3    H239921   2.510   6.041   0.758  1.0245  1.4390 -0.0555
 6144TIP3   OH239922   1.195   6.150   3.956  0.3811  0.5582  0.4576
 6144TIP3    H139923   1.174   6.143   4.049 -0.4341  0.8481  0.2969
 6144TIP3    H239924   1.115   6.125   3.911  0.8330  0.2182 -0.1753
 6145TIP3   OH239925   6.064   2.012   3.748  0.1262  0.4228  0.3056
 6145TIP3    H139926   6.122   2.002   3.673 -0.0059  0.8770  0.1430
 6145TIP3    H239927   6.122   2.033   3.821  0.3187 -0.6046  0.4683
 6146TIP3   OH239928   4.561   2.290   1.169  0.2273  0.0335  0.1529
 6146TIP3    H139929   4.522   2.362   1.118  4.2954  1.4304 -1.3701
 6146TIP3    H239930   4.585   2.330   1.252  0.9979  0.0259 -0.0588
 6147TIP3   OH239931   0.758   6.566   3.993  0.1472  0.2948  0.3327
 6147TIP3    H139932   0.795   6.479   3.978  0.4720  0.5827 -0.5932
 6147TIP3    H239933   0.804   6.598   4.071  1.1666  0.2622 -0.2382
 6148TIP3   OH239934   4.413   6.326  11.232  0.2856 -0.4904 -0.5578
 6148TIP3    H139935   4.341   6.267  11.256 -0.7059  1.3727  1.4107
 6148TIP3    H239936   4.399   6.343  11.139 -0.2090 -2.2319 -0.8457
 6149TIP3   OH239937   6.063   3.438  13.283 -0.1121 -0.0310 -0.2855
 6149TIP3    H139938   6.134   3.387  13.320  1.3887  1.3235 -1.1545
 6149TIP3    H239939   6.096   3.467  13.197 -2.4218 -0.8930 -1.5741
 6150TIP3   OH239940   2.661   3.687  14.539  0.8122  0.3699 -0.5986
 6150TIP3    H139941   2.741   3.648  14.574  0.4145  0.2021  0.1277
 6150TIP3    H239942   2.590   3.648  14.589  0.3002  0.8956 -0.8925
 6151TIP3   OH239943   2.259   5.534  12.011 -0.2224 -0.3284  0.3202
 6151TIP3    H139944   2.324   5.494  12.070  1.0267 -0.4365 -1.0758
 6151TIP3    H239945   2.294   5.519  11.923 -1.1565  1.3487 -0.3787
 6152TIP3   OH239946   6.228   5.493   3.699 -0.2553  0.1537  0.3812
 6152TIP3    H139947   6.251   5.582   3.724 -0.6185  0.1501  0.7538
 6152TIP3    H239948   6.191   5.455   3.779  1.4252 -0.8774  0.7131
 6153TIP3   OH239949   6.094   2.223  12.504  0.2011 -0.1974 -0.4410
 6153TIP3    H139950   6.037   2.151  12.477 -2.1585  0.1961  2.8597
 6153TIP3    H239951   6.159   2.182  12.560  0.2420 -0.0462 -0.3773
 6154TIP3   OH239952   6.018   1.551   5.607  0.7043  0.6229 -0.0422
 6154TIP3    H139953   6.020   1.531   5.701 -0.2878  0.7983  0.0334
 6154TIP3    H239954   6.015   1.465   5.565 -1.5208  0.5065  0.2124
 6155TIP3   OH239955   3.245   4.738   3.786 -0.1139  0.0365 -0.4184
 6155TIP3    H139956   3.174   4.800   3.767 -0.4490  0.0414  0.7544
 6155TIP3    H239957   3.208   4.652   3.765 -1.8775 -0.3856  3.5094
 6156TIP3   OH239958   6.823   0.788   4.541 -0.5357 -0.6128 -0.8433
 6156TIP3    H139959   6.802   0.704   4.582 -0.7050 -0.1666  0.0228
 6156TIP3    H239960   6.918   0.797   4.553 -0.5224 -0.6683 -0.9068
 6157TIP3   OH239961   3.402   6.214   1.479  0.2267  0.3104  0.1106
 6157TIP3    H139962   3.385   6.120   1.479  2.7804 -0.2129  0.4918
 6157TIP3    H239963   3.354   6.246   1.556 -0.6691 -0.6712 -0.0208
 6158TIP3   OH239964   2.324   3.871   5.098 -0.4363  0.1715 -0.0612
 6158TIP3    H139965   2.320   3.827   5.183 -0.7497 -1.5522 -0.9186
 6158TIP3    H239966   2.418   3.876   5.078 -0.4048 -2.4441 -1.0239
 6159TIP3   OH239967   5.387   3.300  15.831 -1.2821 -0.1080  0.2937
 6159TIP3    H139968   5.401   3.224  15.774  1.1379 -0.3055  1.0467
 6159TIP3    H239969   5.292   3.310  15.835 -1.5945 -1.9419 -1.3253
 6160TIP3   OH239970   6.601   0.027   2.525  0.8838 -0.2633 -0.2557
 6160TIP3    H139971   6.679  -0.024   2.547  1.8656  0.6135 -1.5429
 6160TIP3    H239972   6.576  -0.004   2.438  1.4153  1.3072 -0.9948
 6161TIP3   OH239973   2.319   6.568   3.025  0.4078 -0.0655 -0.0739
 6161TIP3    H139974   2.407   6.549   3.056  0.0230 -3.8224 -0.7799
 6161TIP3    H239975   2.265   6.570   3.104  0.8338  0.5960  0.2141
 6162TIP3   OH239976   2.588   2.736  12.870  0.3148 -0.0800 -0.2663
 6162TIP3    H139977   2.651   2.670  12.899  0.4930  0.5489  0.8565
 6162TIP3    H239978   2.632   2.820  12.888 -0.9242  0.3772  0.8036
 6163TIP3   OH239979   3.385   5.439   3.699 -0.1313  0.0330 -0.6128
 6163TIP3    H139980   3.433   5.415   3.779 -2.2764  0.2684  0.8372
 6163TIP3    H239981   3.379   5.357   3.650  0.3426 -0.3479 -0.0590
 6164TIP3   OH239982   5.167   1.401  12.104 -0.0024  0.0429  0.3453
 6164TIP3    H139983   5.163   1.305  12.100 -3.3062  0.0999 -1.0526
 6164TIP3    H239984   5.223   1.426  12.031 -0.9799 -0.8047 -0.7226
 6165TIP3   OH239985   0.767   4.134   1.571 -0.6769 -0.4566  0.0938
 6165TIP3    H139986   0.672   4.146   1.563 -0.4301  1.0578 -0.9814
 6165TIP3    H239987   0.801   4.221   1.590  0.5401 -0.9140  0.1005
 6166TIP3   OH239988   0.434   6.403   4.736 -0.3653 -0.0994  0.6929
 6166TIP3    H139989   0.499   6.372   4.673 -1.0172  1.3406 -0.7735
 6166TIP3    H239990   0.356   6.419   4.683 -0.7614  1.6888  1.7322
 6167TIP3   OH239991   2.106   2.758  15.900 -0.3557  1.1417  0.2389
 6167TIP3    H139992   2.072   2.841  15.933 -0.8476  0.2818  2.0264
 6167TIP3    H239993   2.126   2.707  15.978  2.0708  0.3802 -0.7736
 6168TIP3   OH239994   5.730   5.009   4.351  0.3831 -0.1891 -0.3666
 6168TIP3    H139995   5.784   5.087   4.365  0.3714 -0.5317  2.1043
 6168TIP3    H239996   5.640   5.041   4.355  0.3703 -0.0720 -1.3497
 6169TIP3   OH239997   5.726   1.230   1.587 -0.1074  0.5341 -0.2018
 6169TIP3    H139998   5.766   1.212   1.503  0.2666 -1.8693  0.4340
 6169TIP3    H239999   5.645   1.178   1.587  1.7088 -2.6630  2.2633
 6170TIP3   OH240000   3.897   0.936  11.091 -0.3225  0.0963  0.2093
 6170TIP3    H140001   3.916   0.921  11.184 -1.7692 -0.9014  0.3792
 6170TIP3    H240002   3.881   1.030  11.085  0.4040  0.2803  0.8289
 6171TIP3   OH240003   5.510   5.979   3.659  0.0061 -0.0752  0.0510
 6171TIP3    H140004   5.514   6.000   3.566  0.5942 -0.1354  0.0601
 6171TIP3    H240005   5.421   6.002   3.685  0.5482  2.3249  0.0392
 6172TIP3   OH240006   3.795   3.274  13.860  0.2109 -0.0955  0.3871
 6172TIP3    H140007   3.729   3.220  13.815  0.1983  1.1320 -1.1419
 6172TIP3    H240008   3.840   3.321  13.790  0.7442  1.3137  1.6179
 6173TIP3   OH240009   0.177   6.642   4.776 -0.1663 -0.1456 -0.0241
 6173TIP3    H140010   0.219   6.590   4.707  0.9523  0.9284 -0.1974
 6173TIP3    H240011   0.119   6.581   4.821  1.6563 -1.7551  0.2805
 6174TIP3   OH240012   3.609   1.728   2.967 -0.2505 -0.3762  0.2510
 6174TIP3    H140013   3.591   1.742   3.060 -1.2693 -0.2422  0.0363
 6174TIP3    H240014   3.617   1.816   2.931  1.3770 -0.4220  0.4282
 6175TIP3   OH240015   4.985   4.457   3.685  0.1141  0.4011  0.1207
 6175TIP3    H140016   5.053   4.416   3.739 -0.1618  0.0281  0.1864
 6175TIP3    H240017   4.928   4.385   3.659 -0.0046  0.6440 -0.3076
 6176TIP3   OH240018   3.384   1.683   5.864  0.0676  0.5931 -0.4105
 6176TIP3    H140019   3.462   1.713   5.817  0.8777 -0.5014  0.1933
 6176TIP3    H240020   3.386   1.729   5.947  1.7499 -1.5904  0.8519
 6177TIP3   OH240021   2.933   3.965   0.581  0.0960  0.0163  0.1839
 6177TIP3    H140022   2.844   3.993   0.560  0.2805  0.2148 -0.3506
 6177TIP3    H240023   2.973   4.041   0.623 -0.3301 -0.4406  1.4579
 6178TIP3   OH240024   2.445   5.674  16.251 -0.2075 -0.6491 -0.0339
 6178TIP3    H140025   2.388   5.598  16.239 -0.5122 -0.8667  2.2864
 6178TIP3    H240026   2.391   5.737  16.298  1.3510 -0.8021  2.0806
 6179TIP3   OH240027   2.881   1.157  13.280 -0.2006  0.3453  0.0460
 6179TIP3    H140028   2.910   1.082  13.228 -2.2397 -1.7381  1.7190
 6179TIP3    H240029   2.795   1.179  13.245 -1.0359 -0.2663  1.5853
 6180TIP3   OH240030   4.022   4.753  11.567 -0.3300 -0.0130  0.1166
 6180TIP3    H140031   4.036   4.667  11.606 -0.4475  0.2323  0.7023
 6180TIP3    H240032   4.003   4.811  11.641  0.1383  0.6014 -0.2279
 6181TIP3   OH240033   0.646   3.514   0.472  0.8284 -1.1711 -0.0571
 6181TIP3    H140034   0.704   3.500   0.546 -0.4065  0.1458  1.2227
 6181TIP3    H240035   0.627   3.608   0.474 -0.9362 -1.4730 -0.7279
 6182TIP3   OH240036   0.104   3.410   4.606  0.4045 -0.4960 -0.3355
 6182TIP3    H140037   0.119   3.448   4.692 -0.1703  0.1917 -0.5304
 6182TIP3    H240038   0.010   3.418   4.591  0.5283 -0.3775 -1.1321
 6183TIP3   OH240039   0.554   4.146   0.241 -0.5444  0.2114 -0.5569
 6183TIP3    H140040   0.567   4.182   0.328 -0.1874 -0.0168 -0.5113
 6183TIP3    H240041   0.466   4.109   0.242 -0.0943 -0.8964  0.1133
 6184TIP3   OH240042   6.646   5.315   2.262  0.2060  0.0816 -0.1203
 6184TIP3    H140043   6.735   5.282   2.272  0.4490  0.7893  0.0388
 6184TIP3    H240044   6.608   5.309   2.350 -0.5478 -2.0210 -0.5312
 6185TIP3   OH240045   6.128   4.064   2.135  0.3905 -0.5303 -0.4922
 6185TIP3    H140046   6.218   4.030   2.144  0.7575 -0.2649 -2.5518
 6185TIP3    H240047   6.108   4.051   2.042  0.1001  3.6619 -1.2030
 6186TIP3   OH240048   5.082   4.808  11.246  0.6020  0.2676  0.1517
 6186TIP3    H140049   5.028   4.730  11.238  2.1504 -1.0322  1.5454
 6186TIP3    H240050   5.143   4.802  11.173  0.1788  0.6359 -0.2343
 6187TIP3   OH240051   3.315   3.634  14.545 -0.2492 -0.2683  0.0358
 6187TIP3    H140052   3.371   3.582  14.487 -0.6222 -0.2673 -0.3306
 6187TIP3    H240053   3.327   3.724  14.516 -1.2610 -0.3677 -0.7756
 6188TIP3   OH240054   4.862   2.551  11.331  0.3493  0.1287  0.7070
 6188TIP3    H140055   4.803   2.482  11.302  0.4294  1.3107 -2.7283
 6188TIP3    H240056   4.948   2.508  11.334  0.0957 -0.4030  0.5856
 6189TIP3   OH240057   6.012   5.878  13.327 -0.1145 -0.3026 -0.7567
 6189TIP3    H140058   6.080   5.825  13.368  1.1596 -0.1127 -2.4844
 6189TIP3    H240059   5.956   5.814  13.282 -0.8222 -0.4263  0.2815
 6190TIP3   OH240060   5.629   5.294  12.532 -0.5608 -0.9018  0.1395
 6190TIP3    H140061   5.723   5.307  12.522 -0.3386 -0.6268  2.2926
 6190TIP3    H240062   5.616   5.200  12.521  0.0414 -1.0171  0.4289
 6191TIP3   OH240063   4.419   6.419   3.701 -0.0525  0.0654  0.2484
 6191TIP3    H140064   4.445   6.511   3.690  0.8208 -0.4114 -1.9844
 6191TIP3    H240065   4.485   6.369   3.654  0.2428 -1.8661  2.5231
 6192TIP3   OH240066   1.887   4.419   2.251  0.3025 -0.1322 -0.1743
 6192TIP3    H140067   1.890   4.507   2.214  1.3782 -0.3607 -0.6518
 6192TIP3    H240068   1.912   4.431   2.343 -0.1873  0.1337 -0.0690
 6193TIP3   OH240069   3.862   0.628  16.833 -0.0801 -0.2024  0.7354
 6193TIP3    H140070   3.913   0.676  16.768 -0.2546 -1.9484 -0.7501
 6193TIP3    H240071   3.876   0.677  16.915  1.6234  0.9954 -0.2135
 6194TIP3   OH240072   1.764   2.260  15.467 -0.2886  0.1757  0.0804
 6194TIP3    H140073   1.718   2.200  15.409 -1.4189  0.9237  0.1764
 6194TIP3    H240074   1.817   2.313  15.409 -0.5045  0.1334 -0.1563
 6195TIP3   OH240075   2.254   0.367   4.570  0.7596 -0.0781 -0.4043
 6195TIP3    H140076   2.214   0.374   4.483  1.1619  0.1842 -0.5688
 6195TIP3    H240077   2.298   0.282   4.569 -0.8990 -0.9880  0.2460
 6196TIP3   OH240078   3.724   3.903   4.277  0.0635  0.1923 -0.0854
 6196TIP3    H140079   3.689   3.935   4.360  0.8576  0.5328  0.1317
 6196TIP3    H240080   3.765   3.819   4.298  0.9977  0.6623  0.0601
 6197TIP3   OH240081   5.212   6.816  12.187 -0.6979 -0.0218 -0.2746
 6197TIP3    H140082   5.242   6.797  12.276 -2.2060 -2.7178 -0.2469
 6197TIP3    H240083   5.186   6.732  12.152  1.9907  0.4765 -4.1907
 6198TIP3   OH240084   2.430   5.355  12.553  0.3908  0.1883  0.5442
 6198TIP3    H140085   2.393   5.440  12.530 -1.9528 -0.0511  2.9905
 6198TIP3    H240086   2.399   5.338  12.642  2.6586 -2.2288  1.0016
 6199TIP3   OH240087   5.366   2.015  12.208 -0.0408 -0.1580 -0.1166
 6199TIP3    H140088   5.432   2.083  12.222  1.2803 -1.2106 -0.9602
 6199TIP3    H240089   5.356   1.974  12.294  0.3645  0.0550  0.0356
 6200TIP3   OH240090   2.467   2.229   1.214 -0.1130  0.5586  0.4346
 6200TIP3    H140091   2.502   2.174   1.144  0.7196  1.0887  0.4277
 6200TIP3    H240092   2.382   2.190   1.235  0.3855 -0.6241  0.3093
 6201TIP3   OH240093   1.456   0.876  13.917 -0.0181  0.0178 -0.6247
 6201TIP3    H140094   1.483   0.945  13.978  0.0535 -0.6745  0.1279
 6201TIP3    H240095   1.530   0.816  13.914 -1.2112 -1.6853  1.1423
 6202TIP3   OH240096   5.746   4.595   4.811 -0.1425  0.7293  0.1879
 6202TIP3    H140097   5.746   4.691   4.812 -0.5767  0.7328  1.3859
 6202TIP3    H240098   5.659   4.570   4.842  0.5696 -0.0262  1.7230
 6203TIP3   OH240099   5.016   4.933  16.244 -0.0883 -0.1779 -0.1431
 6203TIP3    H140100   4.980   4.896  16.164  2.2095 -0.9651 -0.9099
 6203TIP3    H240101   4.954   5.001  16.270 -1.9453 -1.2986 -1.4135
 6204TIP3   OH240102   2.783   1.493  11.158 -0.4648 -0.4425  0.2678
 6204TIP3    H140103   2.752   1.584  11.159 -2.1620 -0.9115  3.1647
 6204TIP3    H240104   2.828   1.483  11.242  1.0621 -1.9177 -0.6654
 6205TIP3   OH240105   2.556   3.762   1.806 -0.7963 -0.1210  0.2657
 6205TIP3    H140106   2.573   3.811   1.887 -1.5779 -0.7223  0.8212
 6205TIP3    H240107   2.490   3.814   1.760 -1.2866 -0.4018  0.6349
 6206TIP3   OH240108   3.717   0.128  12.167 -0.0267  0.1703  0.6093
 6206TIP3    H140109   3.649   0.144  12.233 -0.8836 -2.7027  0.5600
 6206TIP3    H240110   3.749   0.040  12.186  1.3722  0.1723 -1.4081
 6207TIP3   OH240111   3.647   6.104   3.289 -0.5577  0.4354  0.2855
 6207TIP3    H140112   3.624   6.182   3.339  0.8216  0.6984  0.5291
 6207TIP3    H240113   3.720   6.130   3.234 -1.2780 -0.1841 -1.0315
 6208TIP3   OH240114   6.152   1.884   4.063  0.2775  0.2005 -0.3945
 6208TIP3    H140115   6.163   1.813   4.127  2.2455  2.2099  1.7165
 6208TIP3    H240116   6.057   1.895   4.055 -0.0422 -0.7567  1.4711
 6209TIP3   OH240117   1.982   0.715   4.160  0.5755 -1.2475  0.4113
 6209TIP3    H140118   2.012   0.784   4.101  2.4807 -1.5201  0.9927
 6209TIP3    H240119   1.910   0.672   4.113  0.5772 -0.0501 -0.7333
 6210TIP3   OH240120   5.420   3.202   4.989  0.0377  0.6024 -0.3623
 6210TIP3    H140121   5.417   3.256   5.068 -1.2652 -1.3752  1.0465
 6210TIP3    H240122   5.446   3.115   5.021  0.7669  0.0363 -2.3360
 6211TIP3   OH240123   3.434   4.932  16.965  0.6556 -0.4677 -0.0797
 6211TIP3    H140124   3.408   4.998  17.028 -0.9601  0.4405 -1.6162
 6211TIP3    H240125   3.482   4.866  17.016  1.3604  1.3244  1.6636
 6212TIP3   OH240126   5.512   5.216  12.777  0.1278 -0.0553 -0.1546
 6212TIP3    H140127   5.536   5.251  12.691  2.3930 -1.8294 -0.3554
 6212TIP3    H240128   5.593   5.218  12.827 -0.6257 -1.1243  1.1791
 6213TIP3   OH240129   4.687   3.220   4.794  0.1065 -0.1932  0.1365
 6213TIP3    H140130   4.609   3.276   4.792 -0.7662 -1.3653 -1.5122
 6213TIP3    H240131   4.747   3.264   4.853 -1.5149  1.1587  0.8563
 6214TIP3   OH240132   1.834   2.485  15.320  0.3683 -0.3076 -0.4132
 6214TIP3    H140133   1.760   2.540  15.346 -0.6067 -2.1295  0.9371
 6214TIP3    H240134   1.906   2.513  15.378  1.0379  1.9365 -2.1914
 6215TIP3   OH240135   3.303   5.408   1.246  0.5559  0.1447  0.0520
 6215TIP3    H140136   3.368   5.347   1.282 -0.4553  0.2081  2.1266
 6215TIP3    H240137   3.354   5.466   1.190  2.5401  0.8731  2.4221
 6216TIP3   OH240138   1.001   2.530  16.386 -0.0927  0.3781 -0.4785
 6216TIP3    H140139   0.924   2.579  16.416 -0.5901 -1.5304  1.6941
 6216TIP3    H240140   0.977   2.438  16.399  1.3786 -0.4418 -2.8702
 6217TIP3   OH240141   1.689   2.539   4.676  0.3444 -0.2626 -0.5871
 6217TIP3    H140142   1.769   2.556   4.725  1.6744  1.2663 -3.0552
 6217TIP3    H240143   1.676   2.444   4.684  0.8482 -0.1828  2.0199
 6218TIP3   OH240144   4.602   3.702  12.481  0.5497  0.1628 -0.1821
 6218TIP3    H140145   4.583   3.622  12.530 -2.2907  0.8604  0.0643
 6218TIP3    H240146   4.685   3.685  12.438  1.1967 -1.9998  1.7023
 6219TIP3   OH240147   4.836   1.034  16.483 -0.0118  0.4405  0.4350
 6219TIP3    H140148   4.837   0.946  16.519 -0.2635 -0.7842 -2.3091
 6219TIP3    H240149   4.913   1.077  16.521  1.4297 -1.7165  0.0886
 6220TIP3   OH240150   5.217   0.931  11.691  0.2788 -0.2389  0.0188
 6220TIP3    H140151   5.309   0.955  11.698 -0.4451  2.5198  1.6498
 6220TIP3    H240152   5.193   0.955  11.601  0.9799 -0.4035 -0.2220
 6221TIP3   OH240153   0.496   1.326   2.326 -0.0923 -0.1264  0.0040
 6221TIP3    H140154   0.402   1.344   2.327 -0.3918 -1.5267  1.7420
 6221TIP3    H240155   0.502   1.230   2.318  1.2419  0.0418 -1.6003
 6222TIP3   OH240156   6.667   2.163  15.238  0.2374  0.3413 -0.0683
 6222TIP3    H140157   6.641   2.071  15.242 -1.1887  0.7699  1.1842
 6222TIP3    H240158   6.606   2.209  15.296 -0.8913  2.5204 -2.7273
 6223TIP3   OH240159   6.437   1.077   6.413 -0.1103 -0.6809 -0.3050
 6223TIP3    H140160   6.402   1.122   6.490  1.3574  1.1420 -0.6268
 6223TIP3    H240161   6.531   1.095   6.415  0.3037 -2.4711 -1.3459
 6224TIP3   OH240162   0.447   5.752   5.344 -0.4541  0.1343 -0.6698
 6224TIP3    H140163   0.359   5.786   5.363 -0.9920 -0.5483 -1.8321
 6224TIP3    H240164   0.493   5.827   5.305 -0.2819  0.6894  0.5456
 6225TIP3   OH240165   1.957   3.762  14.226  0.1697  0.7937 -0.5675
 6225TIP3    H140166   1.885   3.739  14.167  0.9558  2.1611 -2.1461
 6225TIP3    H240167   1.993   3.843  14.190  1.5944  0.9321  1.0198
 6226TIP3   OH240168   1.117   3.334  14.327  0.1932  0.8627  0.1196
 6226TIP3    H140169   1.057   3.294  14.264  0.4905  0.3563  0.1594
 6226TIP3    H240170   1.156   3.408  14.280 -1.6113  2.1798  0.5731
 6227TIP3   OH240171   6.244   2.513   6.449  0.1933  0.2471 -0.4387
 6227TIP3    H140172   6.177   2.469   6.500 -0.2950  1.5671  0.0858
 6227TIP3    H240173   6.327   2.488   6.491  0.1260 -1.8638 -1.4510
 6228TIP3   OH240174   5.941   0.919  15.970  0.3729  0.5944  0.3296
 6228TIP3    H140175   6.000   0.848  15.996 -1.6887 -0.9381  1.1302
 6228TIP3    H240176   5.908   0.893  15.884  1.3383  1.7990 -0.4389
 6229TIP3   OH240177   1.521   5.982  13.020 -0.2548 -0.4152 -0.1419
 6229TIP3    H140178   1.613   5.988  13.046  0.1546 -0.1272 -1.5526
 6229TIP3    H240179   1.475   5.956  13.100  0.9647  0.0099  0.7390
 6230TIP3   OH240180   0.767   3.979  14.628  0.3191  0.4640  0.3226
 6230TIP3    H140181   0.788   4.054  14.573  1.5998 -0.9188 -1.1752
 6230TIP3    H240182   0.672   3.968  14.619  0.5624 -0.1921 -2.3455
 6231TIP3   OH240183   5.507   3.251   1.138 -0.1766  0.1551  0.2221
 6231TIP3    H140184   5.483   3.289   1.054  1.0151  0.6227  0.0664
 6231TIP3    H240185   5.479   3.316   1.202 -1.2812 -0.2989  0.2181
 6232TIP3   OH240186   5.253   5.334   0.490 -0.1476  0.5245 -0.1505
 6232TIP3    H140187   5.250   5.349   0.395  0.1770  1.0083 -0.0886
 6232TIP3    H240188   5.181   5.388   0.524  0.9528  1.9143  0.0632
 6233TIP3   OH240189   5.739   4.012   1.944 -0.0188 -0.1546  0.5694
 6233TIP3    H140190   5.718   4.069   2.018 -0.8176  0.6586 -0.2593
 6233TIP3    H240191   5.686   4.045   1.871  0.5178 -1.1171 -0.3012
 6234TIP3   OH240192   1.351   4.553  14.448 -0.2386  0.4136 -0.1111
 6234TIP3    H140193   1.404   4.610  14.392 -1.5425  0.5340 -1.2808
 6234TIP3    H240194   1.287   4.611  14.489  1.0696  0.4254  2.0517
 6235TIP3   OH240195   2.804   5.294  16.924 -0.1703  0.1128  0.6405
 6235TIP3    H140196   2.821   5.374  16.974  0.9848  0.6814 -0.6062
 6235TIP3    H240197   2.717   5.306  16.887 -0.2382  0.5297  0.9344
 6236TIP3   OH240198   3.517   4.521  10.712  0.0549 -0.0958  0.5634
 6236TIP3    H140199   3.584   4.587  10.695  0.4006 -0.3422  0.9405
 6236TIP3    H240200   3.469   4.512  10.630  0.1595  0.4536  0.4445
 6237TIP3   OH240201   3.296   5.168  15.779  0.7970  0.0657  0.7776
 6237TIP3    H140202   3.324   5.174  15.870  2.4114  2.6047  0.1976
 6237TIP3    H240203   3.373   5.196  15.728  0.0550 -1.5670 -1.4132
 6238TIP3   OH240204   4.655   5.451   6.603 -0.6074  0.0901 -0.0084
 6238TIP3    H140205   4.591   5.518   6.579 -0.0475  1.3603  1.8431
 6238TIP3    H240206   4.602   5.373   6.620 -1.4510  0.5497 -0.4744
 6239TIP3   OH240207   3.049   0.410  15.858 -0.0741 -0.3578  0.0570
 6239TIP3    H140208   2.976   0.401  15.919 -0.6691  0.1655 -0.5581
 6239TIP3    H240209   3.113   0.464  15.905 -1.2054  1.4123 -0.3395
 6240TIP3   OH240210   0.543   5.322   2.620 -0.2909 -0.3175 -0.0711
 6240TIP3    H140211   0.479   5.387   2.650  0.0168 -0.3610  0.7192
 6240TIP3    H240212   0.539   5.326   2.525 -0.0146  1.1435 -0.0614
 6241TIP3   OH240213   3.527   5.398   3.981  0.0300 -0.3125  0.2816
 6241TIP3    H140214   3.571   5.450   4.049 -2.3469 -0.6934  2.2729
 6241TIP3    H240215   3.560   5.309   3.994  1.5962  0.0436 -0.9293
 6242TIP3   OH240216   1.577   3.608   3.358  0.7314  0.4112  0.0761
 6242TIP3    H140217   1.511   3.675   3.339  0.4563 -0.2562 -1.4348
 6242TIP3    H240218   1.650   3.629   3.299  1.2756  0.2610  0.6788
 6243TIP3   OH240219   4.004   4.365  15.156 -0.2597 -0.0996 -0.0754
 6243TIP3    H140220   3.982   4.353  15.248 -0.6930  0.0632 -0.1540
 6243TIP3    H240221   3.972   4.286  15.113  1.3742 -0.9255  0.1357
 6244TIP3   OH240222   1.350   6.163  10.474  0.2010  0.3612  0.2889
 6244TIP3    H140223   1.316   6.143  10.561  0.2711  0.8172  0.4226
 6244TIP3    H240224   1.330   6.256  10.461 -0.3092  0.1649 -0.4105
 6245TIP3   OH240225   1.031   0.567   5.110 -0.6923  0.0869 -0.0624
 6245TIP3    H140226   1.004   0.642   5.162 -0.3473  1.7604 -2.1672
 6245TIP3    H240227   1.101   0.600   5.054  0.8538 -2.3348  0.2819
 6246TIP3   OH240228   5.143   4.885   2.377 -0.5922  0.2405 -0.2195
 6246TIP3    H140229   5.200   4.901   2.453  0.2941  0.3106 -0.8894
 6246TIP3    H240230   5.150   4.966   2.326  0.0240 -0.3798 -1.1393
 6247TIP3   OH240231   6.468   5.897   0.994 -0.7756 -0.1220  0.3598
 6247TIP3    H140232   6.534   5.919   0.928 -0.0419 -0.2305  1.0506
 6247TIP3    H240233   6.385   5.926   0.955 -0.3530 -0.1456 -0.5918
 6248TIP3   OH240234   0.973   4.245   5.803  0.2408  0.1843  0.4341
 6248TIP3    H140235   1.011   4.308   5.741 -0.5724  1.0366  0.7741
 6248TIP3    H240236   0.948   4.298   5.879  1.3080 -0.8544  1.5562
 6249TIP3   OH240237   0.484   3.372   4.416 -0.0826  0.5231 -0.4777
 6249TIP3    H140238   0.543   3.445   4.431  0.3185 -0.1210  1.3218
 6249TIP3    H240239   0.457   3.344   4.503 -1.1898 -0.7029 -1.1651
 6250TIP3   OH240240   0.758   2.577   4.378  0.2015 -0.4507  0.2592
 6250TIP3    H140241   0.807   2.629   4.442 -1.8883  1.3109  0.5279
 6250TIP3    H240242   0.713   2.511   4.431  0.8158 -0.8824  0.2423
 6251TIP3   OH240243   6.848   0.150   0.591  0.3274 -0.0342 -0.1501
 6251TIP3    H140244   6.798   0.100   0.526 -0.9186 -0.7185  1.2652
 6251TIP3    H240245   6.783   0.209   0.630  0.8712 -0.1437  0.9608
 6252TIP3   OH240246   3.041   5.026   4.027  0.1136  0.5314 -0.4211
 6252TIP3    H140247   3.087   4.968   4.087 -1.7031 -1.0225 -0.4178
 6252TIP3    H240248   3.077   5.113   4.045  1.4598 -0.2806  1.0513
 6253TIP3   OH240249   5.326   1.948   5.911  0.7810 -0.3157 -0.2377
 6253TIP3    H140250   5.296   1.977   5.825  0.8011  1.5859  0.3424
 6253TIP3    H240251   5.422   1.949   5.904  0.8190  1.0868  0.1420
 6254TIP3   OH240252   0.674   1.057  15.807 -0.0499  0.0097 -0.0450
 6254TIP3    H140253   0.723   0.979  15.783  1.3407  1.1306 -0.9697
 6254TIP3    H240254   0.740   1.122  15.830 -0.8186  2.4153 -3.7705
 6255TIP3   OH240255   3.546   1.338   3.924  0.4757 -0.0432 -0.3541
 6255TIP3    H140256   3.478   1.406   3.919 -1.2506 -1.4596  1.5851
 6255TIP3    H240257   3.611   1.364   3.859 -3.2186 -0.0442 -4.5401
 6256TIP3   OH240258   5.835   0.209  15.412  0.2347  0.1572  0.6086
 6256TIP3    H140259   5.765   0.228  15.349 -0.1072  1.1234  1.2705
 6256TIP3    H240260   5.915   0.212  15.360 -0.2670 -2.5506 -0.5172
 6257TIP3   OH240261   3.595   5.282  11.387 -0.1281  0.0861  0.4403
 6257TIP3    H140262   3.518   5.298  11.441 -0.6355  0.6266 -0.4347
 6257TIP3    H240263   3.567   5.301  11.298  0.8880 -0.1618  0.0550
 6258TIP3   OH240264   1.484   2.063   3.032  0.7352 -0.9102 -0.3481
 6258TIP3    H140265   1.415   2.003   3.007  0.0274 -0.0035 -0.6339
 6258TIP3    H240266   1.531   2.019   3.103 -3.1106  0.3386  3.3744
 6259TIP3   OH240267   0.011   0.420   2.168 -0.2040  0.2504  0.7271
 6259TIP3    H140268   0.088   0.475   2.152 -0.6085  0.7681  0.5323
 6259TIP3    H240269  -0.002   0.424   2.263 -0.1588  0.3927  0.7280
 6260TIP3   OH240270   4.574   2.624  14.747  0.2464  0.2709  0.1771
 6260TIP3    H140271   4.545   2.561  14.814 -0.1652  0.1029 -0.1545
 6260TIP3    H240272   4.588   2.705  14.795  0.0503  0.1234  0.4903
 6261TIP3   OH240273   6.444   2.895  16.418 -0.0546  0.1634  0.4099
 6261TIP3    H140274   6.508   2.855  16.360  1.2104  0.1673  1.7505
 6261TIP3    H240275   6.496   2.933  16.489 -1.6159 -1.6937  2.7148
 6262TIP3   OH240276   3.367   6.790  17.120 -0.2475 -0.2725  0.8315
 6262TIP3    H140277   3.351   6.849  17.046 -0.6578 -1.8193 -0.3719
 6262TIP3    H240278   3.401   6.710  17.080  1.2522 -0.5292  2.5050
 6263TIP3   OH240279   2.675   1.467   3.143 -0.1566 -0.3886  0.4178
 6263TIP3    H140280   2.654   1.521   3.067 -1.2633  0.5365  1.3398
 6263TIP3    H240281   2.647   1.519   3.218 -0.6681 -1.9848  1.3843
 6264TIP3   OH240282   5.499   3.942  10.908 -0.1836 -0.1946  0.4703
 6264TIP3    H140283   5.537   4.012  10.854 -1.2220 -0.4399 -0.6168
 6264TIP3    H240284   5.457   3.883  10.845  0.8571 -1.9512  1.3419
 6265TIP3   OH240285   1.970   2.675  12.169 -0.2845  0.2607 -0.0848
 6265TIP3    H140286   1.918   2.713  12.098 -0.3107  2.0503  0.8220
 6265TIP3    H240287   1.920   2.598  12.197 -0.3793 -0.3510 -1.8162
 6266TIP3   OH240288   0.199   4.328  15.206 -0.0002 -0.3239 -0.2198
 6266TIP3    H140289   0.181   4.261  15.139  2.8478  0.8305 -2.3287
 6266TIP3    H240290   0.148   4.404  15.178  0.1839 -0.2455 -0.3429
 6267TIP3   OH240291   5.168   2.184  14.208 -0.4202 -0.5098 -0.3538
 6267TIP3    H140292   5.172   2.236  14.128  1.7165  0.9500  0.5956
 6267TIP3    H240293   5.077   2.157  14.215 -0.8951  0.2899 -2.6640
 6268TIP3   OH240294   0.885   4.416   3.362  0.3529 -0.3076  0.2834
 6268TIP3    H140295   0.946   4.461   3.419  1.5428  0.7059 -1.6709
 6268TIP3    H240296   0.839   4.486   3.315  0.3497 -1.0781 -0.9184
 6269TIP3   OH240297   3.287   0.840  11.299  0.2218  0.3931 -0.6073
 6269TIP3    H140298   3.273   0.758  11.346  0.6935  0.1774 -0.8306
 6269TIP3    H240299   3.267   0.819  11.207 -2.2791  1.2241 -0.3139
 6270TIP3   OH240300   5.642   2.861   5.966  0.1812 -0.0501  0.0831
 6270TIP3    H140301   5.736   2.854   5.982  0.0758  0.9452  1.3633
 6270TIP3    H240302   5.631   2.845   5.872  1.5293 -0.9298  0.0623
 6271TIP3   OH240303   4.224   2.731  14.652 -0.3720  0.4225 -0.2540
 6271TIP3    H140304   4.233   2.640  14.682 -0.6673  1.2273  2.5895
 6271TIP3    H240305   4.302   2.745  14.598 -0.8914 -1.8095 -1.7231
 6272TIP3   OH240306   6.762   2.806   0.158 -0.2726 -0.3096  0.2738
 6272TIP3    H140307   6.837   2.824   0.215 -1.1125  4.4675  0.2830
 6272TIP3    H240308   6.787   2.842   0.073 -1.6519 -0.9152 -0.4229
 6273TIP3   OH240309   0.894   2.781   1.752 -0.0151 -0.2103  0.2935
 6273TIP3    H140310   0.837   2.836   1.806 -2.3436 -1.4108 -0.8119
 6273TIP3    H240311   0.884   2.815   1.663  1.9863  0.2910  0.1952
 6274TIP3   OH240312   6.654   4.876   1.435 -0.6374  0.0109 -0.3809
 6274TIP3    H140313   6.617   4.959   1.405 -0.3401  0.0039 -0.7698
 6274TIP3    H240314   6.711   4.847   1.364  0.4895  0.2516  0.3950
 6275TIP3   OH240315   2.253   6.153  16.823  0.2389  0.0359 -0.0624
 6275TIP3    H140316   2.176   6.115  16.864 -0.1205  1.4851  0.6582
 6275TIP3    H240317   2.221   6.232  16.780  1.1258  0.0395 -0.7429
 6276TIP3   OH240318   4.653   6.780   5.064  0.0454  0.4498  0.3885
 6276TIP3    H140319   4.567   6.749   5.036  0.8174  0.1560 -1.8604
 6276TIP3    H240320   4.700   6.701   5.092  0.6300  0.0945 -1.4636
 6277TIP3   OH240321   2.445   2.504   4.086 -0.0078 -0.3821  0.1783
 6277TIP3    H140322   2.480   2.501   4.175  2.3290 -0.9955 -0.6856
 6277TIP3    H240323   2.402   2.589   4.080  2.1781  0.8683  1.1090
 6278TIP3   OH240324   3.286   1.585   3.333  0.3656 -0.4225 -0.4499
 6278TIP3    H140325   3.228   1.577   3.257  0.6237  0.5396 -0.7670
 6278TIP3    H240326   3.231   1.621   3.402  0.7876  1.5434 -1.0672
 6279TIP3   OH240327   1.987   1.545   4.694  1.0153 -0.2718  0.1659
 6279TIP3    H140328   1.909   1.490   4.702  0.1634  1.0870  2.1369
 6279TIP3    H240329   2.054   1.500   4.744  1.2700 -1.0104 -0.8086
 6280TIP3   OH240330   4.152   1.313  14.392  0.6222 -0.6607 -1.1552
 6280TIP3    H140331   4.081   1.298  14.330 -1.5756 -0.5680  1.1961
 6280TIP3    H240332   4.202   1.231  14.391 -0.8239 -1.5776 -1.2798
 6281TIP3   OH240333   5.541   0.868  10.528  0.0059  0.2275 -0.6928
 6281TIP3    H140334   5.619   0.895  10.576  0.0544  1.0076 -1.1876
 6281TIP3    H240335   5.563   0.782  10.492  0.2630  0.0006  0.0060
 6282TIP3   OH240336   4.076   2.891   3.915  0.1598  0.5454  0.3553
 6282TIP3    H140337   4.005   2.924   3.969 -2.9737 -0.8930 -2.4793
 6282TIP3    H240338   4.055   2.921   3.826  1.6413 -2.0249 -1.0017
 6283TIP3   OH240339   1.789   3.644  17.061 -0.1114 -0.0366  0.2778
 6283TIP3    H140340   1.741   3.624  16.981 -0.4698 -0.7699  0.6692
 6283TIP3    H240341   1.842   3.721  17.039  0.4638 -0.7514 -0.9410
 6284TIP3   OH240342   3.835   0.067  16.109 -0.1716  0.1680  0.3274
 6284TIP3    H140343   3.907   0.114  16.066  0.9192 -1.1889  0.5980
 6284TIP3    H240344   3.856   0.071  16.202 -0.5660 -0.0349  0.4269
 6285TIP3   OH240345   2.920   1.570   2.587 -0.3516  0.4217  0.4900
 6285TIP3    H140346   3.008   1.567   2.550 -1.2839  0.0773 -1.8236
 6285TIP3    H240347   2.934   1.597   2.678  2.0986  0.6855  0.1099
 6286TIP3   OH240348   5.107   4.933  12.203 -0.1338  0.2500 -0.2629
 6286TIP3    H140349   5.163   4.959  12.276  1.6156 -1.1662 -1.0543
 6286TIP3    H240350   5.167   4.905  12.135 -1.8056 -1.2597 -1.1910
 6287TIP3   OH240351   3.316   3.096   4.185  0.4078 -0.1643  0.0921
 6287TIP3    H140352   3.227   3.110   4.217 -0.0232 -1.5132 -0.4649
 6287TIP3    H240353   3.316   3.133   4.097  1.2579  2.4562  1.0875
 6288TIP3   OH240354   0.891   1.515   1.981 -0.1280 -0.1869  0.0257
 6288TIP3    H140355   0.889   1.475   2.068 -1.0411  2.3226  1.2757
 6288TIP3    H240356   0.856   1.449   1.922 -0.8449 -1.4507  1.8087
 6289TIP3   OH240357   0.444   1.794   2.174  0.2476 -0.1701  0.2118
 6289TIP3    H140358   0.533   1.819   2.151  0.2524  0.6369  1.0783
 6289TIP3    H240359   0.416   1.738   2.101  1.4007 -0.3246 -0.1380
 6290TIP3   OH240360   1.661   3.790  15.434  0.2295 -0.5336  0.4658
 6290TIP3    H140361   1.715   3.725  15.390 -0.4023 -0.1383 -0.9285
 6290TIP3    H240362   1.718   3.866  15.446  0.0810 -0.2100 -0.7716
 6291TIP3   OH240363   1.771   6.620   1.037 -0.8876  0.3574 -0.2526
 6291TIP3    H140364   1.850   6.647   0.990 -0.8914  0.3987 -0.2359
 6291TIP3    H240365   1.730   6.555   0.980 -0.8419  0.3364 -0.2617
 6292TIP3   OH240366   5.088   2.275  15.736 -0.0206  0.0278  0.1513
 6292TIP3    H140367   5.055   2.351  15.688  1.3696 -0.6499 -2.0633
 6292TIP3    H240368   5.183   2.289  15.740  0.1688 -1.2277  0.3640
 6293TIP3   OH240369   2.102   5.041   4.843 -0.0261  0.6913  0.0119
 6293TIP3    H140370   2.007   5.026   4.844 -0.2190  1.8063 -0.3119
 6293TIP3    H240371   2.139   4.953   4.830 -1.0747  0.4191 -1.5208
 6294TIP3   OH240372   4.831   6.051  14.168  0.3838 -0.1672  0.4306
 6294TIP3    H140373   4.741   6.064  14.138  0.8026  0.6751 -0.5093
 6294TIP3    H240374   4.866   6.140  14.177  1.2405 -0.4975  0.4024
 6295TIP3   OH240375   4.128   6.440  16.531 -0.5869  0.5668  0.3666
 6295TIP3    H140376   4.055   6.384  16.501  0.6173 -0.6738 -0.3631
 6295TIP3    H240377   4.190   6.440  16.459  0.5287  0.9123  1.2907
 6296TIP3   OH240378   5.621   0.862   4.951  0.3684  0.3014  0.2415
 6296TIP3    H140379   5.605   0.956   4.949  1.3169  0.4689  0.2688
 6296TIP3    H240380   5.605   0.836   5.042  0.9108  0.5905  0.4243
 6297TIP3   OH240381   1.907   4.581   5.716 -0.5697 -0.2170  0.0592
 6297TIP3    H140382   1.950   4.664   5.736 -1.7769 -0.3523  4.0543
 6297TIP3    H240383   1.820   4.607   5.685  0.0091 -0.0586 -1.5654
 6298TIP3   OH240384   0.727   5.392   1.035 -0.0901 -0.7423  0.8245
 6298TIP3    H140385   0.822   5.401   1.047 -0.3484  0.1416  2.4421
 6298TIP3    H240386   0.713   5.417   0.943  1.0791  0.7403  0.9900
 6299TIP3   OH240387   3.441   2.045   6.590 -0.2823  0.2056 -0.0163
 6299TIP3    H140388   3.366   2.105   6.591  0.4328  1.1306 -0.4571
 6299TIP3    H240389   3.515   2.099   6.619  0.7933  0.1280 -2.3687
 6300TIP3   OH240390   2.788   3.544  14.763 -0.1612  0.0587 -0.2157
 6300TIP3    H140391   2.855   3.526  14.829  0.8624  0.8620 -0.9954
 6300TIP3    H240392   2.778   3.462  14.715  0.4087 -0.0248 -0.2025
 6301TIP3   OH240393   2.946   2.406   3.374  0.0094 -0.4727  0.6309
 6301TIP3    H140394   3.008   2.357   3.428 -0.9739 -1.5526  0.8182
 6301TIP3    H240395   2.913   2.475   3.432  0.6282 -0.2326  0.6987
 6302TIP3   OH240396   3.132   3.525   0.400  0.3040  0.0176  0.1830
 6302TIP3    H140397   3.188   3.540   0.324  0.5683 -0.7391  0.2131
 6302TIP3    H240398   3.069   3.597   0.398  1.1760  0.7903  0.0576
 6303TIP3   OH240399   4.933   3.030  13.818  0.1989  0.0482  0.4011
 6303TIP3    H140400   4.944   2.938  13.842 -0.0933  0.3325  1.6992
 6303TIP3    H240401   4.963   3.035  13.727 -1.3602 -1.6542 -0.2799
 6304TIP3   OH240402   0.974   6.853  11.608 -0.0569  0.2439  0.0150
 6304TIP3    H140403   0.883   6.827  11.622  0.3553 -0.0706  2.4604
 6304TIP3    H240404   1.021   6.821  11.685  2.3193 -0.3828 -1.5814
 6305TIP3   OH240405   2.588   4.604   1.865  1.0472  0.0052  0.6616
 6305TIP3    H140406   2.565   4.682   1.914 -0.0264 -0.9624  1.7769
 6305TIP3    H240407   2.505   4.575   1.826  1.6282 -0.0021 -0.6187
 6306TIP3   OH240408   4.193   5.065  12.747 -0.0093 -0.6391 -0.1225
 6306TIP3    H140409   4.235   5.023  12.822  0.8686 -0.9248 -0.7515
 6306TIP3    H240410   4.251   5.045  12.673 -1.1590 -0.8909 -1.0003
 6307TIP3   OH240411   4.344   4.455  13.067  0.0515 -0.5496 -0.1537
 6307TIP3    H140412   4.423   4.401  13.064 -0.8248 -1.8225 -1.5888
 6307TIP3    H240413   4.278   4.400  13.110 -0.0169  0.6323  1.3606
 6308TIP3   OH240414   5.326   0.132   2.142 -0.0011  0.1104 -0.4355
 6308TIP3    H140415   5.364   0.054   2.183 -0.5143  0.3895  0.6078
 6308TIP3    H240416   5.287   0.100   2.061  0.8342 -0.5024 -0.6102
 6309TIP3   OH240417   6.691   1.342  16.437  0.2022  0.4009  0.2276
 6309TIP3    H140418   6.665   1.328  16.345 -0.7131  3.1568 -0.0465
 6309TIP3    H240419   6.749   1.269  16.457  0.7847 -0.0824 -2.6937
 6310TIP3   OH240420   1.204   6.228   3.003 -0.0383 -0.3217  0.1669
 6310TIP3    H140421   1.240   6.201   2.918 -0.2342 -2.0975  0.5975
 6310TIP3    H240422   1.266   6.194   3.067 -0.0113  0.8102  0.7583
 6311TIP3   OH240423   3.108   5.573   1.550 -0.0919  0.1111  0.2190
 6311TIP3    H140424   3.098   5.640   1.482  1.6226  1.5218  1.2527
 6311TIP3    H240425   3.107   5.490   1.503 -3.3224  0.7120 -1.0026
 6312TIP3   OH240426   0.883   6.716  14.700 -0.3328  0.5500  0.1364
 6312TIP3    H140427   0.875   6.699  14.793  0.9343 -1.4648 -0.0445
 6312TIP3    H240428   0.976   6.739  14.688 -0.1619 -0.5130 -0.7639
 6313TIP3   OH240429   1.425   3.914  10.331 -0.5342 -0.1220  0.5099
 6313TIP3    H140430   1.396   3.857  10.402 -0.1259 -1.9886 -0.7520
 6313TIP3    H240431   1.356   3.980  10.324 -0.8580 -0.2286  2.2439
 6314TIP3   OH240432   5.905   5.168  11.253 -0.2875  0.7934  0.4078
 6314TIP3    H140433   5.997   5.162  11.280 -1.0490 -0.0489  3.1602
 6314TIP3    H240434   5.882   5.080  11.224  0.1340  1.3768 -1.9294
 6315TIP3   OH240435   0.314   1.655   0.694 -0.1140 -0.4957  0.1588
 6315TIP3    H140436   0.312   1.698   0.779 -0.9143  1.1813 -0.6480
 6315TIP3    H240437   0.253   1.581   0.703 -0.4660 -0.1224  0.9301
 6316TIP3   OH240438   0.295   5.640  15.407 -0.1353  0.1902  0.3809
 6316TIP3    H140439   0.236   5.710  15.438 -0.3575 -0.1038  0.6256
 6316TIP3    H240440   0.289   5.573  15.474 -0.0231 -0.1236  0.0769
 6317TIP3   OH240441   4.289   4.282   0.918  0.4400  0.4079  0.1920
 6317TIP3    H140442   4.292   4.351   0.985 -0.4972 -0.7290  1.4690
 6317TIP3    H240443   4.265   4.203   0.967 -0.8825 -0.3458 -1.5700
 6318TIP3   OH240444   2.480   3.152   1.029 -0.1406  0.7617  0.6235
 6318TIP3    H140445   2.514   3.217   0.967  1.3767  1.1523  1.7967
 6318TIP3    H240446   2.556   3.097   1.050 -1.8768 -3.3552 -2.4736
 6319TIP3   OH240447   5.426   5.447   1.524 -0.4572 -0.1178 -0.7838
 6319TIP3    H140448   5.457   5.412   1.607 -0.3298 -1.4842 -1.3849
 6319TIP3    H240449   5.380   5.528   1.548 -0.5382 -0.5490  0.6217
 6320TIP3   OH240450   2.615   4.365  12.445 -1.0257  0.1241 -0.0931
 6320TIP3    H140451   2.610   4.286  12.392 -1.4526 -0.7727  1.2326
 6320TIP3    H240452   2.548   4.423  12.408 -1.9583 -0.8441  0.0421
 6321TIP3   OH240453   2.005   3.358   5.074 -0.3394 -0.0885 -0.1347
 6321TIP3    H140454   2.087   3.380   5.119 -0.6237  0.6037  0.0485
 6321TIP3    H240455   2.031   3.342   4.983  0.2034 -1.2520  0.2116
 6322TIP3   OH240456   3.987   1.722   2.574  0.9979  0.2327 -0.4334
 6322TIP3    H140457   3.978   1.627   2.580  2.1956  0.1986  1.3481
 6322TIP3    H240458   4.047   1.736   2.501  3.5588 -0.6167  1.3784
 6323TIP3   OH240459   0.392   0.270  13.158  0.4207  0.0122  0.3311
 6323TIP3    H140460   0.312   0.295  13.111  0.6066  0.2398  0.1351
 6323TIP3    H240461   0.374   0.182  13.191  0.3029 -0.1701 -0.2030
 6324TIP3   OH240462   6.145   4.732   2.736 -0.2693 -0.2126 -0.0861
 6324TIP3    H140463   6.215   4.686   2.783 -0.7593 -0.8726  0.0203
 6324TIP3    H240464   6.065   4.689   2.765 -0.8102  1.1024  0.4502
 6325TIP3   OH240465   6.151   2.260   6.717 -0.0521  1.1265  0.2116
 6325TIP3    H140466   6.217   2.315   6.758 -0.2718  0.6418  1.2449
 6325TIP3    H240467   6.110   2.316   6.651  1.4039  1.4231 -0.4819
 6326TIP3   OH240468   2.866   0.690   4.546 -0.6771 -0.7807 -0.0382
 6326TIP3    H140469   2.794   0.656   4.493  1.8339 -2.6861 -2.4761
 6326TIP3    H240470   2.839   0.672   4.636 -4.2082  0.7436 -0.6295
 6327TIP3   OH240471   0.914   2.427  14.093 -0.5012 -0.0166 -0.0968
 6327TIP3    H140472   0.988   2.485  14.111  0.8304 -1.7043  0.1179
 6327TIP3    H240473   0.850   2.449  14.161  0.9472 -0.3892  1.4566
 6328TIP3   OH240474   1.994   5.383  11.720  0.4916 -0.5395 -0.4574
 6328TIP3    H140475   1.946   5.459  11.752 -0.4226 -0.8704 -0.9908
 6328TIP3    H240476   2.070   5.377  11.777  1.9360  2.2123 -1.8464
 6329TIP3   OH240477   6.560   6.493  11.838 -0.1553  0.3276  0.2319
 6329TIP3    H140478   6.620   6.421  11.853  1.1453  1.6240  1.6051
 6329TIP3    H240479   6.495   6.486  11.908 -0.4238  0.1171 -0.0340
 6330TIP3   OH240480   0.807   1.265   3.960  0.0533 -0.3618 -0.0932
 6330TIP3    H140481   0.765   1.266   4.046 -0.1491 -0.5315 -0.1885
 6330TIP3    H240482   0.898   1.286   3.977 -0.3629  1.7042 -0.0366
 6331TIP3   OH240483   0.192   3.345   2.449  0.1480  0.2934 -0.1613
 6331TIP3    H140484   0.216   3.435   2.426 -0.5367  0.3232 -0.8247
 6331TIP3    H240485   0.164   3.350   2.540 -1.5324  1.1171 -0.6749
 6332TIP3   OH240486   6.500   0.462   3.434  0.0591  0.5615 -0.0244
 6332TIP3    H140487   6.592   0.452   3.460 -0.2258 -2.5551  0.1192
 6332TIP3    H240488   6.502   0.455   3.339 -0.0562  0.3939 -0.0135
 6333TIP3   OH240489   3.400   6.322   2.111  0.7549  0.4065  0.3376
 6333TIP3    H140490   3.381   6.294   2.201 -3.1981 -0.2578 -0.5407
 6333TIP3    H240491   3.423   6.241   2.066 -0.9495  0.0925 -0.0187
 6334TIP3   OH240492   3.346   5.108   4.542 -0.0091 -0.3060 -0.5104
 6334TIP3    H140493   3.427   5.153   4.519 -0.7127  0.0768 -2.4488
 6334TIP3    H240494   3.280   5.178   4.544 -0.5676 -0.8262 -0.4761
 6335TIP3   OH240495   5.400   1.489   5.097 -0.6059  0.3766  0.3095
 6335TIP3    H140496   5.483   1.528   5.124 -1.3218  2.5890 -0.4136
 6335TIP3    H240497   5.381   1.423   5.164  2.0076 -0.6954  0.1459
 6336TIP3   OH240498   5.587   2.742  11.068 -0.3522  0.1688 -0.6225
 6336TIP3    H140499   5.505   2.708  11.032 -0.3858  0.4095 -0.7772
 6336TIP3    H240500   5.586   2.835  11.044 -0.1012  0.2012 -0.5018
 6337TIP3   OH240501   0.394   1.087   5.688  0.0854 -0.2168 -0.1752
 6337TIP3    H140502   0.478   1.056   5.655  0.0407  0.4207 -0.9080
 6337TIP3    H240503   0.395   1.064   5.781  0.9688 -0.4214 -0.2287
 6338TIP3   OH240504   2.171   1.007   2.403  0.1272  0.8623 -0.0171
 6338TIP3    H140505   2.152   0.937   2.465 -0.9360  0.2398 -0.9932
 6338TIP3    H240506   2.266   1.014   2.402  0.3253 -1.2165 -0.5625
 6339TIP3   OH240507   6.520   2.547   5.451 -0.0332 -0.0332  0.2455
 6339TIP3    H140508   6.520   2.507   5.364  0.8868 -0.2291  0.3239
 6339TIP3    H240509   6.448   2.610   5.449 -1.1741 -1.3151 -0.0537
 6340TIP3   OH240510   0.060   4.023  13.538  0.8142  0.2747 -0.2307
 6340TIP3    H140511   0.027   3.957  13.600 -1.3879 -0.4836 -2.0691
 6340TIP3    H240512   0.041   4.107  13.580 -0.2318 -0.2237  0.3381
 6341TIP3   OH240513   6.719   5.641   1.055 -0.1717  0.1461 -0.2686
 6341TIP3    H140514   6.709   5.728   1.016  1.0268  0.6874  0.5508
 6341TIP3    H240515   6.798   5.648   1.109 -0.7644 -1.0904  0.8196
 6342TIP3   OH240516   0.122   5.994   0.676 -0.4207 -0.6201  0.3446
 6342TIP3    H140517   0.102   6.039   0.758 -1.8352 -0.7095  0.0759
 6342TIP3    H240518   0.101   5.903   0.692  0.1893 -0.8002  0.1558
 6343TIP3   OH240519   1.511   5.258   1.936 -0.2035  0.6240  0.5683
 6343TIP3    H140520   1.502   5.207   2.016  0.6737 -0.6969 -0.1411
 6343TIP3    H240521   1.533   5.193   1.868 -1.6191  1.5979 -0.8962
 6344TIP3   OH240522   4.567   5.759   5.584 -0.3447  0.2026  0.0680
 6344TIP3    H140523   4.611   5.842   5.601 -1.2548  0.9295 -0.9268
 6344TIP3    H240524   4.531   5.732   5.668 -0.1676  0.9079  0.3722
 6345TIP3   OH240525   5.351   0.458   3.781  0.5621 -0.4963 -0.3416
 6345TIP3    H140526   5.261   0.444   3.810  0.9729 -3.0450 -0.1211
 6345TIP3    H240527   5.349   0.442   3.686  0.2954  2.3948 -0.9348
 6346TIP3   OH240528   2.148   0.016   2.748 -0.0630  0.1564 -0.0322
 6346TIP3    H140529   2.239   0.044   2.758  0.1822 -0.0260 -1.4830
 6346TIP3    H240530   2.152  -0.055   2.684 -1.1491 -0.4106  0.4937
 6347TIP3   OH240531   3.753   3.513   6.460 -0.2829  0.5095 -0.2446
 6347TIP3    H140532   3.829   3.460   6.485 -0.4168  0.9633  1.2182
 6347TIP3    H240533   3.787   3.575   6.395  0.5817  0.6453  0.3230
 6348TIP3   OH240534   4.074   5.755   2.893  0.2494  0.5835  0.2425
 6348TIP3    H140535   4.066   5.850   2.893 -1.7779  0.4712 -0.9118
 6348TIP3    H240536   4.145   5.736   2.832  0.8406  1.3489  0.6845
 6349TIP3   OH240537   4.493   4.786   0.392 -0.5763  0.1975  0.3937
 6349TIP3    H140538   4.417   4.761   0.340  0.0909 -0.4232 -0.3077
 6349TIP3    H240539   4.558   4.718   0.374  0.3935  1.0929  0.4126
 6350TIP3   OH240540   1.014   0.195  14.638 -0.2383  0.1854 -0.7268
 6350TIP3    H140541   1.072   0.265  14.606 -0.2048  0.3772 -0.2569
 6350TIP3    H240542   1.074   0.128  14.671 -0.2820  0.3267 -0.3598
 6351TIP3   OH240543   4.590   0.380   0.610  0.0620  0.4319  0.1556
 6351TIP3    H140544   4.626   0.469   0.613 -0.4660  0.6414  0.4231
 6351TIP3    H240545   4.636   0.333   0.679 -1.3465  1.1609  1.6661
 6352TIP3   OH240546   2.663   4.847  16.326 -0.5960 -0.1623  0.5108
 6352TIP3    H140547   2.631   4.932  16.296  0.8157  0.4848  0.7753
 6352TIP3    H240548   2.642   4.846  16.420 -2.3439 -0.9467  0.1540
 6353TIP3   OH240549   4.404   6.743   5.010 -0.3900 -0.0052  0.2586
 6353TIP3    H140550   4.343   6.675   5.037  0.5695 -0.6481  0.8611
 6353TIP3    H240551   4.371   6.773   4.925 -0.9607 -1.0339  0.1044
 6354TIP3   OH240552   3.900   5.029  12.743  0.5335  0.0575  0.6005
 6354TIP3    H140553   3.989   5.057  12.724  0.7783 -1.5639 -0.9148
 6354TIP3    H240554   3.911   4.948  12.794 -0.1143  0.9012  2.1406
 6355TIP3   OH240555   6.694   1.761  14.177  0.3286  0.1367  0.0090
 6355TIP3    H140556   6.620   1.749  14.118 -1.2516  0.9189  1.7212
 6355TIP3    H240557   6.654   1.780  14.262  2.5011 -0.0838  1.1567
 6356TIP3   OH240558   5.755   3.685  12.461  0.2298 -0.7640  0.0176
 6356TIP3    H140559   5.764   3.594  12.434  2.4559 -1.0713  1.5691
 6356TIP3    H240560   5.806   3.734  12.396  0.7485 -0.8567  0.3538
 6357TIP3   OH240561   0.130   2.510   3.747 -0.2711 -0.0666 -0.3934
 6357TIP3    H140562   0.062   2.491   3.811  0.0243 -0.4788 -0.2000
 6357TIP3    H240563   0.149   2.426   3.705  0.6639 -0.1149  0.0945
 6358TIP3   OH240564   4.294   0.835   2.510  0.1618  0.7604  0.1227
 6358TIP3    H140565   4.351   0.910   2.490  1.4967  0.0413  1.0696
 6358TIP3    H240566   4.320   0.808   2.597 -1.1932 -0.0387  0.3078
 6359TIP3   OH240567   1.922   6.767   2.856  0.1224 -0.2146 -0.0064
 6359TIP3    H140568   1.831   6.767   2.824 -0.2870  1.3128  1.0793
 6359TIP3    H240569   1.967   6.829   2.799 -0.3322  1.5868  1.4920
 6360TIP3   OH240570   5.965   6.011   2.034 -0.4775 -0.3065 -0.5721
 6360TIP3    H140571   5.924   5.924   2.036 -1.1341 -0.0047 -0.5357
 6360TIP3    H240572   6.058   5.993   2.025 -0.5068 -1.0365  0.4289
 6361TIP3   OH240573   3.907   6.667   3.289 -0.8040 -1.0204 -0.5036
 6361TIP3    H140574   3.920   6.574   3.273  0.7342 -0.5678 -2.1084
 6361TIP3    H240575   3.981   6.710   3.247 -0.6392  0.8556  1.5202
 6362TIP3   OH240576   3.810   6.157  10.367  0.3754 -0.1016  0.1214
 6362TIP3    H140577   3.883   6.218  10.356 -0.3815  1.2412  2.0477
 6362TIP3    H240578   3.840   6.095  10.434  0.5211 -0.8847 -0.6460
 6363TIP3   OH240579   5.574   0.210  15.291  0.3263  0.3385 -0.3242
 6363TIP3    H140580   5.575   0.183  15.199 -0.7707 -0.7406 -0.0358
 6363TIP3    H240581   5.523   0.143  15.336  1.1758  0.6444  1.1576
 6364TIP3   OH240582   2.424   6.645   5.492 -0.1694  0.0098  0.1727
 6364TIP3    H140583   2.389   6.592   5.421 -0.7464  0.8971 -0.2146
 6364TIP3    H240584   2.372   6.620   5.569 -0.5852  0.1661 -0.0553
 6365TIP3   OH240585   3.406   5.923   4.226 -0.4130  0.0299  0.0540
 6365TIP3    H140586   3.433   5.915   4.135 -2.2632 -0.3756 -0.5078
 6365TIP3    H240587   3.411   6.017   4.244  2.2700 -0.1104  0.3455
 6366TIP3   OH240588   1.846   6.095   1.081  0.3684  0.1816  0.3203
 6366TIP3    H140589   1.821   6.155   1.152  0.9459 -0.3107  0.9492
 6366TIP3    H240590   1.940   6.109   1.069  0.0555  1.1764 -1.2367
 6367TIP3   OH240591   6.781   2.968  12.772 -0.2835 -0.2808  0.2161
 6367TIP3    H140592   6.738   2.907  12.833  1.5035 -0.5505  1.3061
 6367TIP3    H240593   6.740   3.052  12.789 -0.1066 -0.4393  1.5448
 6368TIP3   OH240594   6.405   1.460  15.446 -0.4113 -0.2336 -0.2170
 6368TIP3    H140595   6.313   1.439  15.436 -0.0381 -1.4115 -1.5452
 6368TIP3    H240596   6.421   1.531  15.384 -0.8564  1.5475  1.5987
 6369TIP3   OH240597   6.482   2.549  16.445  0.0267 -0.4354 -0.5985
 6369TIP3    H140598   6.550   2.606  16.409 -0.3358  0.3026 -0.1445
 6369TIP3    H240599   6.529   2.471  16.474  0.7183  0.1446 -0.1132
 6370TIP3   OH240600   1.162   4.634  12.624 -0.9247 -0.0821 -0.8184
 6370TIP3    H140601   1.184   4.641  12.717  1.5551 -0.4810 -1.2890
 6370TIP3    H240602   1.173   4.541  12.603 -1.0218  0.0683 -1.5867
 6371TIP3   OH240603   4.054   3.795  11.128  0.2642  0.0793 -0.7055
 6371TIP3    H140604   4.101   3.844  11.061 -2.2434  1.7381 -1.4198
 6371TIP3    H240605   4.055   3.852  11.205  0.5817 -0.4718 -0.2978
 6372TIP3   OH240606   5.607   0.587  10.782 -0.4747  1.1040  0.6413
 6372TIP3    H140607   5.534   0.648  10.788 -1.6146  0.0030 -1.0322
 6372TIP3    H240608   5.574   0.516  10.726  1.7217  0.3242  0.2434
 6373TIP3   OH240609   1.234   1.444   5.233 -0.1566  0.2286  0.6769
 6373TIP3    H140610   1.191   1.527   5.253  1.2986  1.3308 -0.5444
 6373TIP3    H240611   1.292   1.429   5.307 -1.3825 -0.4162  1.5367
 6374TIP3   OH240612   3.721   3.459   2.816 -0.1148 -0.2165  0.1924
 6374TIP3    H140613   3.800   3.443   2.765  0.2019  0.2916  0.5073
 6374TIP3    H240614   3.725   3.553   2.838 -0.4086 -0.3502  0.8550
 6375TIP3   OH240615   0.905   3.158  12.556 -0.0419  0.0348  0.4721
 6375TIP3    H140616   0.902   3.167  12.651 -0.6845  1.8505  0.3235
 6375TIP3    H240617   0.988   3.198  12.530  0.1449 -0.4783  0.2568
 6376TIP3   OH240618   0.609   3.853   1.447 -0.6352 -0.6883 -0.0284
 6376TIP3    H140619   0.696   3.815   1.457  0.3967  1.5712  0.2073
 6376TIP3    H240620   0.617   3.942   1.482 -2.1883  0.7019 -2.7868
 6377TIP3   OH240621   2.573   0.394  16.086 -0.1148 -0.9644 -0.1988
 6377TIP3    H140622   2.646   0.451  16.063  0.7204 -1.8933  0.0772
 6377TIP3    H240623   2.588   0.372  16.179 -0.1278 -2.0197 -0.4290
 6378TIP3   OH240624   6.616   0.563  15.910  0.1924 -0.6283  0.0220
 6378TIP3    H140625   6.701   0.533  15.879  1.2969  1.0337  1.2644
 6378TIP3    H240626   6.607   0.651  15.873  0.3871  0.3688  2.2131
 6379TIP3   OH240627   5.631   3.804  11.799  0.0490  0.4418 -0.1523
 6379TIP3    H140628   5.662   3.886  11.761  1.3526  0.5355  1.0310
 6379TIP3    H240629   5.547   3.827  11.840  0.9075  1.5056  1.1282
 6380TIP3   OH240630   3.902   0.554  14.020 -0.2001  0.3020  0.1419
 6380TIP3    H140631   3.871   0.471  14.055  0.4055 -0.0320 -0.0990
 6380TIP3    H240632   3.872   0.555  13.929  2.6463 -1.2281 -0.9294
 6381TIP3   OH240633   0.735   3.339  11.471 -0.4589  0.1192  0.2935
 6381TIP3    H140634   0.787   3.264  11.441 -1.0003  0.5670 -1.9825
 6381TIP3    H240635   0.653   3.332  11.422 -0.7670  1.8486  0.4961
 6382TIP3   OH240636   2.202   5.771   5.851  0.1730 -0.4346  0.5592
 6382TIP3    H140637   2.227   5.727   5.770 -0.8806  3.1036 -1.9388
 6382TIP3    H240638   2.124   5.724   5.881  1.3522 -2.6328  0.3261
 6383TIP3   OH240639   0.707   2.187   0.013  0.4579 -0.0188 -0.0660
 6383TIP3    H140640   0.797   2.166   0.036  0.7416  1.5049  0.3063
 6383TIP3    H240641   0.661   2.103   0.020  1.4746 -0.4975  1.4923
 6384TIP3   OH240642   2.773   3.147  13.092  0.1214 -0.3474 -0.0730
 6384TIP3    H140643   2.696   3.194  13.060  0.2977 -0.7134 -1.0398
 6384TIP3    H240644   2.801   3.093  13.019  1.8848  0.4944 -0.0796
 6385TIP3   OH240645   5.181   4.974   3.615 -0.3639 -0.1259 -0.0212
 6385TIP3    H140646   5.254   4.957   3.674 -1.5571  0.8959  1.8324
 6385TIP3    H240647   5.163   4.889   3.574  2.2209 -0.2752 -1.0333
 6386TIP3   OH240648   3.477   0.858   5.684  0.0631 -0.4195  0.7010
 6386TIP3    H140649   3.482   0.769   5.719 -3.3898 -0.1171  2.3442
 6386TIP3    H240650   3.569   0.886   5.678  1.2216 -3.6363  1.1872
 6387TIP3   OH240651   5.808   0.149   0.631 -0.2290 -0.1799 -0.0996
 6387TIP3    H140652   5.832   0.085   0.564 -2.9558 -1.8769  0.3739
 6387TIP3    H240653   5.772   0.223   0.582  2.7047  1.0219 -0.6407
 6388TIP3   OH240654   3.198   0.766   4.836 -0.1607  0.2647  0.4024
 6388TIP3    H140655   3.231   0.815   4.912  0.6347  1.8853 -0.9164
 6388TIP3    H240656   3.277   0.735   4.791 -0.6401 -2.5118  1.2851
 6389TIP3   OH240657   4.976   1.828  12.689  0.1667 -0.3887 -0.2847
 6389TIP3    H140658   4.990   1.783  12.772  0.4004  1.9385  1.0278
 6389TIP3    H240659   5.047   1.798  12.633  1.5708 -0.0458  1.2470
 6390TIP3   OH240660   5.647   1.434   4.859  0.4760 -0.5163  0.4373
 6390TIP3    H140661   5.725   1.482   4.831  0.2587  0.8845  2.0452
 6390TIP3    H240662   5.583   1.503   4.878 -1.1248 -1.6356 -0.7097
 6391TIP3   OH240663   5.926   3.731  14.866  0.2320 -0.2591 -0.1504
 6391TIP3    H140664   5.875   3.780  14.931 -1.4375  0.1756 -1.7085
 6391TIP3    H240665   5.955   3.797  14.804  2.1547 -0.6182  0.3208
 6392TIP3   OH240666   3.049   6.120   6.115  0.3555  0.3679  0.8073
 6392TIP3    H140667   2.971   6.170   6.091  0.3375  0.8731  1.8244
 6392TIP3    H240668   3.019   6.030   6.124  0.3012  0.2205 -0.6662
 6393TIP3   OH240669   1.580   0.669   3.518 -0.6087 -0.8863 -1.1551
 6393TIP3    H140670   1.498   0.625   3.498 -0.4788 -1.4265 -0.5246
 6393TIP3    H240671   1.586   0.667   3.614 -2.2197  3.4045 -0.7309
 6394TIP3   OH240672   5.906   4.751  12.598 -0.5726  0.3255  0.6705
 6394TIP3    H140673   5.985   4.714  12.638  1.5635  0.5833 -2.8739
 6394TIP3    H240674   5.888   4.830  12.648 -1.1329 -1.7813  4.0962
 6395TIP3   OH240675   5.059   3.563  14.175  0.3992 -0.2805 -0.2358
 6395TIP3    H140676   5.051   3.551  14.269  1.1303  0.1906 -0.1055
 6395TIP3    H240677   5.076   3.475  14.141  0.7732 -0.3538  0.1398
 6396TIP3   OH240678   1.211   4.037   5.198  0.4065  0.1856  0.0919
 6396TIP3    H140679   1.124   3.997   5.201  0.4543 -0.0505 -1.1395
 6396TIP3    H240680   1.262   3.988   5.263 -0.4736  0.6020  1.1190
 6397TIP3   OH240681   5.080   1.015   2.366 -0.2149  0.2859  0.5016
 6397TIP3    H140682   5.172   1.025   2.391  0.1541 -0.8866 -0.3001
 6397TIP3    H240683   5.062   0.922   2.379 -1.1932  0.4365  0.2973
 6398TIP3   OH240684   6.546   6.739  16.556  0.0461 -0.2336  0.0253
 6398TIP3    H140685   6.509   6.652  16.567  1.1372 -0.7234 -0.0521
 6398TIP3    H240686   6.636   6.731  16.588  0.0767  0.9401  0.2925
 6399TIP3   OH240687   3.847   6.100  14.134 -0.1903  0.2990 -0.0850
 6399TIP3    H140688   3.869   6.080  14.043  0.7670  0.1250  0.1652
 6399TIP3    H240689   3.806   6.020  14.167 -0.3015  0.2696 -0.2931
 6400TIP3   OH240690   2.443   3.529   0.039  0.0158 -0.3858 -0.3714
 6400TIP3    H140691   2.464   3.569  -0.045 -1.0827 -1.8334 -1.3757
 6400TIP3    H240692   2.462   3.436   0.027 -2.3412 -1.0110  0.1916
 6401TIP3   OH240693   5.159   2.649   5.615 -0.1391  0.0380  0.0605
 6401TIP3    H140694   5.096   2.669   5.546 -1.7332  0.1483  1.5058
 6401TIP3    H240695   5.107   2.612   5.686  1.1185  1.6780  1.9640
 6402TIP3   OH240696   5.736   3.174  15.082 -0.1146  0.0380  0.3486
 6402TIP3    H140697   5.651   3.183  15.126 -0.6964  0.9097 -0.9119
 6402TIP3    H240698   5.729   3.093  15.032 -0.7635  0.8450 -0.9047
 6403TIP3   OH240699   3.205   6.791   4.088 -0.1637 -0.1596  0.3294
 6403TIP3    H140700   3.172   6.706   4.115 -0.1130 -0.4710 -0.5687
 6403TIP3    H240701   3.299   6.778   4.078 -0.3123 -0.3445 -1.0152
 6404TIP3   OH240702   1.118   0.119   1.870  0.1058 -0.3591  0.4578
 6404TIP3    H140703   1.054   0.090   1.806 -0.3549 -0.8862  1.1424
 6404TIP3    H240704   1.196   0.067   1.850  0.7164  1.0635 -1.0767
 6405TIP3   OH240705   3.677   5.012  13.382 -0.0024 -0.1495  0.0683
 6405TIP3    H140706   3.759   4.963  13.369 -0.4660 -0.5863 -1.2943
 6405TIP3    H240707   3.608   4.946  13.377 -0.7132  0.6989 -2.7728
 6406TIP3   OH240708   3.845   6.562   4.083 -0.8283  0.3700 -0.5964
 6406TIP3    H140709   3.838   6.496   4.151 -1.9376 -0.4494 -1.4529
 6406TIP3    H240710   3.804   6.522   4.006  0.9655  0.9815 -1.9643
 6407TIP3   OH240711   1.556   4.758   1.744 -0.4438 -0.3611 -0.0175
 6407TIP3    H140712   1.477   4.806   1.719 -0.9049 -1.4206 -0.6835
 6407TIP3    H240713   1.566   4.691   1.676  0.6288 -0.6982  0.4502
 6408TIP3   OH240714   3.370   0.720  13.990  0.3774  0.1234 -0.3727
 6408TIP3    H140715   3.287   0.706  13.943  0.9067 -2.5633 -0.6876
 6408TIP3    H240716   3.437   0.685  13.931  1.8401  2.4426 -0.2158
 6409TIP3   OH240717   1.861   6.748  12.248 -0.1527  0.3603 -0.0779
 6409TIP3    H140718   1.952   6.756  12.275 -0.0125  0.0298 -0.4329
 6409TIP3    H240719   1.812   6.802  12.309  0.2340  0.1766  0.3981
 6410TIP3   OH240720   3.474   5.716   5.353 -1.1139  0.2844 -1.0355
 6410TIP3    H140721   3.515   5.800   5.372 -2.2909  1.5233 -3.5054
 6410TIP3    H240722   3.381   5.736   5.345 -1.7209 -1.6729  0.2355
 6411TIP3   OH240723   3.870   5.396   4.993 -0.8604  0.4787  0.5721
 6411TIP3    H140724   3.887   5.356   4.908  1.5419 -0.6211  1.4683
 6411TIP3    H240725   3.872   5.490   4.976 -1.7035  0.2838 -0.7740
 6412TIP3   OH240726   1.872   4.194   3.126  0.1856  0.3236 -0.1057
 6412TIP3    H140727   1.896   4.181   3.218  0.5554 -0.2787 -0.2841
 6412TIP3    H240728   1.779   4.171   3.122  0.4050 -0.5905 -0.0694
 6413TIP3   OH240729   2.607   2.606  13.944 -0.4052 -1.0359 -0.0362
 6413TIP3    H140730   2.554   2.593  13.865 -0.7420 -1.7827  0.3057
 6413TIP3    H240731   2.601   2.523  13.992 -0.9003 -0.3311  1.1847
 6414TIP3   OH240732   2.528   0.857  11.890 -0.4351  0.1138 -0.1148
 6414TIP3    H140733   2.460   0.922  11.907 -1.2688 -0.5358 -0.8579
 6414TIP3    H240734   2.552   0.871  11.798 -2.0506 -1.8493 -0.9253
 6415TIP3   OH240735   1.517   6.813   2.627  0.1183 -0.4128 -0.2499
 6415TIP3    H140736   1.601   6.773   2.604  0.6304  0.8719 -0.7297
 6415TIP3    H240737   1.532   6.907   2.615 -1.2611 -0.1323  0.0992
 6416TIP3   OH240738   4.702   2.122   5.597 -0.1273 -0.8380  0.0042
 6416TIP3    H140739   4.770   2.065   5.633 -1.2774 -1.2233  1.6504
 6416TIP3    H240740   4.653   2.066   5.537 -0.0602 -1.0413  0.1407
 6417TIP3   OH240741   2.356   0.063  10.897 -0.1914  0.2150 -0.6553
 6417TIP3    H140742   2.356  -0.026  10.862  0.8593  0.1505 -0.5109
 6417TIP3    H240743   2.331   0.053  10.989  0.1627  0.0404 -0.5775
 6418TIP3   OH240744   0.350   2.487   1.835 -0.2271  0.7158 -0.4916
 6418TIP3    H140745   0.412   2.556   1.811  3.4730 -2.2120 -0.2510
 6418TIP3    H240746   0.375   2.462   1.924 -2.0935 -0.3728 -0.2148
 6419TIP3   OH240747   6.783   3.024   0.997  0.4340 -0.1156  0.0059
 6419TIP3    H140748   6.831   3.016   0.915  0.4356 -0.7854  0.0642
 6419TIP3    H240749   6.695   3.050   0.971  0.8439  1.2639 -0.0900
 6420TIP3   OH240750   1.811   4.841   0.821 -0.4688  0.1566 -0.7127
 6420TIP3    H140751   1.827   4.807   0.733 -1.2326  0.9320 -1.1755
 6420TIP3    H240752   1.840   4.932   0.817 -0.3192  0.1418 -0.0973
 6421TIP3   OH240753   3.025   4.953  11.409 -0.2592  0.3814  0.3758
 6421TIP3    H140754   2.974   4.891  11.461 -0.9550 -1.7294 -2.5986
 6421TIP3    H240755   2.960   5.001  11.358  0.5082  0.0436 -0.9667
 6422TIP3   OH240756   4.198   6.461  14.838  0.5552  0.1125 -0.1344
 6422TIP3    H140757   4.141   6.385  14.854  0.6157  0.1013  0.0292
 6422TIP3    H240758   4.164   6.529  14.896  1.3834 -0.2328  0.7754
 6423TIP3   OH240759   1.435   4.582  16.707 -0.1300  0.6126  0.2747
 6423TIP3    H140760   1.513   4.559  16.757 -0.4831 -0.7593  0.2466
 6423TIP3    H240761   1.361   4.554  16.762 -0.5679  0.9008 -0.1529
 6424TIP3   OH240762   2.357   6.586   6.111  0.4848  1.2439  0.0976
 6424TIP3    H140763   2.424   6.621   6.052 -0.5449  1.3592 -1.0517
 6424TIP3    H240764   2.280   6.641   6.096  0.0102  0.8889  1.1161
 6425TIP3   OH240765   1.842   3.103  13.096  0.1285  0.0451  0.3217
 6425TIP3    H140766   1.919   3.084  13.042 -0.8451 -2.0925 -0.3798
 6425TIP3    H240767   1.768   3.070  13.045 -0.8600 -1.8724  2.8173
 6426TIP3   OH240768   2.940   2.524   1.695  0.4663  0.3512  0.3189
 6426TIP3    H140769   2.866   2.462   1.698 -0.0266  0.9487  0.8202
 6426TIP3    H240770   2.981   2.508   1.611  0.1798 -0.4772  0.3237
 6427TIP3   OH240771   6.489   4.283   3.167 -0.5693 -0.2713  0.6044
 6427TIP3    H140772   6.563   4.314   3.220 -0.0480  1.7801 -1.1981
 6427TIP3    H240773   6.510   4.312   3.078 -2.7628 -1.1487 -0.2544
 6428TIP3   OH240774   0.236   0.240   4.521 -0.5304 -0.2638  0.6171
 6428TIP3    H140775   0.215   0.328   4.490 -0.6173 -0.9461 -1.4149
 6428TIP3    H240776   0.331   0.233   4.510 -0.8255 -1.4106 -2.3299
 6429TIP3   OH240777   6.049   4.845   3.378 -0.0841  0.1455  0.1148
 6429TIP3    H140778   6.057   4.759   3.337 -0.5871  0.1764 -0.0575
 6429TIP3    H240779   5.955   4.855   3.393 -0.1540  1.1161 -0.8487
 6430TIP3   OH240780   5.982   0.256   0.830  0.3288  0.1733 -0.0528
 6430TIP3    H140781   5.945   0.307   0.903  0.7798 -0.4918  0.6606
 6430TIP3    H240782   5.905   0.219   0.786  0.0259  1.0171 -0.2448
 6431TIP3   OH240783   2.114   2.056  15.966  0.2604  0.1097  0.4078
 6431TIP3    H140784   2.136   2.079  15.875  2.3926 -1.0224  0.5806
 6431TIP3    H240785   2.063   1.975  15.958 -0.4210  0.5539  0.1851
 6432TIP3   OH240786   5.370   2.427   5.129 -0.3438 -0.2971 -0.9871
 6432TIP3    H140787   5.433   2.403   5.062 -0.5195  2.3353 -2.2105
 6432TIP3    H240788   5.285   2.429   5.084 -0.8310 -0.7442 -0.1247
 6433TIP3   OH240789   3.774   4.605   5.720  0.1910  0.2450  0.1625
 6433TIP3    H140790   3.821   4.657   5.785  0.2841 -0.0880  0.3635
 6433TIP3    H240791   3.758   4.666   5.648 -1.3295  1.0526  1.1448
 6434TIP3   OH240792   3.291   5.961   1.153  0.3379  0.1488  0.2917
 6434TIP3    H140793   3.347   5.884   1.143  1.3714  0.8975  0.1262
 6434TIP3    H240794   3.312   5.994   1.240 -0.3856  0.0399  0.5145
 6435TIP3   OH240795   2.453   5.146  14.687 -0.0604 -0.0749 -0.2080
 6435TIP3    H140796   2.411   5.199  14.755  1.3900 -0.5605  1.1544
 6435TIP3    H240797   2.547   5.161  14.700  0.2851 -1.0419 -1.3961
 6436TIP3   OH240798   4.325   3.509  14.710  0.2685  0.1208 -0.7336
 6436TIP3    H140799   4.264   3.555  14.768 -0.2304  0.4353 -1.5019
 6436TIP3    H240800   4.408   3.510  14.758  0.0105  0.8864 -0.2779
 6437TIP3   OH240801   3.766   2.437   1.496 -0.2065  0.1539 -0.4619
 6437TIP3    H140802   3.699   2.505   1.509  0.2767  0.5329  0.0760
 6437TIP3    H240803   3.718   2.354   1.508  0.1291  0.3669  4.2519
 6438TIP3   OH240804   6.061   1.802  13.597  0.0835 -0.0822 -0.2911
 6438TIP3    H140805   6.126   1.740  13.563  0.1844 -0.2885  0.2571
 6438TIP3    H240806   6.088   1.887  13.564  0.2442 -0.2649 -0.6279
 6439TIP3   OH240807   6.180   5.582   3.377 -0.1114 -0.4234 -0.0731
 6439TIP3    H140808   6.104   5.555   3.428 -0.0344  0.0109  0.2741
 6439TIP3    H240809   6.143   5.625   3.299 -0.2416  1.0795  0.7757
 6440TIP3   OH240810   3.716   1.485  10.711  0.2634 -0.1329  0.7022
 6440TIP3    H140811   3.710   1.575  10.680 -1.0214 -0.3642  0.2169
 6440TIP3    H240812   3.644   1.440  10.667 -0.6233 -0.8548  2.7508
 6441TIP3   OH240813   2.633   1.370  13.440  0.1336 -0.0154  0.2587
 6441TIP3    H140814   2.539   1.388  13.448 -0.3249 -1.7912 -0.4491
 6441TIP3    H240815   2.661   1.350  13.530 -0.2194  0.3056  0.4418
 6442TIP3   OH240816   3.819   0.529   3.806  0.1149 -0.2445  0.3123
 6442TIP3    H140817   3.741   0.487   3.771 -1.4314  1.5908  1.3563
 6442TIP3    H240818   3.879   0.534   3.732 -1.1647 -0.8008 -0.8017
 6443TIP3   OH240819   4.788   0.244  12.701  0.0088 -0.2774  0.5802
 6443TIP3    H140820   4.701   0.203  12.691  0.2263 -0.2540 -1.9325
 6443TIP3    H240821   4.849   0.180  12.665  0.4356  1.8218 -2.8312
 6444TIP3   OH240822   2.714   2.812   4.563 -0.3323 -0.1034 -0.2204
 6444TIP3    H140823   2.672   2.752   4.624  1.2548 -1.6925 -0.6083
 6444TIP3    H240824   2.642   2.849   4.512 -1.3990 -1.4163  0.2858
 6445TIP3   OH240825   6.699   0.898  13.030  0.7079  0.5594 -0.6263
 6445TIP3    H140826   6.624   0.954  13.049  0.0002 -0.6394  0.2351
 6445TIP3    H240827   6.763   0.919  13.098  0.0685 -0.3084  0.2783
 6446TIP3   OH240828   1.106   2.076  15.941  0.8007  1.0110  0.2038
 6446TIP3    H140829   1.157   2.004  15.975 -0.5642  0.0315  0.2721
 6446TIP3    H240830   1.106   2.141  16.012 -0.8924 -0.4429  1.6606
 6447TIP3   OH240831   2.358   4.065   3.021 -0.7003 -0.2229  0.0479
 6447TIP3    H140832   2.342   3.973   3.040 -0.8436 -0.6713 -1.9912
 6447TIP3    H240833   2.332   4.111   3.101 -0.5454 -1.9299  1.1349
 6448TIP3   OH240834   4.704   5.817   2.505  0.1743 -0.4473  0.0281
 6448TIP3    H140835   4.762   5.854   2.439  0.0179 -0.8116 -0.3156
 6448TIP3    H240836   4.639   5.886   2.521 -0.3322 -0.7157 -0.8776
 6449TIP3   OH240837   1.473   4.105  15.992  0.5328  0.6056  0.4047
 6449TIP3    H140838   1.417   4.057  16.054 -0.0928 -0.1397 -0.6971
 6449TIP3    H240839   1.425   4.185  15.974 -0.3672 -0.1580 -0.7544
 6450TIP3   OH240840   6.103   3.639   2.289  0.4161 -0.7649  0.9638
 6450TIP3    H140841   6.198   3.641   2.300  0.6560  2.4355 -0.6175
 6450TIP3    H240842   6.087   3.569   2.226  1.7601 -1.0401  0.9129
 6451TIP3   OH240843   0.647   2.698  16.018  0.4932 -0.2316 -0.9572
 6451TIP3    H140844   0.671   2.605  16.016  0.3575 -0.4279  2.1232
 6451TIP3    H240845   0.731   2.744  16.012  1.0816 -0.7390  2.1588
 6452TIP3   OH240846   5.962   3.684  11.090 -0.0780 -0.0165 -0.4316
 6452TIP3    H140847   6.041   3.695  11.038 -1.1842  0.9107 -2.0050
 6452TIP3    H240848   5.890   3.703  11.030 -1.4435  0.8981  1.3675
 6453TIP3   OH240849   4.790   4.301  14.648  0.0987 -0.6756  0.7675
 6453TIP3    H140850   4.785   4.391  14.615 -0.0543 -0.4437  1.4120
 6453TIP3    H240851   4.884   4.282  14.654  0.1338 -0.4921  0.8038
 6454TIP3   OH240852   1.544   3.812   2.562 -0.1672 -0.4504 -0.1090
 6454TIP3    H140853   1.606   3.868   2.608 -1.1806 -0.2775  1.0886
 6454TIP3    H240854   1.484   3.781   2.630 -2.4693  0.7798 -1.4451
 6455TIP3   OH240855   1.268   0.169  14.149  0.2777 -0.3718  0.4816
 6455TIP3    H140856   1.216   0.188  14.070  0.8478 -1.3536 -0.1547
 6455TIP3    H240857   1.204   0.163  14.219 -0.2282  0.6772  0.1251
 6456TIP3   OH240858   4.137   3.946   1.233 -0.3669  0.0118 -0.0312
 6456TIP3    H140859   4.191   3.895   1.173 -1.3239 -1.7352  0.5136
 6456TIP3    H240860   4.047   3.924   1.209 -0.8086  1.1399  0.5118
 6457TIP3   OH240861   4.084   3.326  12.950 -0.1197  0.3884 -0.6848
 6457TIP3    H140862   3.996   3.304  12.920 -0.6789 -0.4289  1.3575
 6457TIP3    H240863   4.088   3.422  12.944 -0.5142  0.3299 -2.3578
 6458TIP3   OH240864   3.012   6.369  14.187 -0.0643 -0.4626  0.0999
 6458TIP3    H140865   3.101   6.372  14.220 -0.9155  0.1935  2.5979
 6458TIP3    H240866   2.996   6.456  14.151  0.3240 -0.6329 -0.5010
 6459TIP3   OH240867   5.116   6.070  16.420  0.3482  0.5284  0.0022
 6459TIP3    H140868   5.202   6.034  16.443  0.8732  1.9864  0.4407
 6459TIP3    H240869   5.129   6.165  16.419 -0.6518  0.7024 -2.4196
 6460TIP3   OH240870   4.297   3.813   4.440 -0.4910 -0.1242  0.3293
 6460TIP3    H140871   4.322   3.795   4.349 -0.7077  1.4864 -0.0793
 6460TIP3    H240872   4.206   3.842   4.435 -1.5149 -2.7743  1.4362
 6461TIP3   OH240873   5.268   6.435  10.967 -0.0251 -0.0118  0.1928
 6461TIP3    H140874   5.273   6.529  10.980  1.2469 -0.1970  1.2972
 6461TIP3    H240875   5.357   6.403  10.984  0.1620 -1.1765 -2.4743
 6462TIP3   OH240876   1.765   1.017   2.841  0.2872  0.1214  0.2666
 6462TIP3    H140877   1.679   1.056   2.821  0.6209  0.8009  0.1338
 6462TIP3    H240878   1.792   0.976   2.759  2.2830  4.0694 -1.3451
 6463TIP3   OH240879   1.225   6.501   2.750  0.4145  0.0284  0.2917
 6463TIP3    H140880   1.177   6.573   2.791  0.2616 -0.4875  1.0513
 6463TIP3    H240881   1.283   6.469   2.819  2.2488  0.9488 -0.7450
 6464TIP3   OH240882   5.957   6.424   5.010  0.3230 -0.3021 -0.3074
 6464TIP3    H140883   5.925   6.514   5.009 -1.7061 -0.9250  1.1390
 6464TIP3    H240884   6.003   6.415   5.094  0.8666 -0.5122 -0.6218
 6465TIP3   OH240885   4.740   5.796  12.716  0.4023 -0.5619  0.6577
 6465TIP3    H140886   4.763   5.713  12.675  1.5462  0.0339  0.0585
 6465TIP3    H240887   4.794   5.799  12.795  1.1543  0.0767  0.1297
 6466TIP3   OH240888   6.046   1.214   4.958  0.0325 -0.4047 -0.4017
 6466TIP3    H140889   5.968   1.263   4.982  0.8172 -0.3463  2.3387
 6466TIP3    H240890   6.057   1.150   5.029  2.9159  0.1800 -0.1986
 6467TIP3   OH240891   5.623   1.266  17.006  0.3300  0.2308 -0.2446
 6467TIP3    H140892   5.709   1.262  16.963  0.6720  0.7512  0.3616
 6467TIP3    H240893   5.643   1.253  17.099 -0.3308 -0.3300 -0.1836
 6468TIP3   OH240894   5.077   1.738  16.659  0.2084  0.1834  0.5264
 6468TIP3    H140895   5.022   1.679  16.606 -0.3180  1.0218  0.1180
 6468TIP3    H240896   5.016   1.803  16.692  1.1227  1.9044 -1.0054
 6469TIP3   OH240897   0.537   4.271   1.854 -0.5346 -1.1414 -0.0741
 6469TIP3    H140898   0.451   4.257   1.896 -0.5935 -0.0330  0.1861
 6469TIP3    H240899   0.582   4.332   1.912 -0.1851 -0.4624 -1.0559
 6470TIP3   OH240900   5.736   6.696   1.190  0.1169  0.1488  0.2620
 6470TIP3    H140901   5.758   6.605   1.208 -3.7450 -1.2765 -1.1752
 6470TIP3    H240902   5.722   6.736   1.276 -1.0431 -1.5048  0.8727
 6471TIP3   OH240903   4.547   2.601  12.155 -0.1456  0.5556  0.3741
 6471TIP3    H140904   4.506   2.575  12.237 -2.5577  0.6570 -0.6809
 6471TIP3    H240905   4.521   2.693  12.144  2.4225  1.3840  0.7509
 6472TIP3   OH240906   2.406   3.829  16.514 -0.0328  0.0450  0.2561
 6472TIP3    H140907   2.475   3.894  16.517 -0.9146  1.0623 -0.6806
 6472TIP3    H240908   2.410   3.794  16.425  0.2468 -0.9961  0.6631
 6473TIP3   OH240909   4.796   0.609   6.660  0.1239 -0.0509 -0.4111
 6473TIP3    H140910   4.783   0.687   6.606 -0.8035  0.4245  0.4689
 6473TIP3    H240911   4.741   0.623   6.736  2.3153 -0.1443  1.2797
 6474TIP3   OH240912   6.177   4.428  15.831 -0.4009  0.1095  0.5633
 6474TIP3    H140913   6.229   4.422  15.911  0.5496  0.2751 -0.0287
 6474TIP3    H240914   6.155   4.337  15.809  0.2417 -0.0169  0.4327
 6475TIP3   OH240915   3.605   6.254   1.806  0.4677 -0.0415 -0.2035
 6475TIP3    H140916   3.631   6.285   1.893  2.8791 -1.6866 -0.2506
 6475TIP3    H240917   3.642   6.317   1.745 -2.6894  2.1203 -0.1570
 6476TIP3   OH240918   1.320   2.170  12.867  0.2444  0.0665  0.2708
 6476TIP3    H140919   1.310   2.179  12.773 -0.0771 -0.8202  0.2147
 6476TIP3    H240920   1.414   2.182  12.882  0.1145  1.5974  0.0139
 6477TIP3   OH240921   5.809   3.422  15.077 -0.3597  0.1777  0.2301
 6477TIP3    H140922   5.803   3.328  15.093  0.7837  0.4228  2.5032
 6477TIP3    H240923   5.879   3.431  15.011  1.0298 -0.4989  1.5572
 6478TIP3   OH240924   3.366   5.374  14.594 -0.4487  0.0855  0.1664
 6478TIP3    H140925   3.278   5.337  14.605 -0.8627  1.0586  0.2332
 6478TIP3    H240926   3.424   5.298  14.593 -1.4009 -0.6650 -1.1610
 6479TIP3   OH240927   2.152   5.836   2.779 -0.6137 -0.2867  0.5261
 6479TIP3    H140928   2.181   5.769   2.840 -0.7695  1.2418  2.3755
 6479TIP3    H240929   2.194   5.813   2.696  0.2475 -1.9859  1.3866
 6480TIP3   OH240930   3.982   0.472  16.066 -0.3258 -0.9881  0.1351
 6480TIP3    H140931   3.950   0.439  16.150  0.2988 -0.3817  0.6293
 6480TIP3    H240932   3.917   0.535  16.037 -0.1651 -0.6273  0.5525
 6481TIP3   OH240933   6.434   0.052  15.176  0.1441  0.4059 -0.3675
 6481TIP3    H140934   6.444   0.128  15.234  1.0145 -0.3702  0.5405
 6481TIP3    H240935   6.376  -0.007  15.225  0.0546  0.1823 -0.7444
 6482TIP3   OH240936   3.147   2.123   1.337  0.3701  0.0826 -0.4671
 6482TIP3    H140937   3.188   2.085   1.259 -1.3644 -0.4323 -1.1689
 6482TIP3    H240938   3.093   2.194   1.303  1.1066  1.1358  0.5067
 6483TIP3   OH240939   6.079   1.180   0.641  0.0929  0.0831 -0.0134
 6483TIP3    H140940   6.114   1.146   0.559  1.1384 -0.3110  0.5801
 6483TIP3    H240941   6.137   1.253   0.663 -1.4167  1.5453 -0.6717
 6484TIP3   OH240942   0.489   5.048  12.676 -0.2255 -0.9482 -0.4293
 6484TIP3    H140943   0.504   5.115  12.609 -1.6016 -2.3968 -2.3006
 6484TIP3    H240944   0.452   5.096  12.750  3.5906  1.1010  0.4223
 6485TIP3   OH240945   1.836   3.697   2.643 -0.0680 -0.2928  0.3856
 6485TIP3    H140946   1.868   3.695   2.553  0.6914 -1.4132  0.6624
 6485TIP3    H240947   1.752   3.651   2.640  0.1053 -0.6059  0.3004
 6486TIP3   OH240948   6.521   5.381   0.539 -0.8413 -0.0618  0.9983
 6486TIP3    H140949   6.442   5.328   0.536  0.0577 -1.5260  2.0733
 6486TIP3    H240950   6.593   5.318   0.549  0.6449  1.1045 -1.3669
 6487TIP3   OH240951   0.462   5.180   4.075 -0.1273  0.0470  0.3740
 6487TIP3    H140952   0.439   5.089   4.057  0.4797  0.3509 -2.6326
 6487TIP3    H240953   0.387   5.215   4.123 -1.2841 -1.5322 -0.1842
 6488TIP3   OH240954   3.507   4.352   4.560  0.2549  0.0255  0.5675
 6488TIP3    H140955   3.585   4.314   4.520  2.1178  4.1795 -0.2390
 6488TIP3    H240956   3.467   4.405   4.491 -1.0223  1.0900  2.0409
 6489TIP3   OH240957   2.148   1.387  12.778 -0.0221  0.2933  0.4093
 6489TIP3    H140958   2.118   1.468  12.737 -0.7669  0.0425  0.4473
 6489TIP3    H240959   2.195   1.340  12.709  0.4078  0.7508  0.3881
 6490TIP3   OH240960   0.773   5.672  12.988 -1.1236  0.4109 -0.3416
 6490TIP3    H140961   0.744   5.706  13.073 -1.1823  2.0295 -0.9711
 6490TIP3    H240962   0.832   5.739  12.954 -1.0065 -0.2689 -1.5315
 6491TIP3   OH240963   5.152   6.813   4.977  0.2258  0.1838 -0.0592
 6491TIP3    H140964   5.119   6.733   5.018 -0.4104 -0.8736 -2.4717
 6491TIP3    H240965   5.109   6.883   5.024 -2.4638 -1.0470 -0.5164
 6492TIP3   OH240966   4.763   2.018  12.580  0.1563 -0.2839  0.6173
 6492TIP3    H140967   4.759   2.079  12.654  0.1248  0.8833 -0.3287
 6492TIP3    H240968   4.768   2.074  12.503  0.8336 -1.4836 -0.2389
 6493TIP3   OH240969   1.548   5.589  16.020 -0.5763 -0.0431  1.1580
 6493TIP3    H140970   1.473   5.648  16.030 -1.2041 -0.5043 -0.4330
 6493TIP3    H240971   1.562   5.586  15.925  2.2683  1.0097  1.4606
 6494TIP3   OH240972   1.363   3.004   4.653 -0.1455  0.2782  0.6280
 6494TIP3    H140973   1.418   2.926   4.652  1.4383  1.3505  0.2097
 6494TIP3    H240974   1.377   3.042   4.740  1.0209  1.3544  0.0106
 6495TIP3   OH240975   3.239   4.481  16.963 -0.0297 -0.3343 -0.8177
 6495TIP3    H140976   3.258   4.528  16.882  1.0477  0.7491  0.0254
 6495TIP3    H240977   3.200   4.398  16.934 -1.3912  0.7725 -2.3825
 6496TIP3   OH240978   0.654   4.852  16.568  0.1482  0.0092 -0.0452
 6496TIP3    H140979   0.561   4.864  16.547  0.5200  1.4338 -0.9886
 6496TIP3    H240980   0.660   4.873  16.661 -0.4875 -0.2633  0.0663
 6497TIP3   OH240981   5.118   1.608   2.796  0.4372  0.1525 -0.1442
 6497TIP3    H140982   5.045   1.565   2.840  0.3873  1.8181  1.5380
 6497TIP3    H240983   5.174   1.536   2.767 -1.6387 -1.1442 -1.1677
 6498TIP3   OH240984   0.294   6.737   6.281  0.4727 -0.3523  0.1154
 6498TIP3    H140985   0.335   6.704   6.361  0.4574 -0.5009  0.0615
 6498TIP3    H240986   0.333   6.686   6.211  0.8874  0.1448 -0.0260
 6499TIP3   OH240987   4.170   5.742   5.387  0.5230 -0.0323  0.5337
 6499TIP3    H140988   4.195   5.661   5.433  0.2019 -0.7500 -0.5159
 6499TIP3    H240989   4.131   5.712   5.305  2.0218  1.2029 -0.7154
 6500TIP3   OH240990   6.615   0.466   2.058 -0.3866 -0.1116  0.0499
 6500TIP3    H140991   6.583   0.439   1.972 -0.9497 -0.2561  0.2975
 6500TIP3    H240992   6.701   0.424   2.066 -0.2972 -0.0334 -0.4698
 6501TIP3   OH240993   1.856   4.610  13.922  0.0121  0.0150 -0.4615
 6501TIP3    H140994   1.941   4.568  13.917  0.4305  0.8810 -0.8339
 6501TIP3    H240995   1.795   4.539  13.941  0.6967 -0.7657 -1.0970
 6502TIP3   OH240996   0.624   4.357  13.411 -0.3819 -0.1777  0.4793
 6502TIP3    H140997   0.607   4.269  13.378 -2.7871  1.1453 -2.3136
 6502TIP3    H240998   0.697   4.389  13.357  0.9597 -0.6172  1.9645
 6503TIP3   OH240999   4.497   2.072   2.297 -0.2895  0.8665  0.2717
 6503TIP3    H141000   4.439   2.032   2.232 -0.0924 -0.5962  0.9694
 6503TIP3    H241001   4.582   2.078   2.254 -0.1423 -0.1656  0.3947
 6504TIP3   OH241002   2.048   2.114  13.068  0.1087 -0.4145  0.5033
 6504TIP3    H141003   2.142   2.102  13.086  0.5515  0.1011 -1.2703
 6504TIP3    H241004   2.027   2.198  13.107  1.1588  0.9131 -1.6221
 6505TIP3   OH241005   1.260   0.251  15.805 -0.0019 -0.3819  0.3509
 6505TIP3    H141006   1.272   0.158  15.784  1.7544 -0.2134  0.4745
 6505TIP3    H241007   1.262   0.255  15.900  0.4686 -0.1521  0.3314
 6506TIP3   OH241008   1.842   2.193  16.491 -0.0058  0.0120  0.2564
 6506TIP3    H141009   1.899   2.157  16.559 -0.1588 -1.6941 -0.4651
 6506TIP3    H241010   1.899   2.203  16.415  0.1837  1.9837  0.6091
 6507TIP3   OH241011   6.164   2.571  15.323 -0.3748 -0.0382 -0.6876
 6507TIP3    H141012   6.174   2.665  15.331  0.5172 -0.2458  0.9191
 6507TIP3    H241013   6.073   2.554  15.350 -0.1426  0.2408  0.3055
 6508TIP3   OH241014   4.450   4.942   2.362 -0.0965  0.0970 -0.2233
 6508TIP3    H141015   4.361   4.956   2.395 -0.7801  0.5027 -2.1310
 6508TIP3    H241016   4.470   5.020   2.312  1.4586  0.1031  0.3486
 6509TIP3   OH241017   5.321   1.741  13.683 -0.1054 -0.2293 -0.0292
 6509TIP3    H141018   5.318   1.816  13.742 -1.4799 -0.0888 -0.2492
 6509TIP3    H241019   5.338   1.778  13.597 -0.1573 -0.2331 -0.0405
 6510TIP3   OH241020   4.584   3.396  12.954 -0.1121  0.4440 -0.8334
 6510TIP3    H141021   4.663   3.450  12.961  0.4597 -0.4147 -0.4263
 6510TIP3    H241022   4.617   3.308  12.935 -1.0752  0.4080 -2.5255
 6511TIP3   OH241023   2.907   5.644   4.600 -0.7909 -0.2945 -0.3637
 6511TIP3    H141024   2.842   5.696   4.553  1.3571  2.7482 -0.2277
 6511TIP3    H241025   2.963   5.607   4.532 -1.4081 -1.1909 -0.3967
 6512TIP3   OH241026   0.894   1.102   3.635 -0.3201  0.4035 -0.2595
 6512TIP3    H141027   0.954   1.031   3.611  0.7674  1.3100 -0.3138
 6512TIP3    H241028   0.874   1.146   3.552 -1.7628 -0.3926 -0.3664
 6513TIP3   OH241029   5.527   0.875  15.706  0.4815  0.0127 -0.5757
 6513TIP3    H141030   5.556   0.964  15.686  1.2551  0.0969  0.8048
 6513TIP3    H241031   5.516   0.833  15.620 -0.8149  1.6946 -1.2930
 6514TIP3   OH241032   5.864   0.041   5.523 -0.1627  0.3458 -0.3328
 6514TIP3    H141033   5.780   0.034   5.567  0.0480  0.5049  0.1011
 6514TIP3    H241034   5.904   0.120   5.560  1.2193 -1.0396  1.2917
 6515TIP3   OH241035   2.305   2.413  16.049 -0.4601 -0.0167  0.7894
 6515TIP3    H141036   2.360   2.483  16.015 -0.2129  0.5847  2.3389
 6515TIP3    H241037   2.363   2.361  16.104 -0.9737 -0.6078  0.7901
 6516TIP3   OH241038   1.477   0.880   5.144  0.1732  0.6499  0.0262
 6516TIP3    H141039   1.471   0.973   5.119  0.7278  0.4180 -1.0450
 6516TIP3    H241040   1.569   0.858   5.133 -0.0750 -0.2056 -0.4271
 6517TIP3   OH241041   5.934   6.187   4.529 -0.0442  0.0130 -0.0209
 6517TIP3    H141042   5.883   6.165   4.607  0.7307 -2.2831 -0.0822
 6517TIP3    H241043   5.984   6.264   4.554 -2.8271  1.8542  0.3155
 6518TIP3   OH241044   4.090   1.899   4.110 -0.2008  0.0570  0.4338
 6518TIP3    H141045   4.080   1.993   4.126 -0.7104 -0.0377  0.7077
 6518TIP3    H241046   4.003   1.871   4.082 -0.5604 -0.6708  2.1565
 6519TIP3   OH241047   1.328   1.825   4.894  0.1326  0.4045 -0.4814
 6519TIP3    H141048   1.360   1.904   4.938 -1.1501  1.2742 -1.0644
 6519TIP3    H241049   1.236   1.842   4.877 -0.5017 -1.7467  0.4932
 6520TIP3   OH241050   5.557   0.786  13.323 -0.4714  0.4696  0.1182
 6520TIP3    H141051   5.598   0.864  13.360 -1.6494  1.3093 -0.2931
 6520TIP3    H241052   5.481   0.818  13.276 -0.8358 -0.9087 -0.2999
 6521TIP3   OH241053   3.558   0.787   0.227 -0.1467 -0.3650 -0.7461
 6521TIP3    H141054   3.643   0.824   0.253 -1.5391  1.3185  1.8205
 6521TIP3    H241055   3.532   0.732   0.300 -0.9937 -1.4266 -1.8063
 6522TIP3   OH241056   4.034   0.937  14.285  0.3272 -0.7107 -0.0916
 6522TIP3    H141057   3.988   0.982  14.356  1.7579 -0.7431  0.8905
 6522TIP3    H241058   4.109   0.895  14.327  1.6786 -0.0580 -1.7339
 6523TIP3   OH241059   3.363   2.877   5.109  0.2991 -0.1918 -0.2317
 6523TIP3    H141060   3.389   2.797   5.155  2.1239 -0.4459 -1.5577
 6523TIP3    H241061   3.380   2.857   5.016 -0.3480  1.3267 -0.7068
 6524TIP3   OH241062   6.334   0.482   1.852  0.7302  0.2108  0.7345
 6524TIP3    H141063   6.401   0.550   1.843  0.7516  0.1384  0.3275
 6524TIP3    H241064   6.383   0.403   1.876  1.0552 -0.3523 -1.6155
 6525TIP3   OH241065   5.035   4.512  10.836 -0.0016 -0.2137 -0.5944
 6525TIP3    H141066   4.940   4.526  10.836 -0.1428 -1.0067  0.5364
 6525TIP3    H241067   5.045   4.420  10.811  0.3510 -0.5993  0.8548
 6526TIP3   OH241068   5.131   2.327  13.968  0.3957 -0.1332 -0.1641
 6526TIP3    H141069   5.149   2.408  13.921 -0.3813  1.2103  1.7347
 6526TIP3    H241070   5.043   2.339  14.004  2.0298  0.3795  4.2375
 6527TIP3   OH241071   2.658   3.363   3.136  0.6958  0.2718 -0.6072
 6527TIP3    H141072   2.582   3.305   3.145 -0.4583  1.8309  0.1650
 6527TIP3    H241073   2.716   3.338   3.209 -0.2651  0.7332  0.3476
 6528TIP3   OH241074   1.137   0.332   4.366  0.1410 -0.0603  0.4883
 6528TIP3    H141075   1.127   0.299   4.455 -1.8421  1.9581  1.1213
 6528TIP3    H241076   1.065   0.292   4.317  0.0689  0.3068  0.2871
 6529TIP3   OH241077   2.679   1.955  12.347  0.0771  0.2727  0.2703
 6529TIP3    H141078   2.739   2.007  12.293  0.3663  1.1801  1.4260
 6529TIP3    H241079   2.617   2.018  12.383 -1.4212 -0.6159 -0.6478
 6530TIP3   OH241080   6.509   4.297   0.584 -0.3373 -0.1672  0.2300
 6530TIP3    H141081   6.543   4.375   0.628 -1.4626  0.0067  0.8181
 6530TIP3    H241082   6.421   4.322   0.556  0.7876  0.2415 -3.4627
 6531TIP3   OH241083   4.842   6.131  13.003  0.1952 -0.4166 -0.0406
 6531TIP3    H141084   4.772   6.094  13.056 -0.3650  1.1669  0.3950
 6531TIP3    H241085   4.797   6.168  12.926  0.5624  0.3457  0.0979
 6532TIP3   OH241086   1.576   6.746   4.686 -0.2734 -0.3600 -0.0028
 6532TIP3    H141087   1.608   6.741   4.776  1.9099 -0.3444 -0.7257
 6532TIP3    H241088   1.533   6.832   4.682  1.9779  0.8918  0.3837
 6533TIP3   OH241089   1.897   2.468   4.127 -0.1288 -0.1544 -0.2237
 6533TIP3    H141090   1.879   2.403   4.196  0.6974  0.0634  0.2150
 6533TIP3    H241091   1.986   2.499   4.146 -0.2284  0.5621 -0.8729
 6534TIP3   OH241092   0.364   1.202   1.763 -0.5959 -0.4063  0.0670
 6534TIP3    H141093   0.302   1.271   1.739 -2.0905 -1.6087  0.3419
 6534TIP3    H241094   0.405   1.234   1.844  1.2385  1.6473 -1.5421
 6535TIP3   OH241095   2.255   3.549   1.656  0.2563 -0.8497  0.6232
 6535TIP3    H141096   2.323   3.606   1.621 -2.7095  2.9533  0.3930
 6535TIP3    H241097   2.265   3.556   1.751  0.6056 -0.8837  0.5900
 6536TIP3   OH241098   2.636   6.066   3.674  0.5543 -0.5112  0.4491
 6536TIP3    H141099   2.671   5.998   3.617  0.6771 -0.7266  0.7815
 6536TIP3    H241100   2.709   6.089   3.732  0.0650 -1.1876  1.3558
 6537TIP3   OH241101   0.355   4.060  13.821  0.2155  0.4202  0.7503
 6537TIP3    H141102   0.361   3.973  13.860  0.4884  0.0719 -0.0419
 6537TIP3    H241103   0.263   4.069  13.796  0.8256 -1.2663 -2.6971
 6538TIP3   OH241104   0.779   2.116  11.692  0.2685  0.0528  0.2508
 6538TIP3    H141105   0.866   2.142  11.664  0.7982  0.5820  2.1937
 6538TIP3    H241106   0.764   2.166  11.773 -1.2239 -1.1214  0.7509
 6539TIP3   OH241107   2.011   3.972   0.976 -0.0316 -0.1576 -0.0978
 6539TIP3    H141108   2.091   4.013   0.943  0.6886 -1.0433  0.5019
 6539TIP3    H241109   2.030   3.953   1.068 -0.4090 -1.6399 -0.3078
 6540TIP3   OH241110   0.381   0.357  14.837  0.2188  0.0934  0.1518
 6540TIP3    H141111   0.305   0.324  14.885  0.3391  0.9234  0.9387
 6540TIP3    H241112   0.449   0.292  14.853  0.2773  0.3853  1.1848
 6541TIP3   OH241113   3.923   5.920  11.483  0.4615  0.2474 -0.4496
 6541TIP3    H141114   3.868   5.841  11.488  0.0086  0.6120  3.0603
 6541TIP3    H241115   4.012   5.887  11.471  0.1473 -0.7238 -0.1937
 6542TIP3   OH241116   0.340   1.978   3.301  0.1126  0.5950 -0.2226
 6542TIP3    H141117   0.374   2.064   3.327 -0.2954  0.6334  0.1898
 6542TIP3    H241118   0.414   1.937   3.257  1.6906 -0.3880  2.9994
 6543TIP3   OH241119   4.301   6.341  11.774  0.1119 -0.1752  0.3123
 6543TIP3    H141120   4.316   6.402  11.702  2.7417 -0.7060  0.3265
 6543TIP3    H241121   4.207   6.322  11.770 -0.4690  2.4855 -0.7543
 6544TIP3   OH241122   3.194   0.892  14.749  0.6227 -0.3806 -0.1481
 6544TIP3    H141123   3.256   0.826  14.780  0.2407 -0.3371  0.7274
 6544TIP3    H241124   3.248   0.970  14.734  1.2548 -1.1557 -2.1928
 6545TIP3   OH241125   2.277   5.028  15.020  0.3752 -0.5070 -0.0794
 6545TIP3    H141126   2.245   5.057  14.935 -1.1194  1.9671  1.2465
 6545TIP3    H241127   2.348   5.088  15.041 -0.1054 -0.2838  0.9634
 6546TIP3   OH241128   2.086   4.970  15.223 -0.0440  0.4599  0.4408
 6546TIP3    H141129   2.129   4.932  15.300 -0.2102 -2.4795 -0.7816
 6546TIP3    H241130   2.158   4.993  15.165  0.0165 -0.1728  0.2579
 6547TIP3   OH241131   0.172   6.280   0.466 -0.1017 -0.2636 -0.0031
 6547TIP3    H141132   0.164   6.248   0.375 -1.4023  0.3876 -0.1383
 6547TIP3    H241133   0.175   6.200   0.519 -1.3306 -0.6591 -0.4880
 6548TIP3   OH241134   4.698   2.761   1.142  0.1779  0.1939 -0.1094
 6548TIP3    H141135   4.753   2.712   1.204 -0.2656  0.6502  0.6589
 6548TIP3    H241136   4.639   2.811   1.197 -1.3127 -0.6039 -0.9121
 6549TIP3   OH241137   2.991   2.756  11.103 -0.4487 -0.4721  0.0197
 6549TIP3    H141138   3.073   2.771  11.057 -1.2430 -1.4891 -1.8510
 6549TIP3    H241139   2.924   2.761  11.034 -1.5838 -3.2870  0.7789
 6550TIP3   OH241140   4.969   5.189  16.410 -0.3404  0.0747  0.1296
 6550TIP3    H141141   5.045   5.241  16.436 -1.4863  1.7098  0.3648
 6550TIP3    H241142   4.956   5.128  16.483 -1.1482  1.9621  1.6253
 6551TIP3   OH241143   6.432   1.019   2.250  0.4307 -0.3031 -0.1943
 6551TIP3    H141144   6.493   1.088   2.277  0.2989 -0.5220  0.7042
 6551TIP3    H241145   6.392   0.990   2.332  1.0236 -1.9675 -0.4585
 6552TIP3   OH241146   3.259   1.876  11.986 -0.5315 -0.0551 -0.0307
 6552TIP3    H141147   3.344   1.919  11.978  0.2165 -1.4484  0.2295
 6552TIP3    H241148   3.203   1.924  11.924  0.4949  0.7133 -0.4015
 6553TIP3   OH241149   0.659   1.513  12.948  0.3056  0.4606  0.4327
 6553TIP3    H141150   0.658   1.420  12.925  0.6573  0.1966  1.4430
 6553TIP3    H241151   0.748   1.542  12.929 -0.4015  1.1978 -2.1018
 6554TIP3   OH241152   1.960   4.363  15.025 -0.4474  0.2738 -0.5055
 6554TIP3    H141153   1.903   4.289  15.047  0.8051 -0.1318  1.8074
 6554TIP3    H241154   1.907   4.440  15.044 -0.3454 -0.0963  1.6282
 6555TIP3   OH241155   6.773   2.614  14.600 -0.2548  0.1523 -0.1278
 6555TIP3    H141156   6.760   2.591  14.692  0.5599 -0.9284 -0.2614
 6555TIP3    H241157   6.712   2.559  14.552 -0.7161  0.7528 -0.2369
 6556TIP3   OH241158   3.869   2.566   5.245  0.2537  0.1621 -0.5257
 6556TIP3    H141159   3.943   2.542   5.300  0.4676 -0.0148 -0.8888
 6556TIP3    H241160   3.906   2.573   5.157 -0.2972 -0.6277 -0.8279
 6557TIP3   OH241161   5.251   1.624   5.558 -0.0635  0.8172 -0.0352
 6557TIP3    H141162   5.192   1.687   5.600 -0.1960  2.2644 -2.2229
 6557TIP3    H241163   5.310   1.596   5.629 -1.6142  1.4344  1.5747
 6558TIP3   OH241164   5.876   5.696   4.038  0.9233  0.1535 -0.0852
 6558TIP3    H141165   5.895   5.779   3.995 -0.2289  0.5973  0.2303
 6558TIP3    H241166   5.782   5.683   4.024  0.5885  0.1268  1.9426
 6559TIP3   OH241167   2.517   3.661  16.937 -0.2006 -0.0968 -0.1693
 6559TIP3    H141168   2.521   3.591  16.872  1.0772  1.2902 -1.6692
 6559TIP3    H241169   2.572   3.731  16.901  0.0432  0.9925  2.1079
 6560TIP3   OH241170   4.241   6.346  12.941 -0.0085  0.7009 -0.2244
 6560TIP3    H141171   4.196   6.290  12.878 -0.1705  1.7956 -1.1393
 6560TIP3    H241172   4.176   6.411  12.967  0.3307  0.8231  0.3365
 6561TIP3   OH241173   6.003   5.873  14.374 -0.1494  0.0513 -0.1603
 6561TIP3    H141174   6.027   5.915  14.457  1.0307 -1.6098  0.4053
 6561TIP3    H241175   5.909   5.889  14.365 -0.3191  0.2324  1.5415
 6562TIP3   OH241176   6.674   0.172  14.556 -0.1990  0.4003 -0.2704
 6562TIP3    H141177   6.642   0.146  14.469 -0.8238  1.3122 -0.3247
 6562TIP3    H241178   6.608   0.137  14.617  0.6225 -0.8943 -0.0759
 6563TIP3   OH241179   4.850   2.514   2.221  0.3398  0.1481 -0.1247
 6563TIP3    H141180   4.804   2.442   2.264  0.0824  0.4179  0.0562
 6563TIP3    H241181   4.905   2.471   2.155  0.2020 -0.2137 -0.0097
 6564TIP3   OH241182   2.333   1.925  14.029  0.1920  0.1990  0.1032
 6564TIP3    H141183   2.376   1.902  13.947  0.1638  1.5675 -0.3127
 6564TIP3    H241184   2.392   1.892  14.097  0.2101 -0.9565 -0.4400
 6565TIP3   OH241185   3.711   3.076  14.277  0.1432  0.1732 -0.2842
 6565TIP3    H141186   3.797   3.110  14.252 -0.8819  3.4735  0.2252
 6565TIP3    H241187   3.659   3.153  14.297 -2.1147 -1.8020  2.2917
 6566TIP3   OH241188   6.857   6.795  14.016 -0.1068 -0.2014  0.4860
 6566TIP3    H141189   6.798   6.746  13.959 -1.6722  2.5533 -0.4604
 6566TIP3    H241190   6.900   6.728  14.070 -1.0594 -2.6530 -1.5916
 6567TIP3   OH241191   0.444   4.439   0.947  0.2801 -0.0214 -0.5457
 6567TIP3    H141192   0.536   4.420   0.930  0.7241  1.1795  0.3964
 6567TIP3    H241193   0.443   4.483   1.032 -1.0816  0.6580 -0.8789
 6568TIP3   OH241194   4.849   1.682   5.211  0.1951  0.1473 -0.7012
 6568TIP3    H141195   4.891   1.660   5.128 -0.5946 -2.1100 -0.5740
 6568TIP3    H241196   4.757   1.694   5.189  0.1025  0.2232 -0.2762
 6569TIP3   OH241197   6.623   2.540   4.537  0.4178 -0.4879 -0.1809
 6569TIP3    H141198   6.540   2.529   4.490 -0.9128  1.3166  1.6180
 6569TIP3    H241199   6.644   2.452   4.569 -1.1599 -0.8587 -0.1007
 6570TIP3   OH241200   5.570   5.654  15.606 -0.2035  0.0984 -0.2881
 6570TIP3    H141201   5.509   5.672  15.534  0.1649  2.5335 -0.0646
 6570TIP3    H241202   5.517   5.606  15.670 -1.0089 -0.5719 -1.4116
 6571TIP3   OH241203   4.938   6.553   3.053 -0.4772 -0.6523 -0.7497
 6571TIP3    H141204   4.974   6.534   3.140 -0.3888 -3.6387 -1.3090
 6571TIP3    H241205   4.847   6.578   3.070 -0.2006 -0.2565  0.2604
 6572TIP3   OH241206   0.077   2.674  13.592 -0.0984  0.1343  0.2608
 6572TIP3    H141207   0.137   2.727  13.644  1.3497 -0.7275 -0.4473
 6572TIP3    H241208   0.055   2.600  13.649  0.0902  0.0924  0.2808
 6573TIP3   OH241209   1.042   6.621   3.193  0.2813 -0.0794 -0.0381
 6573TIP3    H141210   1.073   6.695   3.245 -1.1262  1.4973 -1.2970
 6573TIP3    H241211   0.949   6.614   3.214 -0.5447  1.1353 -2.7531
 6574TIP3   OH241212   5.247   2.346   2.650  0.1299  0.2610 -0.2597
 6574TIP3    H141213   5.230   2.255   2.628 -0.5889  0.1499  0.6836
 6574TIP3    H241214   5.218   2.354   2.741  2.2001  0.8784  0.4011
 6575TIP3   OH241215   2.775   4.346   3.623  0.3236  0.1961 -0.2055
 6575TIP3    H141216   2.823   4.267   3.596 -0.6410 -1.1835  1.8571
 6575TIP3    H241217   2.841   4.400   3.667  0.1988 -1.6067  2.4619
 6576TIP3   OH241218   5.624   4.027   5.024 -0.2406  0.0144 -0.4656
 6576TIP3    H141219   5.614   3.934   5.044 -0.4994 -0.0928 -1.0746
 6576TIP3    H241220   5.718   4.038   5.008 -0.2647 -0.2262 -0.7868
 6577TIP3   OH241221   6.465   3.424   0.163 -0.5456  0.3964  0.3168
 6577TIP3    H141222   6.490   3.335   0.187 -1.9877  0.2186  1.3044
 6577TIP3    H241223   6.443   3.419   0.070 -0.3123 -0.2050  0.2885
 6578TIP3   OH241224   1.190   6.683  16.460  0.1528 -0.3817 -0.5257
 6578TIP3    H141225   1.222   6.600  16.495 -0.3126 -1.2674 -2.1210
 6578TIP3    H241226   1.270   6.734  16.444  0.5891 -1.2746 -1.3250
 6579TIP3   OH241227   0.895   0.821  10.761 -0.4749 -0.2399  0.4379
 6579TIP3    H141228   0.971   0.789  10.713 -0.2177 -1.3382  1.5381
 6579TIP3    H241229   0.848   0.876  10.698  0.3706 -0.8399 -0.7433
 6580TIP3   OH241230   4.144   0.022   1.934 -0.1613  0.1207 -0.5439
 6580TIP3    H141231   4.099   0.080   1.996 -0.8441  0.2214 -1.1266
 6580TIP3    H241232   4.207   0.078   1.890 -1.9541  0.8668 -2.3014
 6581TIP3   OH241233   6.032   0.520   0.673  0.1276 -0.1977  0.2593
 6581TIP3    H141234   6.079   0.463   0.735  2.0936  0.2846 -0.6880
 6581TIP3    H241235   6.054   0.484   0.587 -0.0495  0.9436 -0.2788
 6582TIP3   OH241236   6.298   5.406  10.869 -0.1764  0.3246  0.4144
 6582TIP3    H141237   6.264   5.422  10.780  1.3278  0.0819 -0.2356
 6582TIP3    H241238   6.219   5.400  10.923 -1.4433 -3.0674 -1.4742
 6583TIP3   OH241239   6.678   6.245   4.736  0.2084 -0.3773 -0.6396
 6583TIP3    H141240   6.636   6.187   4.800 -1.3072  0.8344 -0.4908
 6583TIP3    H241241   6.611   6.260   4.670  0.1233  2.1001 -0.0910
 6584TIP3   OH241242   5.604   2.493   0.540  0.7883  0.0174  0.3717
 6584TIP3    H141243   5.550   2.451   0.472 -0.2039  0.8229  0.6339
 6584TIP3    H241244   5.543   2.551   0.586  1.9111  1.0384  0.6145
 6585TIP3   OH241245   5.458   0.346   4.981 -0.2422 -0.3722  0.8469
 6585TIP3    H141246   5.522   0.347   5.051  0.8145  0.0690 -0.0933
 6585TIP3    H241247   5.507   0.319   4.903 -0.7764  1.5781 -0.2514
 6586TIP3   OH241248   2.758   3.374   2.249  0.3043 -0.2344 -0.0049
 6586TIP3    H141249   2.694   3.389   2.318 -0.5500 -2.5182 -0.2071
 6586TIP3    H241250   2.825   3.319   2.289  0.8100  0.0214 -0.4834
 6587TIP3   OH241251   4.118   6.139   1.996  0.1505 -0.0782 -0.0382
 6587TIP3    H141252   4.098   6.221   1.951 -0.3853  0.7984  1.7321
 6587TIP3    H241253   4.036   6.115   2.039  0.8845 -0.3621  1.2507
 6588TIP3   OH241254   4.916   3.398   0.235  0.4538 -0.4128  0.1370
 6588TIP3    H141255   4.827   3.400   0.270  0.4337  0.2441  0.0706
 6588TIP3    H241256   4.962   3.465   0.285  1.6284 -2.4926  1.9976
 6589TIP3   OH241257   5.683   0.585   0.661  0.2190 -0.1786  0.0867
 6589TIP3    H141258   5.751   0.634   0.706 -0.7724  0.8233  0.5478
 6589TIP3    H241259   5.684   0.619   0.572  0.2898 -0.1431  0.1009
 6590TIP3   OH241260   5.157   0.617  13.664  0.2274  0.0128 -0.2964
 6590TIP3    H141261   5.213   0.601  13.588  0.4671  3.8602 -1.1380
 6590TIP3    H241262   5.208   0.675  13.720 -1.3724  0.2716  0.9746
 6591TIP3   OH241263   3.467   6.076   2.014 -0.4677 -0.1902  0.9898
 6591TIP3    H141264   3.445   6.082   1.922 -0.8501  0.2775  1.1112
 6591TIP3    H241265   3.442   5.987   2.039 -1.4174  0.0444  0.9140
 6592TIP3   OH241266   6.842   4.835  15.353 -0.6469 -0.5107  0.1779
 6592TIP3    H141267   6.917   4.870  15.306  0.7298 -1.5679  1.4524
 6592TIP3    H241268   6.830   4.747  15.316  1.2903 -1.8953  2.4577
 6593TIP3   OH241269   6.431   2.488   2.595 -0.4476 -0.1845  0.3500
 6593TIP3    H141270   6.365   2.424   2.620 -0.3211 -0.3643  0.2220
 6593TIP3    H241271   6.496   2.483   2.664  0.2799 -1.2162 -0.3819
 6594TIP3   OH241272   1.923   0.824  17.101  0.0021  0.4787 -0.0549
 6594TIP3    H141273   1.994   0.789  17.047 -0.2010 -0.0229 -0.0110
 6594TIP3    H241274   1.953   0.910  17.129  0.5534  0.3075 -0.1107
 6595TIP3   OH241275   2.963   2.262  15.873  0.2164  0.1346  0.2484
 6595TIP3    H141276   2.914   2.323  15.818 -0.0513 -0.6322 -0.3816
 6595TIP3    H241277   2.897   2.221  15.929  0.0780 -0.9718 -0.6680
 6596TIP3   OH241278   2.324   4.828  15.324  0.5851 -0.2476  0.3808
 6596TIP3    H141279   2.273   4.755  15.290 -0.4415  0.9265 -0.6922
 6596TIP3    H241280   2.353   4.799  15.411 -1.1934 -1.2853  0.6671
 6597TIP3   OH241281   6.338   2.608   2.376 -0.5703 -0.1586  0.2470
 6597TIP3    H141282   6.325   2.527   2.327 -0.3125  0.5410 -1.0127
 6597TIP3    H241283   6.339   2.581   2.468 -2.0037 -1.3819 -0.0652
 6598TIP3   OH241284   1.154   5.212   1.928  0.5415  0.2686 -0.0155
 6598TIP3    H141285   1.101   5.143   1.889 -0.8717  1.6683 -0.6589
 6598TIP3    H241286   1.191   5.171   2.007 -0.3884 -1.1644 -0.2775
 6599TIP3   OH241287   6.007   5.314  14.502  0.3792 -0.5174 -0.6753
 6599TIP3    H141288   5.925   5.315  14.550  0.3007 -0.3154 -0.8121
 6599TIP3    H241289   6.025   5.406  14.483  2.0170 -0.2623  1.6772
 6600TIP3   OH241290   2.092   2.152   1.516  0.2049  0.0656 -0.3000
 6600TIP3    H141291   2.091   2.116   1.604  1.5574  0.3979 -0.1254
 6600TIP3    H241292   2.027   2.222   1.518 -0.4525 -0.5461  0.1490
 6601TIP3   OH241293   4.768   3.282  11.214  0.2132 -0.2451 -0.3085
 6601TIP3    H141294   4.786   3.336  11.137  0.3075 -1.5041 -1.2022
 6601TIP3    H241295   4.798   3.195  11.189 -3.2444 -1.5787 -0.3565
 6602TIP3   OH241296   5.443   3.930  14.522 -0.2089 -0.2788  0.0532
 6602TIP3    H141297   5.504   3.886  14.581 -0.6836  0.3565  1.0614
 6602TIP3    H241298   5.367   3.872  14.518  1.0008 -1.8064 -2.4070
 6603TIP3   OH241299   5.334   6.572   4.287 -0.2064  0.3190 -0.3142
 6603TIP3    H141300   5.373   6.504   4.232  1.3489  0.5101  0.4973
 6603TIP3    H241301   5.402   6.592   4.351 -1.9481  0.0874  1.7020
 6604TIP3   OH241302   2.747   5.563  12.447  0.1372  0.1289 -0.2069
 6604TIP3    H141303   2.696   5.482  12.446  1.7547 -0.9481  0.3780
 6604TIP3    H241304   2.838   5.535  12.438  0.7161  1.9347 -0.5889
 6605TIP3   OH241305   2.992   2.963  13.095 -0.0498 -0.1001  0.0562
 6605TIP3    H141306   3.004   2.997  13.183  2.5421 -0.5104 -0.0690
 6605TIP3    H241307   2.976   2.869  13.107 -1.0855  0.0671  0.1125
 6606TIP3   OH241308   6.246   2.202  13.262 -0.3041  0.3843  0.1930
 6606TIP3    H141309   6.339   2.222  13.263  0.0615 -1.1880  0.2811
 6606TIP3    H241310   6.203   2.285  13.242  1.3357  0.3432 -5.0619
 6607TIP3   OH241311   0.307   0.176  15.568 -0.6497  0.3125  0.4566
 6607TIP3    H141312   0.306   0.246  15.634 -1.3080  1.0748 -0.3266
 6607TIP3    H241313   0.219   0.177  15.531 -0.2111  0.1170 -0.6449
 6608TIP3   OH241314   3.896   4.382   1.990  0.1592 -0.2605  0.7850
 6608TIP3    H141315   3.944   4.331   2.055  1.4888  1.1380  0.9398
 6608TIP3    H241316   3.963   4.413   1.929 -0.8533 -0.1357 -0.3021
 6609TIP3   OH241317   3.327   5.944  15.672  0.2586  0.1736 -0.2609
 6609TIP3    H141318   3.387   5.997  15.618 -0.5677  1.6567  0.2134
 6609TIP3    H241319   3.385   5.890  15.726  1.1238  0.0932 -1.2308
 6610TIP3   OH241320   3.536   0.416   2.835 -0.2650  0.2290 -0.2381
 6610TIP3    H141321   3.503   0.432   2.923  1.6656  0.2952  0.5185
 6610TIP3    H241322   3.631   0.412   2.845 -0.0837 -2.5769 -1.8538
 6611TIP3   OH241323   4.025   2.164   5.626  0.1141  0.4050 -0.2514
 6611TIP3    H141324   3.987   2.078   5.605  2.4015 -0.7695  0.1481
 6611TIP3    H241325   4.110   2.164   5.582  0.0559  2.6153 -0.4727
 6612TIP3   OH241326   2.289   5.127   1.518  0.2662  0.3769 -0.5233
 6612TIP3    H141327   2.301   5.207   1.569  1.5644  0.5118 -0.9942
 6612TIP3    H241328   2.222   5.149   1.454 -0.2422  0.6999  0.1092
 6613TIP3   OH241329   4.775   1.726   4.718 -0.2902  0.3530  0.0186
 6613TIP3    H141330   4.852   1.713   4.773 -0.6376  0.3604  0.5187
 6613TIP3    H241331   4.719   1.651   4.738 -0.9004  0.9228  0.5059
 6614TIP3   OH241332   0.763   1.325  17.114  0.4697  0.2772 -0.5172
 6614TIP3    H141333   0.743   1.372  17.033  1.2212  1.6487  0.0648
 6614TIP3    H241334   0.690   1.263  17.124 -0.4485  1.1633 -1.4299
 6615TIP3   OH241335   0.521   6.768  10.654 -0.0354  0.0514 -0.0928
 6615TIP3    H141336   0.584   6.810  10.596  0.4740  1.0474  1.1189
 6615TIP3    H241337   0.438   6.772  10.606 -0.0016  2.4570 -0.1035
 6616TIP3   OH241338   3.155   0.444  13.228  0.8345 -0.6111 -0.2303
 6616TIP3    H141339   3.109   0.510  13.279  0.1974 -0.7282 -0.6403
 6616TIP3    H241340   3.240   0.435  13.271  0.9509  0.5073 -0.2013
 6617TIP3   OH241341   0.505   1.739  12.881 -0.0268  0.6859  0.1707
 6617TIP3    H141342   0.550   1.658  12.906 -1.7139 -0.1546  0.6125
 6617TIP3    H241343   0.492   1.731  12.786 -0.3217  0.3573  0.2356
 6618TIP3   OH241344   1.014   1.416   1.169  0.0800 -0.1174 -0.6037
 6618TIP3    H141345   1.096   1.453   1.202 -0.3384  1.7141 -1.5048
 6618TIP3    H241346   1.041   1.360   1.096  0.5829 -0.0752 -0.4573
 6619TIP3   OH241347   3.997   1.515   0.990 -0.4788  0.0219 -0.1440
 6619TIP3    H141348   4.004   1.424   1.019 -1.2951 -0.1685 -0.5229
 6619TIP3    H241349   4.084   1.536   0.957 -0.7168 -1.1578 -1.6057
 6620TIP3   OH241350   6.030   3.361  12.678 -0.0834  0.0745  0.3563
 6620TIP3    H141351   6.010   3.373  12.586 -0.3016  2.2439  0.6305
 6620TIP3    H241352   5.998   3.441  12.720  0.8084 -0.4682  2.1798
 6621TIP3   OH241353   0.663   5.220  14.670 -0.3497  0.3912 -0.1487
 6621TIP3    H141354   0.711   5.295  14.636 -2.1772  0.7374 -2.1724
 6621TIP3    H241355   0.571   5.245  14.661 -0.9758 -0.8450  2.1415
 6622TIP3   OH241356   6.741   5.139  11.785  0.1932  0.9280  0.5965
 6622TIP3    H141357   6.743   5.214  11.725 -0.9089 -0.0594 -0.7398
 6622TIP3    H241358   6.676   5.162  11.850 -0.1954  1.1231  0.1463
 6623TIP3   OH241359   5.704   5.880   0.853 -0.4103  0.2740  0.3091
 6623TIP3    H141360   5.636   5.813   0.846 -0.8879  0.6438  1.2347
 6623TIP3    H241361   5.780   5.834   0.891 -1.5923  0.7535  3.5775
 6624TIP3   OH241362   5.708   3.067  12.195  0.2564  0.0429 -0.1994
 6624TIP3    H141363   5.791   3.115  12.197 -0.2148  0.8978 -0.3686
 6624TIP3    H241364   5.709   3.012  12.273  1.0769 -0.1242 -0.3235
 6625TIP3   OH241365   3.542   3.884  14.065  0.0695  0.0945 -0.4700
 6625TIP3    H141366   3.578   3.882  14.154  0.8833  1.4261 -0.7537
 6625TIP3    H241367   3.532   3.792  14.042  0.5966 -0.2789  0.7046
 6626TIP3   OH241368   0.429   5.093   1.574  0.0333 -0.5136  0.2193
 6626TIP3    H141369   0.421   5.112   1.667  2.3518  0.5551  0.2448
 6626TIP3    H241370   0.371   5.157   1.531  0.6326  0.4439  0.8178
 6627TIP3   OH241371   0.868   4.978  15.873  0.1000 -0.6017 -0.1409
 6627TIP3    H141372   0.795   4.998  15.930  0.4092 -0.0985  0.0814
 6627TIP3    H241373   0.942   4.963  15.932  1.0139  2.2297 -0.4143
 6628TIP3   OH241374   4.954   4.480  13.714  0.0066  0.5268 -0.1815
 6628TIP3    H141375   4.941   4.437  13.630  1.0504 -0.3288  0.0858
 6628TIP3    H241376   5.045   4.463  13.737 -0.9182 -1.6223  2.3898
 6629TIP3   OH241377   3.181   3.717   6.979  0.3103  0.5890 -0.2915
 6629TIP3    H141378   3.188   3.625   7.005 -0.4817  0.6352  0.1175
 6629TIP3    H241379   3.244   3.726   6.908  0.2964 -0.3120 -0.4366
 6630TIP3   OH241380   2.926   2.075   0.211  0.0685  0.0249  0.2816
 6630TIP3    H141381   2.961   2.108   0.294 -0.8702 -0.0943  0.7419
 6630TIP3    H241382   2.965   2.132   0.145 -0.5692  1.3066  0.9616
 6631TIP3   OH241383   1.895   3.478  16.714  0.1266  0.2473  0.0081
 6631TIP3    H141384   1.908   3.573  16.710 -0.5266  0.3703  0.5584
 6631TIP3    H241385   1.982   3.442  16.727  0.4506  0.7317 -0.7694
 6632TIP3   OH241386   2.964   3.130  14.518 -0.4564  0.8054  0.0906
 6632TIP3    H141387   2.874   3.096  14.512 -0.2547  0.4741 -1.2122
 6632TIP3    H241388   2.962   3.187  14.595 -1.2284 -0.8388  1.3493
 6633TIP3   OH241389   5.131   5.237  10.426  0.2646  0.2087  0.0691
 6633TIP3    H141390   5.207   5.188  10.456  0.2838  0.3776  0.3036
 6633TIP3    H241391   5.061   5.172  10.419 -0.5240  0.5437  3.1896
 6634TIP3   OH241392   2.657   6.757  11.509  0.1233  0.1156 -0.1130
 6634TIP3    H141393   2.597   6.696  11.552  0.0592  0.5381  0.4034
 6634TIP3    H241394   2.617   6.843  11.521 -0.0033  0.2288 -1.2068
 6635TIP3   OH241395   3.821   0.190   1.621 -0.2539  0.3484  0.1456
 6635TIP3    H141396   3.874   0.119   1.585 -0.5064 -0.0102  0.4707
 6635TIP3    H241397   3.742   0.191   1.567 -1.1412 -0.9293  1.3499
 6636TIP3   OH241398   2.730   2.013  11.166 -0.4247 -0.0840  0.3207
 6636TIP3    H141399   2.728   2.014  11.262 -0.4886 -1.2529  0.3403
 6636TIP3    H241400   2.658   1.957  11.140 -0.8476  0.7844 -0.4504
 6637TIP3   OH241401   4.980   4.521  14.916  0.1865  0.1720 -0.1968
 6637TIP3    H141402   5.019   4.568  14.990  0.2062  0.2962 -0.2856
 6637TIP3    H241403   5.054   4.498  14.861  0.3616 -1.3628  0.6303
 6638TIP3   OH241404   5.679   0.383  14.592  0.0037  0.6623 -0.5936
 6638TIP3    H141405   5.750   0.420  14.540 -0.4229  0.2356 -1.5047
 6638TIP3    H241406   5.616   0.351  14.527 -0.0700 -0.8034  0.1569
 6639TIP3   OH241407   0.637   3.460  10.662  0.2897 -0.2687  0.1278
 6639TIP3    H141408   0.562   3.415  10.702  0.6396 -1.4129 -0.4490
 6639TIP3    H241409   0.712   3.430  10.712  0.3494  1.1453  0.9257
 6640TIP3   OH241410   2.853   0.210  11.607  0.1929 -0.1898 -0.2895
 6640TIP3    H141411   2.891   0.123  11.617  0.1080 -0.3785 -1.4648
 6640TIP3    H241412   2.762   0.194  11.581  0.4954  0.2185 -1.6804
 6641TIP3   OH241413   0.268   3.261  16.359 -0.2778 -0.3547 -0.1806
 6641TIP3    H141414   0.229   3.346  16.381 -1.2283 -0.7708 -0.2049
 6641TIP3    H241415   0.351   3.259  16.407 -0.3273  0.5137 -0.0478
 6642TIP3   OH241416   3.988   0.474   0.481 -0.1116 -0.1262  0.6169
 6642TIP3    H141417   4.044   0.540   0.440 -1.1837  1.3089  1.3882
 6642TIP3    H241418   3.968   0.412   0.411  0.8808  0.3845 -0.1365
 6643TIP3   OH241419   4.221   4.826  14.041 -0.9981  0.1988  0.1743
 6643TIP3    H141420   4.305   4.860  14.008 -0.1861 -1.4119  0.5128
 6643TIP3    H241421   4.179   4.789  13.964 -0.7981 -0.1821  0.2473
 6644TIP3   OH241422   1.865   2.688   5.960 -0.0149  0.3793 -0.3879
 6644TIP3    H141423   1.869   2.628   6.034  1.2314  0.9212  0.0124
 6644TIP3    H241424   1.785   2.740   5.975  0.8897  1.3712  1.3035
 6645TIP3   OH241425   4.336   5.287   3.885  0.5507  0.2152  0.5812
 6645TIP3    H141426   4.329   5.234   3.806  2.5701  0.6393  0.0622
 6645TIP3    H241427   4.430   5.288   3.906  0.3453  1.9820  1.6718
 6646TIP3   OH241428   4.485   3.755  12.236 -0.0223 -0.0355 -0.3130
 6646TIP3    H141429   4.525   3.742  12.322 -0.4626 -1.7802 -0.3411
 6646TIP3    H241430   4.553   3.729  12.174  0.1080  0.7203 -0.5043
 6647TIP3   OH241431   1.383   0.983   6.584 -0.1438 -0.0380  0.0725
 6647TIP3    H141432   1.301   1.029   6.602  0.1395  0.2585  0.6362
 6647TIP3    H241433   1.450   1.051   6.590  0.2865 -0.5323  0.9925
 6648TIP3   OH241434   3.030   6.051  13.836 -0.0508  0.6956  0.3533
 6648TIP3    H141435   2.992   6.062  13.923 -1.8985 -1.2387 -0.1288
 6648TIP3    H241436   3.124   6.041  13.852 -0.3104  0.7188  2.0672
 6649TIP3   OH241437   5.271   5.029  14.485  0.5702  0.4075 -0.2364
 6649TIP3    H141438   5.192   4.990  14.520 -1.0429  0.7913 -3.1291
 6649TIP3    H241439   5.310   4.960  14.431  0.6333  1.0931 -1.0927
 6650TIP3   OH241440   4.743   4.755  16.918  0.0555 -0.5160 -0.0992
 6650TIP3    H141441   4.730   4.850  16.923  0.0058 -0.4964 -0.5601
 6650TIP3    H241442   4.837   4.744  16.900  0.3653 -0.6045  1.4235
 6651TIP3   OH241443   2.980   5.780   2.630 -0.1083 -0.4598  0.4320
 6651TIP3    H141444   3.042   5.852   2.617  1.0143 -1.8007 -2.3030
 6651TIP3    H241445   2.894   5.820   2.616  0.1358  1.0795  2.7275
 6652TIP3   OH241446   5.970   3.527  11.855 -0.1987 -0.0690  0.1161
 6652TIP3    H141447   6.039   3.545  11.792 -0.9545  1.4553 -0.3123
 6652TIP3    H241448   5.890   3.523  11.803 -0.7314  0.3861  0.8759
 6653TIP3   OH241449   0.092   5.080  15.493  0.2809 -0.2948  0.1391
 6653TIP3    H141450   0.037   5.157  15.478 -2.1415 -1.8082  0.5597
 6653TIP3    H241451   0.067   5.019  15.423  1.4559 -1.0632  0.3556
 6654TIP3   OH241452   5.110   4.676   2.721 -0.4076  0.0431  0.7777
 6654TIP3    H141453   5.038   4.618   2.694 -0.9654  1.3295 -0.6240
 6654TIP3    H241454   5.071   4.763   2.724  0.5360  0.4500  2.3900
 6655TIP3   OH241455   3.295   2.662  13.750 -0.4816  0.3790 -0.0670
 6655TIP3    H141456   3.330   2.741  13.708 -1.2445 -0.7355 -2.9935
 6655TIP3    H241457   3.344   2.590  13.711  1.2221 -0.6753  3.6084
 6656TIP3   OH241458   6.175   5.983  15.194  0.3085  0.1118  0.2993
 6656TIP3    H141459   6.124   6.042  15.249  0.9623 -0.8978  2.0911
 6656TIP3    H241460   6.110   5.935  15.143 -0.4828 -0.3593  1.7008
 6657TIP3   OH241461   0.050   0.287   1.280 -0.2674  0.6506  0.4169
 6657TIP3    H141462  -0.002   0.245   1.211  1.4851  1.6097 -1.5956
 6657TIP3    H241463   0.140   0.266   1.259  0.3974  1.9353  1.7744
 6658TIP3   OH241464   0.443   4.856  14.194 -0.1104 -0.3728 -0.7741
 6658TIP3    H141465   0.432   4.845  14.288 -0.8164  0.9267 -0.6880
 6658TIP3    H241466   0.423   4.770  14.157  1.3754 -1.2389  0.3198
 6659TIP3   OH241467   4.088   0.831  13.260  0.7283 -0.3186  0.7126
 6659TIP3    H141468   4.161   0.791  13.214  0.1739  1.4149 -1.9391
 6659TIP3    H241469   4.013   0.775  13.241  0.4276  0.5857 -0.9454
 6660TIP3   OH241470   4.378   4.597  11.627 -0.5512 -0.3001 -0.0136
 6660TIP3    H141471   4.328   4.607  11.546 -1.6694 -2.3641  0.3644
 6660TIP3    H241472   4.440   4.671  11.626 -2.8915  1.7869 -0.9892
 6661TIP3   OH241473   3.305   4.559  16.707  0.4867  0.0955 -0.0325
 6661TIP3    H141474   3.258   4.642  16.717 -0.7778 -0.6532  0.4387
 6661TIP3    H241475   3.374   4.579  16.644 -0.6948  1.1488 -1.0679
 6662TIP3   OH241476   2.919   2.560   3.621  0.5062 -0.1958 -0.4730
 6662TIP3    H141477   2.879   2.645   3.602 -0.7030 -0.6412 -0.0429
 6662TIP3    H241478   3.010   2.580   3.642  0.0496  1.0825  0.3709
 6663TIP3   OH241479   3.245   3.074   1.333  0.5444  0.2126 -0.3010
 6663TIP3    H141480   3.325   3.096   1.380 -0.4476  0.6973  1.2663
 6663TIP3    H241481   3.185   3.146   1.354  0.1656  0.7113 -2.7333
 6664TIP3   OH241482   4.050   2.681   6.102  0.0063  0.5353 -0.0177
 6664TIP3    H141483   4.079   2.696   6.192 -1.3114  0.2400  0.4873
 6664TIP3    H241484   4.027   2.767   6.069 -1.9551  0.4075  0.8531
 6665TIP3   OH241485   1.672   3.159  15.730  0.2224  0.0923  0.3915
 6665TIP3    H141486   1.718   3.205  15.800  1.3156 -1.1493  0.5174
 6665TIP3    H241487   1.588   3.205  15.723  0.6690  1.1468  1.5168
 6666TIP3   OH241488   2.190   2.617   5.848 -0.4029 -0.0521 -0.1510
 6666TIP3    H141489   2.191   2.700   5.897 -0.4696 -0.1246 -0.0282
 6666TIP3    H241490   2.264   2.625   5.788  1.3251 -1.0184  1.7098
 6667TIP3   OH241491   1.082   3.568   5.616 -0.0898  0.1320 -0.4129
 6667TIP3    H141492   1.140   3.619   5.672 -0.9242  2.3222 -1.4141
 6667TIP3    H241493   1.083   3.479   5.653  0.7393  1.0642  1.9557
 6668TIP3   OH241494   1.172   1.153   1.955 -0.0378  0.1953 -0.2093
 6668TIP3    H141495   1.194   1.096   1.882 -0.1516  0.8401 -0.7570
 6668TIP3    H241496   1.089   1.193   1.930 -0.3921 -0.0541  0.5584
 6669TIP3   OH241497   5.340   1.989  13.815 -0.2561 -0.5576 -0.2443
 6669TIP3    H141498   5.332   2.054  13.885  0.0450 -1.7686  0.9326
 6669TIP3    H241499   5.433   1.991  13.791 -0.4694  0.2918 -1.0633
 6670TIP3   OH241500   1.960   5.198  13.264 -0.1136 -0.2852 -0.3006
 6670TIP3    H141501   2.043   5.240  13.287  0.0538 -0.1976 -1.0589
 6670TIP3    H241502   1.969   5.174  13.172 -0.7671 -0.6683 -0.2744
 6671TIP3   OH241503   3.441   6.265  15.207 -0.2723  0.2772  0.2112
 6671TIP3    H141504   3.485   6.347  15.230  0.7346  0.3602 -1.7768
 6671TIP3    H241505   3.430   6.270  15.112 -1.9355 -1.0775  0.2832
 6672TIP3   OH241506   5.436   3.264  14.846 -0.2569 -0.2572  0.3709
 6672TIP3    H141507   5.519   3.287  14.887 -0.1827 -0.5250  0.3759
 6672TIP3    H241508   5.460   3.204  14.775 -0.2143  1.5500 -1.2074
 6673TIP3   OH241509   0.536   2.105  11.396 -0.2475  0.3651  0.3140
 6673TIP3    H141510   0.564   2.024  11.438 -1.2634  0.5572  1.4245
 6673TIP3    H241511   0.518   2.081  11.305 -0.5658 -0.6715  0.6386
 6674TIP3   OH241512   2.661   1.377   3.430  0.0411 -0.3160  0.1010
 6674TIP3    H141513   2.677   1.361   3.523  2.9358 -0.0545 -0.2617
 6674TIP3    H241514   2.654   1.290   3.391  0.8167 -0.4665  0.2918
 6675TIP3   OH241515   6.582   5.659  15.880 -0.2670  0.2535  0.5231
 6675TIP3    H141516   6.489   5.639  15.890 -0.0700 -1.1235 -0.0723
 6675TIP3    H241517   6.599   5.645  15.787  0.6332  0.0211  0.7135
 6676TIP3   OH241518   3.304   1.406   2.456 -0.0264  0.4363 -0.2066
 6676TIP3    H141519   3.292   1.433   2.547 -1.3441 -0.3545 -0.1024
 6676TIP3    H241520   3.396   1.384   2.449  0.1710  0.8721  0.8374
 6677TIP3   OH241521   3.540   5.841  13.745 -0.7736 -0.1427 -0.0063
 6677TIP3    H141522   3.539   5.840  13.649 -0.9615 -0.2863 -0.0041
 6677TIP3    H241523   3.600   5.770  13.769 -0.9221 -0.2719 -0.0153
 6678TIP3   OH241524   4.371   3.976  12.924  0.4741 -0.4973 -0.0183
 6678TIP3    H141525   4.280   3.982  12.953  0.9533 -1.7736  1.9398
 6678TIP3    H241526   4.400   3.890  12.953  2.3314 -0.1026 -0.5708
 6679TIP3   OH241527   3.892   4.921  16.788  0.3998 -0.6630 -0.0299
 6679TIP3    H141528   3.814   4.960  16.827  0.9182 -1.5969  2.0376
 6679TIP3    H241529   3.864   4.833  16.763  1.2712 -1.8121  2.7299
 6680TIP3   OH241530   2.441   4.254   3.487 -0.3367  0.0681  0.2183
 6680TIP3    H141531   2.393   4.334   3.508 -0.7180  0.0711 -0.5945
 6680TIP3    H241532   2.505   4.281   3.421  0.4068 -0.0512  0.8774
 6681TIP3   OH241533   2.524   0.794   5.663 -0.2575 -0.0172 -0.7981
 6681TIP3    H141534   2.473   0.870   5.691  0.9857  0.6719 -0.3441
 6681TIP3    H241535   2.464   0.720   5.674 -0.5691  0.5182  1.5999
 6682TIP3   OH241536   3.039   4.968  13.357 -0.0442  0.0048 -0.2121
 6682TIP3    H141537   3.117   4.916  13.336 -0.6059  0.3020 -3.6830
 6682TIP3    H241538   2.978   4.904  13.395  0.6622 -1.0000 -0.7057
 6683TIP3   OH241539   5.377   3.752   3.108  0.3489 -0.1450  0.6445
 6683TIP3    H141540   5.425   3.774   3.029 -0.1300  1.1133  0.6857
 6683TIP3    H241541   5.286   3.771   3.087 -0.0630 -1.7820  0.8199
 6684TIP3   OH241542   3.505   4.453   5.334 -0.1507  0.2139 -0.1452
 6684TIP3    H141543   3.415   4.431   5.308  0.6725 -1.1659 -2.0763
 6684TIP3    H241544   3.509   4.428   5.426 -1.2901 -1.3361 -0.4699
 6685TIP3   OH241545   5.235   0.847  15.636  0.0048  1.0238  0.0710
 6685TIP3    H141546   5.312   0.808  15.675 -0.8656  1.0177  1.8912
 6685TIP3    H241547   5.185   0.882  15.710 -2.0706  0.4317 -0.9565
 6686TIP3   OH241548   6.229   6.002  15.603 -0.1386  0.2218  0.7692
 6686TIP3    H141549   6.312   5.974  15.565  0.6326  2.7525  0.4119
 6686TIP3    H241550   6.245   6.005  15.698  0.2836  0.9394  0.6817
 6687TIP3   OH241551   4.386   5.902  12.945  0.3542  1.0256  0.2127
 6687TIP3    H141552   4.392   5.988  12.987  2.6745  0.4755  1.1614
 6687TIP3    H241553   4.404   5.919  12.853 -0.9152  1.7629  0.0936
 6688TIP3   OH241554   1.873   5.129  15.188 -0.2135 -0.2413  0.0478
 6688TIP3    H141555   1.877   5.111  15.282  2.7189  0.7425  0.2200
 6688TIP3    H241556   1.960   5.105  15.155 -0.8032  0.4560 -2.2005
 6689TIP3   OH241557   6.830   3.076  12.011 -0.1478 -0.1481 -0.2367
 6689TIP3    H141558   6.898   3.011  12.031  0.6883  0.7888  0.0640
 6689TIP3    H241559   6.845   3.147  12.073  0.1893  1.1911 -1.7589
 6690TIP3   OH241560   0.941   4.930   0.244  0.0579 -0.5683 -0.3208
 6690TIP3    H141561   0.977   4.841   0.244  0.3094 -0.4777  0.7544
 6690TIP3    H241562   0.987   4.975   0.315  1.3252  0.9973 -2.0027
 6691TIP3   OH241563   4.864   4.292   1.588  0.3283  0.0231  0.8655
 6691TIP3    H141564   4.843   4.384   1.578 -1.1632 -0.2278  1.4391
 6691TIP3    H241565   4.915   4.270   1.510 -0.3899  1.0218  0.0940
 6692TIP3   OH241566   3.371   5.490   0.709  0.6090 -0.0739 -0.2872
 6692TIP3    H141567   3.344   5.582   0.710 -0.9742 -0.5052  0.3273
 6692TIP3    H241568   3.465   5.492   0.691  0.2041  1.5514 -2.6605
 6693TIP3   OH241569   5.248   3.390   5.643  0.2057 -0.3268  0.2132
 6693TIP3    H141570   5.235   3.339   5.563  1.0327  1.2228 -0.9701
 6693TIP3    H241571   5.338   3.373   5.669  1.3384  2.2552 -1.5856
 6694TIP3   OH241572   1.425   2.053   0.875 -0.1321 -0.1208  0.1614
 6694TIP3    H141573   1.381   1.971   0.854 -1.3819  0.9351 -1.5688
 6694TIP3    H241574   1.357   2.108   0.914  0.5019  0.3802  0.5947
 6695TIP3   OH241575   1.066   5.256  11.239  0.7134 -0.1690 -0.0865
 6695TIP3    H141576   1.009   5.230  11.168  3.1296 -1.7625 -1.5720
 6695TIP3    H241577   1.055   5.188  11.306  1.0551 -0.6334 -0.4965
 6696TIP3   OH241578   4.314   0.984   6.261 -0.0541  0.3316  0.0354
 6696TIP3    H141579   4.329   0.893   6.237 -0.4602  0.1277  0.5401
 6696TIP3    H241580   4.394   1.029   6.234  0.2688 -0.2240  0.0492
 6697TIP3   OH241581   4.587   2.849   4.416 -0.0886 -0.2322 -0.0523
 6697TIP3    H141582   4.513   2.818   4.469 -0.2538  0.1694 -0.0429
 6697TIP3    H241583   4.607   2.936   4.452  1.4311 -0.9699  1.0116
 6698TIP3   OH241584   3.033   5.463  12.449 -0.3214 -0.2935  0.4895
 6698TIP3    H141585   3.117   5.420  12.437 -0.7840 -1.4233  1.1772
 6698TIP3    H241586   3.001   5.431  12.533 -0.8107  1.2178  0.9164
 6699TIP3   OH241587   6.168   4.068   4.980 -0.5553 -0.2445  0.1286
 6699TIP3    H141588   6.195   4.099   4.893 -1.0843  0.4429  0.2055
 6699TIP3    H241589   6.144   3.976   4.966 -0.0690 -0.3070 -0.3298
 6700TIP3   OH241590   1.900   6.212  12.954  0.7234  0.0874 -0.0088
 6700TIP3    H141591   1.899   6.286  12.895 -0.0744 -0.8302 -1.1887
 6700TIP3    H241592   1.991   6.206  12.984  1.1173  0.6381 -1.0575
 6701TIP3   OH241593   4.384   0.335   0.972 -0.1601  0.2625  0.3384
 6701TIP3    H141594   4.320   0.397   1.008  1.6817  2.4487  0.0922
 6701TIP3    H241595   4.402   0.367   0.883  0.2839 -1.0964 -0.0887
 6702TIP3   OH241596   2.057   0.500   6.022 -0.2517  0.3253  0.6629
 6702TIP3    H141597   2.072   0.545   6.105  1.8885  0.3132  0.3326
 6702TIP3    H241598   2.122   0.430   6.021 -1.3596 -0.7356 -0.3025
 6703TIP3   OH241599   0.095   5.643   2.122 -0.1556 -0.2390 -0.2072
 6703TIP3    H141600   0.040   5.639   2.044  0.7369 -1.4291 -0.8075
 6703TIP3    H241601   0.184   5.649   2.089  0.1815  0.2921  0.7400
 6704TIP3   OH241602   0.245   1.498   0.291 -0.2826  0.0392  0.5638
 6704TIP3    H141603   0.153   1.482   0.313 -0.4143  1.0543  0.8055
 6704TIP3    H241604   0.254   1.594   0.295  0.3985  0.0643 -0.9773
 6705TIP3   OH241605   2.346   1.512  11.814  0.3461 -0.3811  0.0844
 6705TIP3    H141606   2.358   1.494  11.907  2.6813  0.4511  0.0164
 6705TIP3    H241607   2.427   1.481  11.773  1.2576  3.0282 -1.0367
 6706TIP3   OH241608   3.625   5.893   3.972 -0.2363 -0.0051  0.0942
 6706TIP3    H141609   3.617   5.804   3.938  3.1054  0.4905 -2.5948
 6706TIP3    H241610   3.665   5.883   4.058  0.8467 -1.1611 -0.5045
 6707TIP3   OH241611   0.757   2.056  14.271 -0.1841 -0.6261  0.1716
 6707TIP3    H141612   0.764   2.130  14.331  1.6804 -1.1765  0.6897
 6707TIP3    H241613   0.845   2.045  14.236 -1.2693  0.0522 -3.1797
 6708TIP3   OH241614   4.241   5.673  12.634 -0.0967 -0.3574  0.0655
 6708TIP3    H141615   4.175   5.660  12.566 -0.8832  1.3623  0.4536
 6708TIP3    H241616   4.280   5.758  12.613  1.7616 -1.1655  0.0652
 6709TIP3   OH241617   0.765   0.903  14.769 -0.7380 -0.3499  0.2579
 6709TIP3    H141618   0.847   0.931  14.728 -0.8628 -0.8426 -0.3390
 6709TIP3    H241619   0.790   0.831  14.827 -0.7985 -0.8010 -0.2608
 6710TIP3   OH241620   5.757   6.085   1.075 -0.3521 -0.0504 -0.0416
 6710TIP3    H141621   5.751   6.055   1.165 -0.7923 -1.5089 -0.5393
 6710TIP3    H241622   5.743   6.007   1.022  1.6372  0.4262 -1.3911
 6711TIP3   OH241623   4.024   6.134  12.766 -0.2084 -0.5698 -0.5798
 6711TIP3    H141624   4.065   6.141  12.680 -0.7130 -0.4321 -0.8124
 6711TIP3    H241625   3.986   6.221  12.781  0.7778 -0.2538  0.2536
 6712TIP3   OH241626   0.668   0.992   1.487  0.8548  0.0597  0.0853
 6712TIP3    H141627   0.636   1.069   1.441  1.4442  1.0555  1.2714
 6712TIP3    H241628   0.665   1.017   1.580  0.1251 -1.6982  0.5810
 6713TIP3   OH241629   4.453   6.552   1.918 -0.0761 -0.1182 -0.6894
 6713TIP3    H141630   4.438   6.646   1.908  0.1318  0.0520  0.4324
 6713TIP3    H241631   4.499   6.544   2.002  1.8577 -1.0322 -1.7816
 6714TIP3   OH241632   3.728   2.678   1.015  0.7119  0.0052  0.4669
 6714TIP3    H141633   3.668   2.711   1.082  0.1230 -0.3919  0.1511
 6714TIP3    H241634   3.751   2.755   0.963 -0.5836 -0.0296 -0.2110
 6715TIP3   OH241635   0.709   3.781  15.544 -0.0206 -0.1923 -0.5121
 6715TIP3    H141636   0.649   3.844  15.505  0.1862 -0.5567 -1.4468
 6715TIP3    H241637   0.781   3.833  15.579  0.3581  0.0687 -1.6527
 6716TIP3   OH241638   0.903   1.827   0.187 -0.5548 -0.1469 -0.0104
 6716TIP3    H141639   0.928   1.849   0.276 -2.1974  0.5423  0.3226
 6716TIP3    H241640   0.845   1.752   0.196  0.3044 -0.9104 -0.6350
 6717TIP3   OH241641   6.280   3.695  14.795 -0.0754  0.2236  0.2855
 6717TIP3    H141642   6.375   3.707  14.791 -0.3215  3.2406  0.8409
 6717TIP3    H241643   6.260   3.692  14.889 -0.5615 -0.1526  0.1753
 6718TIP3   OH241644   2.169   4.800  16.219  0.6280  0.3659  0.0447
 6718TIP3    H141645   2.124   4.826  16.139 -0.5669  1.2821  0.9681
 6718TIP3    H241646   2.219   4.877  16.245  0.0584  0.4858  0.8050
 6719TIP3   OH241647   5.230   3.543  16.439  0.2935  0.1847  0.2140
 6719TIP3    H141648   5.236   3.478  16.369 -1.0165  0.6644 -0.3772
 6719TIP3    H241649   5.280   3.505  16.511 -2.0949 -2.4945  0.6406
 6720TIP3   OH241650   4.099   3.557  16.732  0.0022 -0.1001  0.1121
 6720TIP3    H141651   4.022   3.501  16.741  0.3690 -0.4897  0.9673
 6720TIP3    H241652   4.069   3.644  16.761 -0.0464 -0.3154  0.7233
 6721TIP3   OH241653   4.379   3.239   4.960 -0.1341  0.1929  0.3496
 6721TIP3    H141654   4.398   3.322   4.916  0.5946 -0.8220 -1.3601
 6721TIP3    H241655   4.365   3.177   4.888 -1.3269 -1.0348  1.5837
 6722TIP3   OH241656   6.678   4.539   5.515  0.0352 -0.1490  0.0505
 6722TIP3    H141657   6.771   4.544   5.492 -0.7030  0.3113 -3.2253
 6722TIP3    H241658   6.678   4.523   5.610  3.4972 -3.1973 -0.2199
 6723TIP3   OH241659   5.486   6.832   4.445 -0.8945  0.8564 -0.4475
 6723TIP3    H141660   5.432   6.839   4.523 -0.0739  2.4352  0.0268
 6723TIP3    H241661   5.526   6.746   4.450 -1.7003  0.5123  0.2871
 6724TIP3   OH241662   5.741   0.012  15.903 -0.8878 -0.3870  0.5832
 6724TIP3    H141663   5.747   0.021  15.808 -1.7577 -3.5048  0.1340
 6724TIP3    H241664   5.650  -0.010  15.920 -1.1775  1.8299  2.4088
 6725TIP3   OH241665   2.275   4.539  16.782 -0.3890 -0.0380  0.0515
 6725TIP3    H141666   2.186   4.503  16.780 -0.2653 -0.5657  2.1253
 6725TIP3    H241667   2.276   4.604  16.712 -1.7513 -1.4599 -1.3747
 6726TIP3   OH241668   6.369   0.199   3.573 -0.4388 -0.2375  0.0966
 6726TIP3    H141669   6.364   0.279   3.626 -3.4837 -0.6128  0.5652
 6726TIP3    H241670   6.381   0.231   3.484 -2.4222  0.8672  0.1640
 6727TIP3   OH241671   3.966   1.291  12.458  0.2954  0.0858 -0.2303
 6727TIP3    H141672   4.044   1.269  12.407  0.1590  2.0205 -1.3716
 6727TIP3    H241673   3.998   1.348  12.528  0.1189 -0.4204  0.2670
 6728TIP3   OH241674   0.184   5.129  15.184  0.0523  0.5021 -1.1210
 6728TIP3    H141675   0.123   5.150  15.112  0.7783  1.5972 -1.4398
 6728TIP3    H241676   0.226   5.212  15.204 -0.0976  0.1970  0.5631
 6729TIP3   OH241677   3.562   3.336  15.229  0.1686  0.2696 -0.3425
 6729TIP3    H141678   3.612   3.255  15.222 -1.7190 -1.0472  0.4594
 6729TIP3    H241679   3.580   3.383  15.147  2.9776  0.1168  0.0911
 6730TIP3   OH241680   3.428   1.854  15.541 -0.0840  0.0589  0.0768
 6730TIP3    H141681   3.396   1.917  15.477 -1.2670 -1.3332 -0.7644
 6730TIP3    H241682   3.511   1.891  15.572  0.5357  0.7901 -2.2482
 6731TIP3   OH241683   0.772   0.897  10.994 -0.6323  0.1316  0.4544
 6731TIP3    H141684   0.830   0.849  10.935 -0.0524  0.9845  0.3147
 6731TIP3    H241685   0.684   0.877  10.962 -0.3234  2.8324 -2.6423
 6732TIP3   OH241686   1.853   5.499  15.188 -0.0962 -0.6171 -0.3993
 6732TIP3    H141687   1.793   5.436  15.147  0.3209 -1.0887 -0.2907
 6732TIP3    H241688   1.865   5.465  15.277  2.3730 -1.9859 -1.1859
 6733TIP3   OH241689   5.916   0.286  16.865 -0.4969 -0.0501  0.5645
 6733TIP3    H141690   5.980   0.262  16.798  0.3021  1.6818  0.6568
 6733TIP3    H241691   5.927   0.222  16.934  1.6677  0.6049  0.8940
 6734TIP3   OH241692   0.270   6.695   4.146  0.0932 -0.6084  0.4343
 6734TIP3    H141693   0.320   6.671   4.224 -0.0893 -0.4259  0.6089
 6734TIP3    H241694   0.284   6.790   4.137  3.8636 -1.1985 -2.3614
 6735TIP3   OH241695   1.698   4.395   4.977  0.1022  0.1496 -0.7570
 6735TIP3    H141696   1.741   4.479   4.959 -1.4233  1.1946  0.2745
 6735TIP3    H241697   1.609   4.406   4.945 -0.2703 -0.9095 -0.1248
 6736TIP3   OH241698   5.067   1.908   4.692 -0.0610  0.1412 -0.1267
 6736TIP3    H141699   5.124   1.882   4.620  0.3639  0.2577  0.1647
 6736TIP3    H241700   5.109   1.872   4.770  0.4155  1.4987  0.2623
 6737TIP3   OH241701   0.800   6.430   3.465  0.1534 -0.0206 -0.0163
 6737TIP3    H141702   0.744   6.498   3.502  0.2830  0.1995 -0.2260
 6737TIP3    H241703   0.780   6.430   3.371  2.1937  1.6881 -0.5076
 6738TIP3   OH241704   5.341   1.212  16.385  0.2804  0.1113 -0.8742
 6738TIP3    H141705   5.427   1.226  16.346  0.3079 -2.2327 -1.8001
 6738TIP3    H241706   5.342   1.121  16.414 -1.9091 -0.0025 -0.9933
 6739TIP3   OH241707   6.560   0.021   4.441  0.7999  0.0288  0.4237
 6739TIP3    H141708   6.600   0.031   4.528  0.7749  0.5639  0.3794
 6739TIP3    H241709   6.622   0.063   4.381  0.3800  0.4939  0.3035
 6740TIP3   OH241710   2.202   3.732  14.357 -0.1804 -0.4530 -0.0492
 6740TIP3    H141711   2.133   3.709  14.295 -1.4388  2.0062  0.3346
 6740TIP3    H241712   2.223   3.649  14.401 -0.7632 -1.8265 -2.1997
 6741TIP3   OH241713   2.443   6.313  10.919  0.6404  0.3100  0.2047
 6741TIP3    H141714   2.476   6.378  10.981  0.4888 -0.2335  0.8656
 6741TIP3    H241715   2.385   6.362  10.861 -0.6837  0.5128  1.6257
 6742TIP3   OH241716   0.966   2.660   6.220  0.1602 -0.1380 -0.0938
 6742TIP3    H141717   0.929   2.573   6.234  1.6862 -0.8965 -0.5699
 6742TIP3    H241718   0.987   2.663   6.127 -1.2466  1.3321 -0.4135
 6743TIP3   OH241719   1.202   1.387  15.482 -0.5955 -0.0423  0.0807
 6743TIP3    H141720   1.186   1.306  15.434 -2.9509 -0.3234  1.1942
 6743TIP3    H241721   1.278   1.368  15.537  3.6050  0.9117 -4.5810
 6744TIP3   OH241722   3.569   4.558  15.242  0.1169  0.1199 -0.4601
 6744TIP3    H141723   3.574   4.465  15.218 -0.4245  0.7084 -3.1433
 6744TIP3    H241724   3.475   4.572  15.258 -0.1404  0.6326 -2.2229
 6745TIP3   OH241725   2.866   5.236   5.997 -0.8271  0.1766 -0.4383
 6745TIP3    H141726   2.794   5.198   6.047 -0.6667  0.1548 -0.2226
 6745TIP3    H241727   2.936   5.170   6.002 -0.6413  0.3845 -0.2830
 6746TIP3   OH241728   1.357   5.632  12.377  0.1429 -0.4221 -0.0580
 6746TIP3    H141729   1.312   5.560  12.333 -0.2540 -0.4186  0.3249
 6746TIP3    H241730   1.442   5.596  12.403  0.3442 -0.4485 -0.7354
 6747TIP3   OH241731   5.086   1.822  12.302 -0.0458 -0.4511  0.3565
 6747TIP3    H141732   5.042   1.907  12.300  0.9564  0.0595 -1.0245
 6747TIP3    H241733   5.100   1.799  12.210  0.1306 -1.8904  0.7135
 6748TIP3   OH241734   5.711   3.597  13.299  0.2531  0.2539  0.2530
 6748TIP3    H141735   5.747   3.596  13.210 -0.0451  2.4038  0.0527
 6748TIP3    H241736   5.632   3.545  13.293  0.3127  0.2483 -0.7241
 6749TIP3   OH241737   2.872   0.823   3.169  0.2969 -0.3151  0.5303
 6749TIP3    H141738   2.777   0.812   3.181  0.1877  0.6079  0.5317
 6749TIP3    H241739   2.881   0.876   3.090  0.8100 -0.2675  0.6162
 6750TIP3   OH241740   2.880   6.226   2.479 -0.2712  0.3379  0.2034
 6750TIP3    H141741   2.918   6.184   2.556 -0.9787 -0.5330  0.0870
 6750TIP3    H241742   2.868   6.318   2.505  0.3945  0.2678  0.7842
 6751TIP3   OH241743   0.242   4.326   3.413 -0.2577 -0.5008 -0.1369
 6751TIP3    H141744   0.217   4.328   3.321  0.4359  0.5925 -0.3157
 6751TIP3    H241745   0.338   4.323   3.412 -0.0708  2.5794  0.5259
 6752TIP3   OH241746   4.379   2.581   5.021  0.8495 -0.0379 -0.4575
 6752TIP3    H141747   4.408   2.491   5.035 -0.0244 -0.2609  0.0294
 6752TIP3    H241748   4.448   2.635   5.061  0.3938 -0.5640  1.1125
 6753TIP3   OH241749   4.882   5.680   5.593  0.0101 -0.1433 -0.0883
 6753TIP3    H141750   4.803   5.627   5.592 -0.2592  0.2547 -0.6301
 6753TIP3    H241751   4.889   5.714   5.504 -0.4627  1.6809  0.5331
 6754TIP3   OH241752   6.544   0.844  15.354 -0.0514  0.3780  0.8033
 6754TIP3    H141753   6.491   0.766  15.341  2.8365 -1.6270  0.0780
 6754TIP3    H241754   6.538   0.891  15.271 -1.9138  1.0661  1.2882
 6755TIP3   OH241755   5.827   2.008   3.289 -0.0143 -0.6448 -0.2251
 6755TIP3    H141756   5.838   1.971   3.201  0.4010 -0.8808 -0.0796
 6755TIP3    H241757   5.889   2.081   3.293 -0.6537 -0.0849 -0.4234
 6756TIP3   OH241758   5.086   4.481   4.520  0.4005  0.0900  0.2334
 6756TIP3    H141759   5.079   4.528   4.604  2.0023  2.6206 -0.9113
 6756TIP3    H241760   5.171   4.437   4.525  0.6435  0.5086 -0.1650
 6757TIP3   OH241761   6.358   5.526   0.229  0.5046 -0.0374  0.4443
 6757TIP3    H141762   6.375   5.569   0.313 -1.6883  0.8457  0.5102
 6757TIP3    H241763   6.416   5.449   0.229  1.8573  0.9173  1.9401
 6758TIP3   OH241764   4.101   5.042   1.340  0.1650  0.4316 -0.0438
 6758TIP3    H141765   4.100   5.091   1.258 -2.6655 -0.5780 -0.7176
 6758TIP3    H241766   4.105   4.950   1.314 -3.3091 -0.0641  0.6875
 6759TIP3   OH241767   6.670   1.620   0.421  0.2939  0.0647  0.0483
 6759TIP3    H141768   6.690   1.708   0.391  2.8405 -0.3944  0.1972
 6759TIP3    H241769   6.749   1.592   0.468 -0.6300 -2.1146  0.4224
 6760TIP3   OH241770   0.169   6.205  11.475 -0.1245  0.5182  0.6650
 6760TIP3    H141771   0.097   6.245  11.524 -0.9710  1.8848 -1.5474
 6760TIP3    H241772   0.126   6.142  11.416  0.6329  0.3906  0.2350
 6761TIP3   OH241773   6.680   3.512  15.602 -0.5336  0.0970 -0.0652
 6761TIP3    H141774   6.623   3.493  15.677 -0.7162 -1.3673 -0.5443
 6761TIP3    H241775   6.627   3.489  15.525  0.5660 -0.9215 -0.5411
 6762TIP3   OH241776   0.103   4.215  14.411  0.3667  0.1632 -0.4297
 6762TIP3    H141777   0.075   4.306  14.413 -0.4137  0.0213 -2.3447
 6762TIP3    H241778   0.059   4.178  14.334  0.4340 -1.9080  0.4572
 6763TIP3   OH241779   4.323   2.655  10.853 -0.5475 -0.1638  0.2386
 6763TIP3    H141780   4.360   2.679  10.938 -0.5243  0.1787  0.1343
 6763TIP3    H241781   4.369   2.575  10.829  2.7301  1.9952 -1.4865
 6764TIP3   OH241782   4.083   4.398  13.161 -0.5289  0.4732 -0.1894
 6764TIP3    H141783   4.039   4.426  13.081 -1.5247  0.8816  0.4826
 6764TIP3    H241784   4.074   4.473  13.220 -0.8899 -0.2683  0.7217
 6765TIP3   OH241785   3.012   3.016   1.813 -0.7513  0.7130  0.2329
 6765TIP3    H141786   2.985   2.944   1.870 -0.0478  1.2187  1.2353
 6765TIP3    H241787   3.084   2.980   1.761  0.1559  0.9020  1.3146
 6766TIP3   OH241788   5.301   5.524   4.617 -0.3051 -0.5035  0.0603
 6766TIP3    H141789   5.221   5.523   4.669 -0.2210  0.4673  0.2224
 6766TIP3    H241790   5.371   5.527   4.683 -0.0765 -2.1253 -0.0496
 6767TIP3   OH241791   3.667   4.308  10.345  0.0475  0.1172  0.1204
 6767TIP3    H141792   3.670   4.375  10.277 -0.3582 -0.9428 -0.9831
 6767TIP3    H241793   3.728   4.339  10.412  3.1031 -0.3603 -2.2032
 6768TIP3   OH241794   1.387   1.956   4.611 -0.2175  0.3674 -0.4945
 6768TIP3    H141795   1.422   1.968   4.699 -0.8587 -0.6297 -0.0900
 6768TIP3    H241796   1.292   1.964   4.621 -0.2960  0.2679 -1.1014
 6769TIP3   OH241797   6.147   0.394   2.072  0.0935  0.1167  0.0622
 6769TIP3    H141798   6.225   0.438   2.037  0.6978 -0.7482  0.2915
 6769TIP3    H241799   6.128   0.325   2.009  0.9444 -1.1844  1.1941
 6770TIP3   OH241800   2.131   4.197   3.937 -0.1531  0.4866  0.2791
 6770TIP3    H141801   2.043   4.219   3.906 -0.4513 -0.4556  0.4118
 6770TIP3    H241802   2.124   4.106   3.966  1.1554  0.0202 -0.7747
 6771TIP3   OH241803   0.268   1.131  16.663  0.4906 -0.1566 -0.2037
 6771TIP3    H141804   0.194   1.110  16.606  0.8488 -1.8971 -0.0882
 6771TIP3    H241805   0.239   1.106  16.751  1.0743 -0.5245 -0.1052
 6772TIP3   OH241806   3.045   6.362   3.925  0.3204 -0.1033 -0.2486
 6772TIP3    H141807   3.129   6.408   3.925  0.4463 -0.3323 -0.2516
 6772TIP3    H241808   2.998   6.399   3.850  1.8158 -2.4724 -2.5429
 6773TIP3   OH241809   0.979   0.120  12.828 -0.2698  0.0239 -0.2641
 6773TIP3    H141810   0.910   0.097  12.765 -0.9956 -1.4126  0.9608
 6773TIP3    H241811   1.029   0.189  12.786 -1.0428 -0.5200 -2.1855
 6774TIP3   OH241812   3.107   3.851   1.113  0.0786 -0.1036 -0.0305
 6774TIP3    H141813   3.036   3.885   1.058  0.1850  2.6198  1.2996
 6774TIP3    H241814   3.072   3.857   1.203  1.9148  1.3136  0.6521
 6775TIP3   OH241815   0.504   5.099   5.481 -0.2873  0.2044 -0.5754
 6775TIP3    H141816   0.424   5.101   5.428 -0.9071 -0.0931  0.3394
 6775TIP3    H241817   0.483   5.042   5.555  0.1945  1.4637  0.5780
 6776TIP3   OH241818   5.887   2.694   5.580  0.1611 -0.4288 -1.1185
 6776TIP3    H141819   5.928   2.741   5.507 -1.8496  1.4905 -1.1117
 6776TIP3    H241820   5.934   2.725   5.657  0.4503 -0.2930 -1.3467
 6777TIP3   OH241821   3.861   2.280  11.847  0.0660  0.1050  0.1797
 6777TIP3    H141822   3.860   2.341  11.921 -1.4527 -0.7696  0.9069
 6777TIP3    H241823   3.773   2.243  11.844  0.5377 -1.0116 -1.1379
 6778TIP3   OH241824   1.279   5.873  10.899 -0.0935 -0.3799  0.3044
 6778TIP3    H141825   1.270   5.967  10.914 -1.4592 -0.0764 -1.9015
 6778TIP3    H241826   1.359   5.864  10.848 -1.0976 -0.0798 -1.4139
 6779TIP3   OH241827   2.697   2.464  12.883 -0.3788 -0.3105 -0.5098
 6779TIP3    H141828   2.716   2.392  12.944 -0.5371  0.3916  0.4002
 6779TIP3    H241829   2.744   2.441  12.803  1.8843 -0.1011  0.6647
 6780TIP3   OH241830   4.778   1.755   2.117 -0.6541 -0.4249  0.2249
 6780TIP3    H141831   4.688   1.768   2.148 -0.1751  0.3630  1.3743
 6780TIP3    H241832   4.806   1.841   2.087 -0.1759 -0.5897  0.1918
 6781TIP3   OH241833   5.157   3.569   2.864  0.8315  0.1232  0.0493
 6781TIP3    H141834   5.152   3.664   2.866  0.8849  0.1186  0.4407
 6781TIP3    H241835   5.231   3.549   2.807 -1.2074  0.2630 -2.8754
 6782TIP3   OH241836   6.123   2.039   4.584  0.0822 -0.9120  0.8067
 6782TIP3    H141837   6.120   2.035   4.680 -2.0563 -1.5484  0.7670
 6782TIP3    H241838   6.051   2.098   4.561 -1.7452 -3.4598 -0.4665
 6783TIP3   OH241839   1.582   4.478  15.386  0.0911  0.1865  0.3317
 6783TIP3    H141840   1.626   4.563  15.388 -0.8476  0.6701  1.7661
 6783TIP3    H241841   1.549   4.466  15.475  1.2452 -2.2587  0.5061
 6784TIP3   OH241842   2.874   1.255  13.927  0.0754 -0.2434  0.1273
 6784TIP3    H141843   2.945   1.284  13.983 -0.6550  0.7461  0.5751
 6784TIP3    H241844   2.907   1.176  13.885  1.7039  0.6093 -0.2650
 6785TIP3   OH241845   0.740   4.403   4.177  0.0421 -0.0795  0.8130
 6785TIP3    H141846   0.648   4.430   4.184  0.1006  0.1692  0.6410
 6785TIP3    H241847   0.761   4.414   4.084  0.2391 -0.1612  0.8472
 6786TIP3   OH241848   1.447   6.229   3.888 -0.4075 -0.5579  0.5790
 6786TIP3    H141849   1.364   6.199   3.926 -1.0984  1.7620  1.0751
 6786TIP3    H241850   1.422   6.268   3.804 -0.7375  4.2562  2.5980
 6787TIP3   OH241851   4.923   2.347   3.615  0.0286  0.3545 -0.3527
 6787TIP3    H141852   4.943   2.320   3.525 -0.4728  0.5467 -0.5206
 6787TIP3    H241853   5.009   2.349   3.658  0.0620 -2.1123 -0.1549
 6788TIP3   OH241854   0.457   1.580  16.231 -0.2051  0.3131 -0.6478
 6788TIP3    H141855   0.548   1.602  16.252 -0.5197  0.2909  0.8478
 6788TIP3    H241856   0.409   1.595  16.312 -1.7367  1.3149 -1.6708
 6789TIP3   OH241857   2.072   3.726  12.096 -0.3394  0.1066 -0.2192
 6789TIP3    H141858   2.001   3.725  12.032 -0.7983  2.0063  0.1661
 6789TIP3    H241859   2.037   3.679  12.172 -0.0891 -1.4453 -1.0289
 6790TIP3   OH241860   5.039   5.384   0.796 -0.0428 -0.4290  0.0450
 6790TIP3    H141861   5.037   5.288   0.786  1.9566 -0.7811  2.3136
 6790TIP3    H241862   5.059   5.398   0.888 -0.1769  2.2111 -0.2722
 6791TIP3   OH241863   1.797   3.535  13.327  0.0074  0.2408 -0.1543
 6791TIP3    H141864   1.875   3.589  13.312  0.0429 -0.4541 -2.8644
 6791TIP3    H241865   1.744   3.588  13.386  2.1107  1.1143  1.0934
 6792TIP3   OH241866   0.115   6.233   4.315  0.7060  0.2279 -0.8417
 6792TIP3    H141867   0.090   6.265   4.228  1.2052 -0.4926 -1.2603
 6792TIP3    H241868   0.040   6.253   4.371 -0.1570 -0.4595 -1.7204
 6793TIP3   OH241869   5.298   1.549  16.090  0.3220 -0.1044 -0.0197
 6793TIP3    H141870   5.347   1.586  16.017  0.9661  0.0535  0.4855
 6793TIP3    H241871   5.358   1.553  16.164 -0.2681 -0.4066  0.4866
 6794TIP3   OH241872   2.520   0.998  14.553  0.0489 -0.2153  0.8963
 6794TIP3    H141873   2.548   0.950  14.475  1.4692  1.1649  0.4911
 6794TIP3    H241874   2.464   0.937  14.601 -0.2269 -1.3658 -0.8138
 6795TIP3   OH241875   2.820   0.086  10.759 -0.3047  0.0775 -0.1428
 6795TIP3    H141876   2.899   0.116  10.714  1.0818 -0.9395  1.5066
 6795TIP3    H241877   2.787   0.015  10.705  0.0881  0.3040 -0.6937
 6796TIP3   OH241878   1.963   4.360  11.526 -0.3153  0.2073  0.2978
 6796TIP3    H141879   1.877   4.394  11.551 -0.8972 -0.5084 -0.6438
 6796TIP3    H241880   2.024   4.430  11.547 -1.1808  0.8900  0.5990
 6797TIP3   OH241881   3.015   5.174  15.395 -0.1247 -0.3026  0.0586
 6797TIP3    H141882   2.992   5.173  15.302 -0.9040  1.9607  0.1609
 6797TIP3    H241883   2.932   5.192  15.439  0.0194 -2.4475  1.3321
 6798TIP3   OH241884   2.061   5.132  11.132  0.2063 -0.2960  0.4078
 6798TIP3    H141885   2.124   5.139  11.061 -0.0758  0.0486  0.1892
 6798TIP3    H241886   2.028   5.042  11.126 -0.0783 -0.1572 -0.1162
 6799TIP3   OH241887   3.449   3.737  15.953 -0.2951  0.1888 -0.5768
 6799TIP3    H141888   3.461   3.666  15.891 -1.9663 -0.9495  0.3284
 6799TIP3    H241889   3.457   3.696  16.039  1.2940  1.6032  0.0136
 6800TIP3   OH241890   6.537   3.379  11.930  0.0983 -0.1986  0.5912
 6800TIP3    H141891   6.571   3.303  11.882 -1.8151 -0.6714 -0.1245
 6800TIP3    H241892   6.478   3.341  11.995  0.1466  0.6333  1.1372
 6801TIP3   OH241893   2.921   6.107  12.764  0.2116 -0.1455 -0.3973
 6801TIP3    H141894   2.836   6.107  12.808 -0.4259 -0.0550 -1.5836
 6801TIP3    H241895   2.900   6.127  12.672  1.7544  2.7231 -0.2318
 6802TIP3   OH241896   2.387   0.379  12.154  0.1275  0.5267 -0.3206
 6802TIP3    H141897   2.448   0.358  12.083  0.5002  0.9672 -0.1435
 6802TIP3    H241898   2.344   0.460  12.125  1.4574  1.6368  0.6398
 6803TIP3   OH241899   5.568   3.400  10.321  0.2584  0.4617 -0.0318
 6803TIP3    H141900   5.541   3.488  10.347  0.0989  0.1756  0.8174
 6803TIP3    H241901   5.517   3.342  10.378  0.5605 -0.1724 -0.3988
 6804TIP3   OH241902   2.170   5.647   4.750  0.0023  0.2831  0.5447
 6804TIP3    H141903   2.118   5.622   4.674  2.5375  0.4823 -1.3903
 6804TIP3    H241904   2.213   5.566   4.778  0.2785  0.5014  0.7652
 6805TIP3   OH241905   0.942   4.543   1.027  0.1716 -0.4839  0.0068
 6805TIP3    H141906   0.958   4.482   1.098 -1.7830 -1.8940 -0.6980
 6805TIP3    H241907   1.012   4.525   0.964  1.3238  0.0920  1.0653
 6806TIP3   OH241908   5.975   3.374   4.676  0.4456  0.3887  0.2760
 6806TIP3    H141909   6.067   3.370   4.649  0.1832 -0.9694 -0.5315
 6806TIP3    H241910   5.969   3.454   4.727  2.1127  0.4392  0.4717
 6807TIP3   OH241911   4.039   5.215   1.103 -0.3002  0.4211  0.8672
 6807TIP3    H141912   4.114   5.261   1.065  0.7269 -1.7670  0.0749
 6807TIP3    H241913   3.974   5.212   1.033  1.1689 -2.6446 -0.5680
 6808TIP3   OH241914   6.227   1.196   2.147  0.2952  0.7957  0.0989
 6808TIP3    H141915   6.203   1.271   2.093  0.9038 -2.1307 -4.7608
 6808TIP3    H241916   6.322   1.200   2.152  0.2540  0.9602  0.9792
 6809TIP3   OH241917   3.115   2.896  16.904  0.0426  0.2365  0.0425
 6809TIP3    H141918   3.120   2.925  16.813  0.5448  0.4965  0.1484
 6809TIP3    H241919   3.025   2.915  16.931 -0.1818 -0.0740 -0.4712
 6810TIP3   OH241920   4.944   5.154   6.438 -0.4070  0.2377 -0.4423
 6810TIP3    H141921   4.985   5.206   6.507  1.6648 -0.3506 -1.1539
 6810TIP3    H241922   5.000   5.077   6.429 -1.0675 -0.0942 -2.2085
 6811TIP3   OH241923   0.304   4.765  15.447 -0.7222 -0.3360 -0.8512
 6811TIP3    H141924   0.216   4.760  15.485 -0.9004  1.7595 -0.8661
 6811TIP3    H241925   0.290   4.799  15.359 -0.0673 -2.4380 -1.8251
 6812TIP3   OH241926   6.653   2.969   3.201 -0.3215  0.6370 -0.3586
 6812TIP3    H141927   6.582   3.029   3.177 -0.5976  0.6875  0.5674
 6812TIP3    H241928   6.700   3.015   3.270  0.1930  0.2986 -0.4809
 6813TIP3   OH241929   6.257   4.424  11.369  0.6193  0.3879  0.5209
 6813TIP3    H141930   6.173   4.449  11.407  0.6544  0.6212  0.4486
 6813TIP3    H241931   6.265   4.331  11.388 -1.4889 -0.6500 -2.9264
 6814TIP3   OH241932   1.317   5.302   6.287  1.1134  0.0545 -0.0553
 6814TIP3    H141933   1.302   5.230   6.348  2.1858  0.6203  0.9092
 6814TIP3    H241934   1.373   5.266   6.219  0.8399 -0.2762 -0.1072
 6815TIP3   OH241935   4.721   3.320   4.054  0.2054 -0.1886 -0.4239
 6815TIP3    H141936   4.693   3.288   3.968 -0.0025  0.0716 -0.4559
 6815TIP3    H241937   4.781   3.253   4.086 -0.3005 -0.6642 -0.4467
 6816TIP3   OH241938   0.285   0.575   3.335 -0.2205 -0.1813  0.1567
 6816TIP3    H141939   0.359   0.560   3.277  0.4003 -1.6823  1.2899
 6816TIP3    H241940   0.325   0.603   3.417 -0.9485 -0.3717  0.5786
 6817TIP3   OH241941   5.470   6.390  16.444 -0.5696  0.3509  0.3919
 6817TIP3    H141942   5.463   6.359  16.534 -1.0617 -0.1312  0.1914
 6817TIP3    H241943   5.519   6.322  16.398 -0.3918  0.5557  0.2711
 6818TIP3   OH241944   5.014   3.503   2.588 -0.2607 -0.1302  0.3286
 6818TIP3    H141945   5.093   3.534   2.542  0.1251  0.3794  1.3028
 6818TIP3    H241946   5.047   3.439   2.651 -0.6138  0.1543  0.8025
 6819TIP3   OH241947   4.529   3.904   3.616 -0.0627  0.0687 -0.1406
 6819TIP3    H141948   4.468   3.842   3.655 -0.2756  0.7816  0.6796
 6819TIP3    H241949   4.504   3.989   3.652  1.1643  0.4283 -0.0799
 6820TIP3   OH241950   0.119   6.105   5.400 -0.3375 -0.3654 -0.1885
 6820TIP3    H141951   0.142   6.115   5.308  2.5224 -0.8278  0.4098
 6820TIP3    H241952   0.072   6.186   5.422 -0.1917  0.1878 -1.7942
 6821TIP3   OH241953   6.091   2.997  13.241 -0.0053  0.0499  0.4920
 6821TIP3    H141954   6.147   3.022  13.166 -2.1812  1.0442 -0.9056
 6821TIP3    H241955   6.102   3.068  13.303 -0.0138  0.4460  0.0481
 6822TIP3   OH241956   3.305   0.377   3.300 -0.1335 -1.0772 -0.1039
 6822TIP3    H141957   3.370   0.447   3.302 -1.3026  0.0545 -0.0834
 6822TIP3    H241958   3.317   0.331   3.383  1.9315 -2.1607 -0.9352
 6823TIP3   OH241959   3.669   3.195   6.876 -0.0979 -0.2114  0.5805
 6823TIP3    H141960   3.663   3.245   6.795  0.3561 -0.4966  0.3671
 6823TIP3    H241961   3.580   3.167   6.894 -0.1814 -0.2330  0.1263
 6824TIP3   OH241962   1.349   5.285   5.911  0.4684  0.0978 -0.1876
 6824TIP3    H141963   1.366   5.347   5.982 -1.2255  0.2871  0.0916
 6824TIP3    H241964   1.355   5.199   5.953 -1.9501  0.2283  0.6216
 6825TIP3   OH241965   2.407   4.533  13.323 -0.0235 -0.1743  0.0157
 6825TIP3    H141966   2.459   4.607  13.291  0.5114 -0.9260 -0.8995
 6825TIP3    H241967   2.376   4.489  13.244  0.1932 -1.2889  0.5382
 6826TIP3   OH241968   5.041   4.107  13.045 -0.1865  0.1231  0.2372
 6826TIP3    H141969   5.084   4.193  13.044 -1.2094  0.6671 -1.7903
 6826TIP3    H241970   5.112   4.046  13.023  0.2139  0.6465  0.0256
 6827TIP3   OH241971   4.701   3.724   6.570 -0.3674 -0.0044 -0.5825
 6827TIP3    H141972   4.693   3.644   6.621 -0.0496  0.6900  0.5835
 6827TIP3    H241973   4.754   3.699   6.494 -0.1412 -0.8613 -0.1514
 6828TIP3   OH241974   2.525   6.750   1.162 -0.3694  0.1613  0.3817
 6828TIP3    H141975   2.441   6.792   1.179  1.3486  3.7844  0.8374
 6828TIP3    H241976   2.558   6.794   1.083  1.2084 -1.0292  0.3361
 6829TIP3   OH241977   2.524   1.562  14.047  0.4271 -0.1670 -0.4998
 6829TIP3    H141978   2.531   1.467  14.031 -0.5480 -0.6522  1.6273
 6829TIP3    H241979   2.610   1.587  14.080 -0.1828 -1.0029  1.9030
 6830TIP3   OH241980   1.515   5.558   5.270 -0.1651 -0.0870  0.4867
 6830TIP3    H141981   1.570   5.610   5.212  1.2336 -2.4213 -0.4510
 6830TIP3    H241982   1.563   5.554   5.352  0.2060 -0.6344  0.2511
 6831TIP3   OH241983   1.545   6.763   1.045 -0.0713  0.0846 -0.2677
 6831TIP3    H141984   1.617   6.701   1.030 -1.1521 -1.1397 -0.6372
 6831TIP3    H241985   1.559   6.795   1.134  0.7179 -0.4268 -0.1968
 6832TIP3   OH241986   2.443   1.072   2.381  0.4105  0.0261  0.0459
 6832TIP3    H141987   2.525   1.079   2.430 -0.0634  1.2531  0.6935
 6832TIP3    H241988   2.470   1.069   2.289  1.2195 -0.6189  0.2941
 6833TIP3   OH241989   3.052   1.758  16.467 -0.2326 -0.2366 -0.0135
 6833TIP3    H141990   3.095   1.778  16.550 -1.2983  0.4649  0.3798
 6833TIP3    H241991   2.984   1.825  16.457 -1.1299 -1.2104 -0.6986
 6834TIP3   OH241992   5.741   2.461   4.612  0.0066 -0.1863  0.2129
 6834TIP3    H141993   5.799   2.482   4.539 -0.3328  0.5445  0.1485
 6834TIP3    H241994   5.773   2.376   4.644  1.1346  0.2200  0.2136
 6835TIP3   OH241995   5.465   6.164  11.375 -0.2983 -0.2541  0.1012
 6835TIP3    H141996   5.387   6.204  11.415 -0.2959  0.0332 -0.1848
 6835TIP3    H241997   5.431   6.087  11.329 -0.2801 -0.6949  0.7976
 6836TIP3   OH241998   2.285   5.845  16.386 -0.1115 -0.3945 -0.4751
 6836TIP3    H141999   2.227   5.773  16.411 -2.3331  1.3617 -0.1757
 6836TIP3    H242000   2.225   5.916  16.362  1.8863  1.9592  0.9769
 6837TIP3   OH242001   5.761   3.303   0.266 -0.6815  0.3490  0.0289
 6837TIP3    H142002   5.718   3.221   0.290 -0.3996  0.3517  0.5534
 6837TIP3    H242003   5.805   3.332   0.346  1.4400 -0.3381 -0.8283
 6838TIP3   OH242004   4.662   5.416  15.545 -0.0808 -0.2357 -0.3373
 6838TIP3    H142005   4.609   5.445  15.471  1.0922 -0.9227 -1.4831
 6838TIP3    H242006   4.715   5.493  15.567 -1.5348  0.4807  0.8668
 6839TIP3   OH242007   5.332   3.583  16.975  0.3280  0.8681 -0.4738
 6839TIP3    H142008   5.262   3.518  16.964  0.5775  0.0771  2.0362
 6839TIP3    H242009   5.403   3.549  16.921 -0.3313  0.2746 -0.9941
 6840TIP3   OH242010   1.945   1.572  12.054 -0.3494  0.3459  0.3179
 6840TIP3    H142011   1.955   1.487  12.010 -0.5760  0.7398 -0.5092
 6840TIP3    H242012   2.025   1.581  12.106  0.2405  0.1479 -0.5210
 6841TIP3   OH242013   5.289   4.811  12.039  0.1254  0.2207  0.1278
 6841TIP3    H142014   5.345   4.734  12.029  0.0692  0.1769  0.1510
 6841TIP3    H242015   5.221   4.801  11.971  0.6718  0.7358 -0.5082
 6842TIP3   OH242016   6.240   0.118   3.874  0.1324 -0.0712  0.1264
 6842TIP3    H142017   6.327   0.117   3.914 -0.4913 -2.3358  1.5647
 6842TIP3    H242018   6.248   0.061   3.797  0.4947  1.6893 -1.1977
 6843TIP3   OH242019   4.696   6.754  12.262  0.0071 -0.2277 -0.7946
 6843TIP3    H142020   4.733   6.824  12.206 -0.2614  0.4166 -0.1820
 6843TIP3    H242021   4.607   6.743  12.230 -1.2124  2.2837  1.3770
 6844TIP3   OH242022   1.588   2.011  14.983  0.0903  0.3859  0.1966
 6844TIP3    H142023   1.653   2.068  14.941 -0.4896  0.5510 -0.5005
 6844TIP3    H242024   1.510   2.020  14.929  0.3041 -1.9425 -0.6319
 6845TIP3   OH242025   1.835   1.150   5.251  0.4498 -0.0498  0.2424
 6845TIP3    H142026   1.863   1.199   5.329 -0.1361 -0.1588  0.5275
 6845TIP3    H242027   1.916   1.128   5.206  0.7891  0.0913  0.7787
 6846TIP3   OH242028   1.779   6.338   3.280 -0.0371  0.5659  0.2441
 6846TIP3    H142029   1.793   6.375   3.367  1.8683  2.5388 -0.7932
 6846TIP3    H242030   1.845   6.269   3.273  0.5489  1.1386  0.0057
 6847TIP3   OH242031   1.072   2.501   4.746  0.3041 -0.2791 -0.1467
 6847TIP3    H142032   1.020   2.543   4.815 -0.8522 -0.3080 -0.9750
 6847TIP3    H242033   1.163   2.514   4.773 -0.1138  0.2633  1.0561
 6848TIP3   OH242034   5.763   2.922   3.428 -0.0526 -0.2000  0.4027
 6848TIP3    H142035   5.763   3.002   3.480  1.6801  0.4417 -0.4920
 6848TIP3    H242036   5.791   2.854   3.489  0.6882  0.3067  0.6423
 6849TIP3   OH242037   0.082   4.598  13.408 -0.3469  0.0809  0.2766
 6849TIP3    H142038   0.049   4.600  13.318 -1.0972  0.4964  0.5454
 6849TIP3    H242039   0.163   4.547  13.403 -1.7214 -2.2087 -0.2145
 6850TIP3   OH242040   4.441   6.182  14.938 -0.3414 -0.2068 -0.0083
 6850TIP3    H142041   4.520   6.130  14.944  0.4557  0.9734  0.1089
 6850TIP3    H242042   4.386   6.136  14.875  0.0585 -1.4983  0.5591
 6851TIP3   OH242043   2.568   4.718   4.682  0.5366 -0.0390  0.1266
 6851TIP3    H142044   2.620   4.693   4.759  0.5333 -1.6965 -0.3687
 6851TIP3    H242045   2.491   4.761   4.719  1.2425  0.5692  0.9582
 6852TIP3   OH242046   0.192   2.874   4.990 -0.1582  0.3501  0.2335
 6852TIP3    H142047   0.208   2.891   5.083 -0.0176  1.7108 -0.0248
 6852TIP3    H242048   0.098   2.889   4.979 -0.1236  0.4735  0.1006
 6853TIP3   OH242049   5.428   2.729  15.972  0.2082  0.2145  0.3715
 6853TIP3    H142050   5.373   2.686  15.906  1.2434 -0.0533 -0.3434
 6853TIP3    H242051   5.517   2.702  15.950  0.6323  0.6354  1.5102
 6854TIP3   OH242052   6.625   5.233  13.854  0.5202 -0.3685 -0.2419
 6854TIP3    H142053   6.588   5.304  13.907  2.9090  3.5607 -3.2426
 6854TIP3    H242054   6.550   5.196  13.808 -0.8033  0.2731  1.3008
 6855TIP3   OH242055   6.312   5.738  14.193  0.2842  0.0884  0.5518
 6855TIP3    H142056   6.317   5.809  14.257 -1.0552  0.3168  0.4313
 6855TIP3    H242057   6.376   5.673  14.223 -0.0582  0.3594  1.9133
 6856TIP3   OH242058   2.617   1.778  16.648 -0.1131 -0.3942  0.0737
 6856TIP3    H142059   2.654   1.866  16.644 -1.8370  0.3625 -0.4091
 6856TIP3    H242060   2.645   1.737  16.566  1.9512 -0.8678  0.9741
 6857TIP3   OH242061   3.067   0.974  16.384  0.2494 -0.0538 -0.1641
 6857TIP3    H142062   3.059   0.891  16.431  0.2701 -0.6950 -1.2534
 6857TIP3    H242063   2.977   1.002  16.370  0.1272 -1.0151 -1.6543
 6858TIP3   OH242064   6.078   5.957   0.201  0.3010  0.0798 -0.5632
 6858TIP3    H142065   6.113   5.874   0.168  0.6757  0.0237 -0.0319
 6858TIP3    H242066   6.091   5.953   0.295 -3.3694 -1.0506  0.0705
 6859TIP3   OH242067   3.567   2.340   3.109 -0.1939  0.0199 -0.4737
 6859TIP3    H142068   3.646   2.389   3.089  0.2720  0.1903  1.5005
 6859TIP3    H242069   3.509   2.404   3.151 -0.9800 -0.3287 -1.0027
 6860TIP3   OH242070   0.141   1.684  12.515  0.1197 -0.0670  0.2024
 6860TIP3    H142071   0.160   1.721  12.602  2.5391  0.8764 -0.6349
 6860TIP3    H242072   0.185   1.744  12.454  1.9859 -2.8457 -1.4052
 6861TIP3   OH242073   3.176   2.065  13.107 -0.4238 -0.1907 -0.2648
 6861TIP3    H142074   3.269   2.077  13.126  0.0545 -2.1528 -1.0969
 6861TIP3    H242075   3.152   1.985  13.154 -1.4165 -0.2911 -0.9078
 6862TIP3   OH242076   6.003   1.558   0.858 -0.3521  0.2256  0.0643
 6862TIP3    H142077   5.991   1.465   0.876 -0.0520  0.1244 -0.2408
 6862TIP3    H242078   5.928   1.582   0.803 -2.0510  0.8725  2.5167
 6863TIP3   OH242079   0.532   6.465   2.976  0.0780  0.0412 -0.3758
 6863TIP3    H142080   0.479   6.460   2.896 -3.7321  0.8243  1.8114
 6863TIP3    H242081   0.559   6.375   2.992  1.0041 -0.1206 -2.5235
 6864TIP3   OH242082   2.811   6.028  15.553  0.1255 -0.4583 -0.0206
 6864TIP3    H142083   2.825   6.018  15.459  0.1236  0.1193 -0.0913
 6864TIP3    H242084   2.829   6.121  15.570 -0.6103 -0.3873  0.4173
 6865TIP3   OH242085   6.381   4.048  15.801  0.0058  0.6012  0.6840
 6865TIP3    H142086   6.417   3.974  15.849 -1.0784  0.4266  1.2682
 6865TIP3    H242087   6.309   4.079  15.856 -1.4354  0.2522 -0.9193
 6866TIP3   OH242088   1.451   6.065  13.780  0.0168  0.4865  0.0084
 6866TIP3    H142089   1.362   6.029  13.772  0.4851 -1.0081  1.1531
 6866TIP3    H242090   1.477   6.083  13.689 -0.8532 -0.5836 -0.4800
 6867TIP3   OH242091   6.395   0.069   1.076  0.1184 -0.1623 -0.2418
 6867TIP3    H142092   6.471   0.051   1.132  0.5392 -0.1661 -0.8027
 6867TIP3    H242093   6.355   0.147   1.115  1.3205  0.7791 -0.8388
 6868TIP3   OH242094   2.972   4.942   3.287  0.5497 -0.4624 -0.0627
 6868TIP3    H142095   2.946   4.883   3.216 -0.1545  2.0193 -1.9792
 6868TIP3    H242096   2.896   4.998   3.301  0.7864 -0.6314  2.4932
 6869TIP3   OH242097   5.871   1.536   2.606  0.4013 -0.1913 -0.1788
 6869TIP3    H142098   5.857   1.456   2.556  1.4604 -0.1516 -0.5674
 6869TIP3    H242099   5.965   1.537   2.624  1.0074  2.3995 -2.7279
 6870TIP3   OH242100   5.226   6.632   0.130 -0.6215 -0.1625  0.8406
 6870TIP3    H142101   5.204   6.539   0.133 -0.6426 -0.1628  0.6553
 6870TIP3    H242102   5.215   6.661   0.221  0.7965 -0.6644  1.2011
 6871TIP3   OH242103   3.905   6.452   6.170  0.0029  0.0702 -0.0069
 6871TIP3    H142104   3.956   6.374   6.191  1.2480  0.4558 -1.3981
 6871TIP3    H242105   3.882   6.440   6.077 -1.4287  0.4890  0.2672
 6872TIP3   OH242106   5.351   2.303  15.987  0.8359  0.6207  0.0140
 6872TIP3    H142107   5.295   2.378  15.966 -0.9517 -0.5412  0.3655
 6872TIP3    H242108   5.389   2.276  15.903 -0.5956  0.3495 -0.5760
 6873TIP3   OH242109   0.614   2.783  13.556 -0.5594 -0.1683  0.0359
 6873TIP3    H142110   0.627   2.847  13.625 -1.1511  1.6604 -1.4513
 6873TIP3    H242111   0.659   2.820  13.480  1.3019 -2.7717 -0.2654
 6874TIP3   OH242112   6.555   2.959  14.655  0.2986  0.0358  0.2031
 6874TIP3    H142113   6.585   2.986  14.568 -2.0269  0.6094 -0.4945
 6874TIP3    H242114   6.563   3.039  14.708 -1.1841  0.5882 -0.3490
 6875TIP3   OH242115   3.257   6.738   0.454  0.1949  0.2702 -0.1401
 6875TIP3    H142116   3.293   6.823   0.430  3.2419 -0.9044 -0.1478
 6875TIP3    H242117   3.296   6.677   0.391 -0.9013 -1.3002  0.6417
 6876TIP3   OH242118   3.303   6.049  13.973  0.2125 -0.0072 -0.0264
 6876TIP3    H142119   3.384   6.027  13.927 -1.3859  0.8141 -3.5173
 6876TIP3    H242120   3.285   5.973  14.028  2.2183 -1.1208 -0.8137
 6877TIP3   OH242121   5.292   5.749   1.989 -0.0093 -0.0205 -0.6767
 6877TIP3    H142122   5.339   5.670   2.015  1.2422  0.3622 -1.6818
 6877TIP3    H242123   5.294   5.805   2.067  1.6045  0.1535 -0.8060
 6878TIP3   OH242124   2.400   0.960   4.721  0.0274 -0.7389  0.3010
 6878TIP3    H142125   2.326   0.919   4.676 -1.4150  1.2616  0.6858
 6878TIP3    H242126   2.470   0.962   4.657  0.2423 -3.7741  0.2905
 6879TIP3   OH242127   0.068   3.431   5.275  0.6319  0.3035  0.5883
 6879TIP3    H142128   0.150   3.462   5.312  1.4017 -0.8530 -0.0953
 6879TIP3    H242129   0.029   3.378   5.344 -1.0227  3.1332  2.0280
 6880TIP3   OH242130   4.071   4.870  14.501 -0.8639 -0.2913  0.0496
 6880TIP3    H142131   4.061   4.886  14.407  0.5379  0.3959 -0.0101
 6880TIP3    H242132   4.049   4.954  14.542  0.2571 -0.0541  0.1967
 6881TIP3   OH242133   4.228   0.555  15.361  0.2102 -0.0960 -0.7471
 6881TIP3    H142134   4.171   0.506  15.300  1.2932 -1.4059 -0.7540
 6881TIP3    H242135   4.189   0.539  15.447  0.8380 -1.4513 -0.6878
 6882TIP3   OH242136   5.582   6.776   2.937 -1.1121  0.6599 -0.0382
 6882TIP3    H142137   5.605   6.693   2.979  1.8166  0.9925 -0.8217
 6882TIP3    H242138   5.486   6.772   2.929 -1.1950 -2.0557  1.0902
 6883TIP3   OH242139   3.702   6.739  15.962 -0.7822  0.4790  0.0546
 6883TIP3    H142140   3.695   6.746  15.866  2.5241 -0.4077 -0.3685
 6883TIP3    H242141   3.749   6.817  15.989  0.9809 -0.6609  0.4848
 6884TIP3   OH242142   0.900   6.050  11.591  0.4127 -0.1054  0.4011
 6884TIP3    H142143   0.921   5.956  11.593  2.1151  0.2338 -0.3263
 6884TIP3    H242144   0.919   6.081  11.679  1.7172 -0.0847  0.1262
 6885TIP3   OH242145   3.954   1.340  12.913 -0.1107 -0.1585 -0.5856
 6885TIP3    H142146   3.988   1.355  12.825 -1.0412 -2.8508 -1.5040
 6885TIP3    H242147   4.021   1.286  12.956 -0.7849 -1.0355 -0.5890
 6886TIP3   OH242148   4.196   2.717   4.281  0.2680 -0.1005 -0.5106
 6886TIP3    H142149   4.227   2.751   4.197 -0.2723 -1.1510 -1.1634
 6886TIP3    H242150   4.112   2.762   4.295 -0.1693 -0.7104 -1.0876
 6887TIP3   OH242151   6.297   4.885  11.537 -0.4754 -0.1936 -0.1381
 6887TIP3    H142152   6.379   4.835  11.533  0.7229  1.7651 -2.3509
 6887TIP3    H242153   6.248   4.844  11.609  1.3717 -3.0008 -0.2978
 6888TIP3   OH242154   0.336   0.726   3.013 -0.1040 -0.2403  0.1162
 6888TIP3    H142155   0.375   0.648   3.054  0.8597  0.9840  1.6390
 6888TIP3    H242156   0.411   0.772   2.975 -0.7515 -0.3444 -1.3487
 6889TIP3   OH242157   1.478   6.417  15.924 -0.2084  0.6338 -0.3013
 6889TIP3    H142158   1.503   6.343  15.869  1.9059 -0.1879  1.6376
 6889TIP3    H242159   1.520   6.493  15.884  2.3920 -0.1467  0.7440
 6890TIP3   OH242160   1.881   1.071   5.552 -0.5342 -0.2127  0.7744
 6890TIP3    H142161   1.892   0.982   5.520 -2.9509 -1.5104  3.1335
 6890TIP3    H242162   1.962   1.089   5.600  0.9863 -0.1225 -1.6769
 6891TIP3   OH242163   0.184   1.707   6.288 -0.7211 -0.6620  0.0623
 6891TIP3    H142164   0.228   1.622   6.285 -0.0414 -0.3776  1.1882
 6891TIP3    H242165   0.090   1.685   6.285 -0.5418 -1.3876 -0.5141
 6892TIP3   OH242166   5.081   4.685  15.442 -0.1423 -0.5050  0.5234
 6892TIP3    H142167   5.027   4.760  15.418  0.4654 -0.8492 -2.2147
 6892TIP3    H242168   5.157   4.690  15.383  1.5414 -1.4928  2.4794
 6893TIP3   OH242169   2.185   3.971  16.648  0.3619  0.2068 -0.0541
 6893TIP3    H142170   2.238   3.987  16.726  0.1650  0.4945  0.0230
 6893TIP3    H242171   2.108   4.026  16.659 -1.7711 -2.8409  1.5558
 6894TIP3   OH242172   5.888   2.801   2.658 -0.1602  0.0736  0.2163
 6894TIP3    H142173   5.896   2.873   2.596  0.3878 -1.3785 -1.5032
 6894TIP3    H242174   5.809   2.754   2.630  1.1584 -1.7231 -0.7075
 6895TIP3   OH242175   4.970   4.380   1.080 -0.2225 -0.1588  0.6723
 6895TIP3    H142176   4.887   4.402   1.039  1.3784  2.2370 -1.5658
 6895TIP3    H242177   5.000   4.302   1.033  1.3087  2.2111 -2.7385
 6896TIP3   OH242178   3.863   5.946  16.237 -0.2203  0.5080  0.2692
 6896TIP3    H142179   3.831   6.029  16.204 -0.3465  1.0836  1.7482
 6896TIP3    H242180   3.939   5.968  16.292  0.0213 -0.3880  0.3266
 6897TIP3   OH242181   4.466   1.462  10.770  0.3189 -0.1356  0.3093
 6897TIP3    H142182   4.509   1.398  10.714  1.1726 -1.7177  2.5857
 6897TIP3    H242183   4.427   1.410  10.840  0.8373  1.7796  2.1500
 6898TIP3   OH242184   6.616   6.308  14.001 -0.2002  0.6701 -0.4285
 6898TIP3    H142185   6.577   6.365  13.935  0.1230 -1.1504 -2.2714
 6898TIP3    H242186   6.559   6.231  14.004 -1.3719  1.4855  2.9499
 6899TIP3   OH242187   3.671   4.520   2.265 -0.1563 -0.2587 -0.0432
 6899TIP3    H142188   3.682   4.570   2.184 -2.5405 -0.6050 -0.6441
 6899TIP3    H242189   3.743   4.457   2.265 -0.8195 -1.0839 -2.5289
 6900TIP3   OH242190   2.660   5.703   2.861 -0.2152  0.0664  0.2026
 6900TIP3    H142191   2.632   5.623   2.818  1.1200 -0.6443  0.5986
 6900TIP3    H242192   2.746   5.682   2.898 -0.2593  1.3851  1.1406
 6901TIP3   OH242193   1.005   2.024   2.901 -0.1361 -0.3493 -0.6236
 6901TIP3    H142194   0.947   2.097   2.921 -0.0020 -0.5611  0.6364
 6901TIP3    H242195   1.000   2.014   2.806 -0.6209  0.9007 -0.7436
 6902TIP3   OH242196   0.867   3.060  11.722  0.5016 -0.0273  0.8161
 6902TIP3    H142197   0.919   3.023  11.794 -0.7355 -2.0417  0.7420
 6902TIP3    H242198   0.932   3.080  11.654  1.4741  0.1159  1.7668
 6903TIP3   OH242199   6.549   0.457  15.263 -0.6897 -0.1672 -0.0343
 6903TIP3    H142200   6.579   0.436  15.351 -2.8386 -1.1274  0.5511
 6903TIP3    H242201   6.486   0.529  15.275  0.9949  1.5970 -1.1554
 6904TIP3   OH242202   3.302   6.760  13.703  0.0176  0.3762 -0.1617
 6904TIP3    H142203   3.384   6.716  13.725 -0.2389  0.3448  0.7882
 6904TIP3    H242204   3.236   6.691  13.705 -0.3220  0.7097  0.9478
 6905TIP3   OH242205   6.268   3.583   3.277  0.8554 -0.6304 -0.2556
 6905TIP3    H142206   6.184   3.591   3.232 -0.2019 -3.6588  0.9366
 6905TIP3    H242207   6.248   3.605   3.368  1.4653 -0.8666 -0.0597
 6906TIP3   OH242208   6.481   5.664   3.651  0.0652  0.9104  0.3225
 6906TIP3    H142209   6.452   5.752   3.630  0.6262  1.1363  0.4952
 6906TIP3    H242210   6.477   5.617   3.567 -0.4997  1.0199  0.2858
 6907TIP3   OH242211   3.177   1.535  11.073 -0.1415 -0.2425  0.4819
 6907TIP3    H142212   3.138   1.601  11.016  1.9405  0.5559 -0.1050
 6907TIP3    H242213   3.125   1.539  11.153 -0.4374  1.7060  0.2409
 6908TIP3   OH242214   0.641   4.758   5.897  0.3813  0.1759  0.8335
 6908TIP3    H142215   0.634   4.669   5.931  0.5700 -0.0414  0.3151
 6908TIP3    H242216   0.720   4.794   5.937  1.1191 -0.3981 -0.0935
 6909TIP3   OH242217   2.553   4.150  14.080  0.8740 -0.5321 -0.7415
 6909TIP3    H142218   2.459   4.138  14.066  0.6270  0.4076  0.0097
 6909TIP3    H242219   2.593   4.073  14.040 -0.3080 -1.5705 -0.0245
 6910TIP3   OH242220   3.398   0.453  11.988 -0.7136  0.2545  0.1695
 6910TIP3    H142221   3.379   0.418  12.075 -1.0006  0.2788  0.1192
 6910TIP3    H242222   3.450   0.532  12.005 -1.2060  0.5487  0.3483
 6911TIP3   OH242223   0.804   3.159   2.262 -0.2207 -0.1309  0.5471
 6911TIP3    H142224   0.854   3.128   2.186 -0.5304  1.1147 -0.2027
 6911TIP3    H242225   0.718   3.180   2.226 -0.1087  1.2865  1.0497
 6912TIP3   OH242226   6.320   4.968   2.680 -0.2214 -0.2413  0.8880
 6912TIP3    H142227   6.329   4.986   2.587 -0.3839  1.6145  1.1784
 6912TIP3    H242228   6.258   4.895   2.686 -1.6419  0.7994 -0.4119
 6913TIP3   OH242229   5.288   5.853  16.868  0.4688  0.3446 -0.2479
 6913TIP3    H142230   5.275   5.826  16.777  0.3337 -3.0121  0.6269
 6913TIP3    H242231   5.207   5.899  16.891 -0.7685 -1.3080 -1.0577
 6914TIP3   OH242232   5.784   0.062   2.810 -0.2334  0.2717  0.5721
 6914TIP3    H142233   5.722  -0.006   2.835 -0.4776  0.6292  0.9591
 6914TIP3    H242234   5.845   0.066   2.884 -0.0244  0.2440  0.4017
 6915TIP3   OH242235   6.400   4.985   2.410 -0.1894  0.2192 -0.2132
 6915TIP3    H142236   6.483   4.937   2.413 -0.4919 -0.3923 -1.2017
 6915TIP3    H242237   6.336   4.920   2.380 -1.3248  0.3067  1.8786
 6916TIP3   OH242238   3.593   1.379  15.897  0.2223  0.2173 -0.2974
 6916TIP3    H142239   3.615   1.299  15.850 -1.1315  1.0254 -2.4374
 6916TIP3    H242240   3.669   1.435  15.887  0.4251 -0.0891 -0.4704
 6917TIP3   OH242241   6.018   4.157  10.856 -0.1258 -0.0189 -0.2029
 6917TIP3    H142242   6.082   4.153  10.927 -1.3005 -1.4400  0.8620
 6917TIP3    H242243   5.977   4.242  10.865 -0.6126 -0.3765  1.1974
 6918TIP3   OH242244   3.817   4.349  11.653  0.3732  0.1513  0.0545
 6918TIP3    H142245   3.829   4.254  11.656  1.0229  0.1594 -1.4012
 6918TIP3    H242246   3.725   4.362  11.676  0.5190 -0.7379  1.2348
 6919TIP3   OH242247   2.552   5.356   0.675  0.0675 -0.1559  0.3515
 6919TIP3    H142248   2.600   5.277   0.651  0.8744  0.6800 -0.9001
 6919TIP3    H242249   2.471   5.352   0.624  0.8002  0.5516 -0.9018
 6920TIP3   OH242250   6.041   2.437   2.622  0.1620 -0.2470 -0.1230
 6920TIP3    H142251   5.974   2.449   2.689  1.3964 -0.9993  1.3150
 6920TIP3    H242252   6.118   2.407   2.671  1.4942  0.4135 -1.7396
 6921TIP3   OH242253   4.770   0.466   2.595 -0.2128  0.0618 -0.4684
 6921TIP3    H142254   4.692   0.426   2.634 -0.5578  1.0849 -0.0744
 6921TIP3    H242255   4.774   0.430   2.506 -1.3069  0.2199 -0.5965
 6922TIP3   OH242256   5.987   3.722   3.936 -0.1320  0.3514  0.3526
 6922TIP3    H142257   5.984   3.652   4.001 -0.1425  0.1247  0.1083
 6922TIP3    H242258   6.079   3.726   3.910 -0.3620 -0.6029 -0.7433
 6923TIP3   OH242259   5.468   1.450  14.216 -0.1627 -0.6338 -0.1635
 6923TIP3    H142260   5.492   1.497  14.296 -1.5309 -0.3046  0.0810
 6923TIP3    H242261   5.465   1.358  14.242  1.7626 -0.8219 -0.4552
 6924TIP3   OH242262   4.683   2.210  12.131  0.2429  0.0754  0.5191
 6924TIP3    H142263   4.746   2.139  12.115  1.0020  0.8797 -0.1239
 6924TIP3    H242264   4.713   2.252  12.211  1.3750  1.3398 -0.5316
 6925TIP3   OH242265   1.232   2.797   4.337 -0.4032 -0.2440  0.0268
 6925TIP3    H142266   1.188   2.718   4.306  1.6333 -1.2110 -0.6241
 6925TIP3    H242267   1.276   2.769   4.418  0.5579  0.1387 -0.3527
 6926TIP3   OH242268   0.206   6.333  15.251 -0.1723 -0.1938  0.0091
 6926TIP3    H142269   0.227   6.395  15.321 -1.1380 -0.4888  0.5734
 6926TIP3    H242270   0.287   6.285  15.236  0.3136  0.5401  0.2344
 6927TIP3   OH242271   4.379   0.714   2.792 -0.8398 -0.2379 -0.1167
 6927TIP3    H142272   4.382   0.795   2.843 -0.3035 -1.7810  2.4848
 6927TIP3    H242273   4.464   0.711   2.747 -0.8365  0.5792 -0.1783
 6928TIP3   OH242274   3.451   6.736  13.960  0.5797  0.6008 -0.6085
 6928TIP3    H142275   3.532   6.785  13.974 -0.0631  1.2675  1.0188
 6928TIP3    H242276   3.480   6.646  13.942  1.6979  1.0683 -1.2322
 6929TIP3   OH242277   2.449   6.812   2.615 -0.1144  0.6066 -0.5323
 6929TIP3    H142278   2.504   6.750   2.662  1.4765  1.4733 -1.1933
 6929TIP3    H242279   2.375   6.759   2.583 -0.0155 -0.4424  0.9117
 6930TIP3   OH242280   6.358   2.242   2.434 -1.0541  0.1404  0.3108
 6930TIP3    H142281   6.266   2.216   2.442 -0.6235 -1.2061  1.3834
 6930TIP3    H242282   6.357   2.319   2.377 -2.8863  0.4783  0.7429
 6931TIP3   OH242283   1.520   6.567   2.748  0.3087  0.2052 -0.9791
 6931TIP3    H142284   1.506   6.661   2.756  0.9361  0.2752 -0.6338
 6931TIP3    H242285   1.537   6.553   2.655  0.2391  0.4364 -1.0270
 6932TIP3   OH242286   6.443   5.895   5.736 -0.2765 -0.3754  0.1873
 6932TIP3    H142287   6.413   5.810   5.703 -1.0171  0.5023 -1.5446
 6932TIP3    H242288   6.476   5.940   5.658  0.3556  0.8299  1.1205
 6933TIP3   OH242289   4.573   2.742   6.649 -0.2614 -0.1730 -0.3204
 6933TIP3    H142290   4.644   2.681   6.630 -0.2530  0.1866 -1.5440
 6933TIP3    H242291   4.615   2.828   6.653 -0.4293 -0.1139  0.3446
 6934TIP3   OH242292   5.376   4.575  12.604 -0.9758  0.0094 -0.3028
 6934TIP3    H142293   5.434   4.605  12.674 -2.4483  1.4133  0.3973
 6934TIP3    H242294   5.398   4.630  12.529  0.3158 -1.2092 -0.8420
 6935TIP3   OH242295   4.538   0.154   4.163  0.8961  0.3860 -0.2658
 6935TIP3    H142296   4.486   0.224   4.204  2.2222  0.3472  1.5848
 6935TIP3    H242297   4.589   0.198   4.096 -0.1884  0.7206 -0.9015
 6936TIP3   OH242298   4.349   3.550  12.685  0.6336  0.0940 -0.0919
 6936TIP3    H142299   4.433   3.507  12.670  1.1727  1.3914 -1.0466
 6936TIP3    H242300   4.325   3.586  12.599 -0.3014  0.7648  0.4271
 6937TIP3   OH242301   0.132   2.023   0.151  0.1507 -0.3285  0.4635
 6937TIP3    H142302   0.209   2.066   0.188  0.6415  0.6088 -1.4914
 6937TIP3    H242303   0.092   2.091   0.096 -0.4984 -1.6193 -0.7156
 6938TIP3   OH242304   2.724   2.537   5.240  0.3269  0.3534 -0.1387
 6938TIP3    H142305   2.751   2.613   5.291  0.0696 -1.1160  2.3807
 6938TIP3    H242306   2.803   2.483   5.234 -0.2971 -0.8336  1.3943
 6939TIP3   OH242307   2.768   0.685  15.754 -0.4202 -0.3096 -0.0438
 6939TIP3    H142308   2.774   0.781  15.751  0.4374 -0.3076  0.9931
 6939TIP3    H242309   2.854   0.655  15.725 -0.8982 -0.7966 -0.9991
 6940TIP3   OH242310   3.050   4.875  15.322  0.4869 -0.5829 -0.3013
 6940TIP3    H142311   3.031   4.948  15.382 -0.1463  0.6179 -1.8857
 6940TIP3    H242312   3.053   4.798  15.379 -1.2303  0.3226  1.1472
 6941TIP3   OH242313   1.014   2.219   4.700  0.4596  0.6750 -0.0287
 6941TIP3    H142314   0.935   2.234   4.649  0.0835  1.0131  0.6312
 6941TIP3    H242315   1.037   2.306   4.734  0.9719  0.5369 -0.0087
 6942TIP3   OH242316   3.272   3.560  10.629  0.8051  0.2686 -0.0685
 6942TIP3    H142317   3.247   3.566  10.721 -1.1220  0.4606 -0.5472
 6942TIP3    H242318   3.364   3.587  10.626  0.6474  1.1041  1.6714
 6943TIP3   OH242319   4.249   1.770   5.084  0.0188  0.2830 -0.3056
 6943TIP3    H142320   4.272   1.860   5.064 -1.1934  0.4639 -1.0035
 6943TIP3    H242321   4.164   1.777   5.128  0.7500 -0.4064  1.3049
 6944TIP3   OH242322   6.463   5.596  10.964 -0.2510  0.1927 -0.1752
 6944TIP3    H142323   6.435   5.683  10.933  1.3080  0.3504 -1.2362
 6944TIP3    H242324   6.404   5.535  10.920  0.1012  0.6013 -1.2578
 6945TIP3   OH242325   5.439   2.585   6.053  0.0872 -0.0149 -0.0458
 6945TIP3    H142326   5.419   2.594   5.959 -0.1668  0.5743  0.0596
 6945TIP3    H242327   5.377   2.518   6.083 -2.0369  1.9791  0.3293
 6946TIP3   OH242328   5.191   5.611  11.549 -0.0164  0.6282 -0.8416
 6946TIP3    H142329   5.123   5.616  11.482 -0.7894  3.2392  0.0400
 6946TIP3    H242330   5.202   5.701  11.579  1.5944 -0.2043  1.2884
 6947TIP3   OH242331   4.181   2.696   3.720  0.1862  0.2950 -0.1864
 6947TIP3    H142332   4.221   2.783   3.723  1.7922 -0.3957 -0.6524
 6947TIP3    H242333   4.095   2.708   3.760  1.0621  1.7292  1.3690
 6948TIP3   OH242334   6.755   6.667   0.233 -0.1650 -0.2094 -0.2396
 6948TIP3    H142335   6.792   6.707   0.154 -0.9093  0.4089 -0.2948
 6948TIP3    H242336   6.682   6.614   0.201  0.8264 -1.6662 -0.1647
 6949TIP3   OH242337   4.816   2.439  12.874  0.9496  0.3261 -0.2929
 6949TIP3    H142338   4.821   2.486  12.957  1.3506 -0.8786  0.3881
 6949TIP3    H242339   4.723   2.416  12.865  0.4119  2.5886 -1.4505
 6950TIP3   OH242340   1.670   1.488   1.983 -0.1546 -0.4116  0.1740
 6950TIP3    H142341   1.604   1.486   2.051 -0.0346  0.7582  0.3497
 6950TIP3    H242342   1.752   1.469   2.028  0.2483  2.4130  0.8254
 6951TIP3   OH242343   5.526   5.454   6.673  0.4380 -0.6903  0.3640
 6951TIP3    H142344   5.566   5.459   6.586 -0.9290 -1.5120 -0.3447
 6951TIP3    H242345   5.573   5.519   6.725 -0.4157  1.7011 -1.6643
 6952TIP3   OH242346   6.053   1.827   5.614 -0.2781  0.2396 -0.3050
 6952TIP3    H142347   6.080   1.736   5.630 -1.8301 -0.3990 -1.0329
 6952TIP3    H242348   6.134   1.874   5.600  0.5940 -0.9565  0.5218
 6953TIP3   OH242349   1.845   0.312   5.740  0.3392  0.0991 -0.4534
 6953TIP3    H142350   1.793   0.296   5.661  0.7483 -1.6516 -0.3980
 6953TIP3    H242351   1.803   0.387   5.781 -1.2145 -0.3220 -1.2045
 6954TIP3   OH242352   3.309   1.646  16.019 -0.7000 -0.2487 -0.7974
 6954TIP3    H142353   3.374   1.655  15.949  0.1753  0.5262  0.0851
 6954TIP3    H242354   3.351   1.685  16.096 -1.3798 -1.6666  0.3319
 6955TIP3   OH242355   0.790   0.167   3.813  0.2604  0.1760 -0.1181
 6955TIP3    H142356   0.761   0.115   3.738  1.4744 -1.3857  0.4526
 6955TIP3    H242357   0.736   0.137   3.886 -0.8383  1.6130 -0.2748
 6956TIP3   OH242358   3.262   4.306   2.962 -0.0837 -0.1180  0.3058
 6956TIP3    H142359   3.264   4.335   2.871 -2.7908  1.5000  0.6574
 6956TIP3    H242360   3.173   4.275   2.975  0.2200 -0.2052  2.4631
 6957TIP3   OH242361   0.711   5.399   4.601 -0.1230 -0.0229 -0.2079
 6957TIP3    H142362   0.796   5.396   4.558  1.1132 -1.2410  2.1410
 6957TIP3    H242363   0.731   5.399   4.694 -2.6668 -2.9498  0.5164
 6958TIP3   OH242364   2.213   1.938   2.538  0.1385  0.0747  0.8967
 6958TIP3    H142365   2.306   1.961   2.543  0.2398  0.3583 -1.3291
 6958TIP3    H242366   2.167   2.017   2.563  0.5079  0.3862  0.6046
 6959TIP3   OH242367   1.346   0.780   4.645  0.2752  0.3608 -0.8397
 6959TIP3    H142368   1.306   0.847   4.701 -1.1708  0.1995 -1.6212
 6959TIP3    H242369   1.367   0.827   4.564  0.7456  0.2181 -0.7986
 6960TIP3   OH242370   1.999   6.742   0.361 -0.7680  0.1173  0.4777
 6960TIP3    H142371   2.013   6.809   0.294  0.2908 -0.1620  0.3997
 6960TIP3    H242372   2.019   6.786   0.444 -0.1794 -0.0664  0.4359
 6961TIP3   OH242373   6.787   1.052   1.286  0.3909 -0.2412  0.2638
 6961TIP3    H142374   6.732   1.131   1.286 -0.2019 -0.6324  1.2365
 6961TIP3    H242375   6.809   1.038   1.194  1.5992  1.7856  0.2128
 6962TIP3   OH242376   4.015   5.191  12.227  0.1452  0.7651  0.1729
 6962TIP3    H142377   4.034   5.284  12.226 -0.1849  0.8338 -0.9901
 6962TIP3    H242378   4.050   5.158  12.145  1.5925 -0.4315  1.2012
 6963TIP3   OH242379   3.626   5.866  16.424  0.5226 -0.1611 -0.3705
 6963TIP3    H142380   3.602   5.820  16.344 -0.4047 -0.5597  0.1201
 6963TIP3    H242381   3.720   5.881  16.416  0.5429 -0.7138 -1.2627
 6964TIP3   OH242382   1.560   6.061  16.553  0.2613  0.2921  0.3776
 6964TIP3    H142383   1.499   6.107  16.496 -0.4513 -1.4958 -0.3342
 6964TIP3    H242384   1.567   5.973  16.517  1.6194 -0.1873  1.6882
 6965TIP3   OH242385   0.702   3.715  12.090  0.3297 -0.3752 -0.4740
 6965TIP3    H142386   0.677   3.787  12.148 -1.8925 -1.7474  0.4338
 6965TIP3    H242387   0.735   3.757  12.011  0.3559  1.5894  0.5217
 6966TIP3   OH242388   0.112   5.863   5.136  0.3657  0.9633 -0.2688
 6966TIP3    H142389   0.126   5.821   5.052 -0.5663  1.8346 -0.8855
 6966TIP3    H242390   0.103   5.791   5.198  0.6963  0.3027 -0.9766
 6967TIP3   OH242391   2.564   2.286   4.856 -0.0167 -0.1227  0.5191
 6967TIP3    H142392   2.576   2.249   4.943 -0.2211 -1.8753 -0.1544
 6967TIP3    H242393   2.638   2.346   4.845  1.1795 -1.4249  1.1356
 6968TIP3   OH242394   2.802   3.160   1.740  0.0077  0.4143  0.6276
 6968TIP3    H142395   2.867   3.092   1.726 -0.5983  0.0533 -0.5744
 6968TIP3    H242396   2.852   3.242   1.742  0.7506 -0.0397  2.1607
 6969TIP3   OH242397   6.392   5.244   2.164  0.1973 -0.1369  0.4798
 6969TIP3    H142398   6.476   5.273   2.199  0.0159 -0.9701  1.6666
 6969TIP3    H242399   6.410   5.157   2.129 -0.2498 -0.5171  1.1656
 6970TIP3   OH242400   5.842   6.762  12.612  0.5052 -0.1431  0.1500
 6970TIP3    H142401   5.747   6.765  12.616  0.1497 -2.9469 -2.6522
 6970TIP3    H242402   5.868   6.712  12.689 -0.4205 -0.6393  0.1506
 6971TIP3   OH242403   3.436   0.206  11.157  0.0822 -0.0028  0.1470
 6971TIP3    H142404   3.491   0.259  11.099 -0.8140  0.7266 -0.0639
 6971TIP3    H242405   3.348   0.212  11.119 -0.0663 -1.5739  0.1857
 6972TIP3   OH242406   4.219   2.364   1.420 -0.1967 -0.0608 -0.3687
 6972TIP3    H142407   4.186   2.286   1.376  0.6574  0.5841 -2.2543
 6972TIP3    H242408   4.253   2.331   1.503  0.0415 -1.6904 -1.0593
 6973TIP3   OH242409   4.663   2.874  13.424 -0.0814  0.3602 -0.3592
 6973TIP3    H142410   4.708   2.852  13.342  1.3325 -0.3699  0.5849
 6973TIP3    H242411   4.702   2.958  13.450 -1.5439  1.3255 -1.1194
 6974TIP3   OH242412   0.390   3.719  12.667  0.3475  0.5541  0.0057
 6974TIP3    H142413   0.406   3.653  12.599  0.1823 -0.9704  1.4045
 6974TIP3    H242414   0.319   3.773  12.630  0.3489 -0.1469 -1.0852
 6975TIP3   OH242415   3.629   3.858   1.692  0.6534 -0.1826  0.3748
 6975TIP3    H142416   3.606   3.937   1.643 -1.5222 -0.5926  0.6586
 6975TIP3    H242417   3.596   3.873   1.780  0.8466 -1.1153  0.6160
 6976TIP3   OH242418   4.279   0.214  12.751 -0.6118 -0.1319  0.1291
 6976TIP3    H142419   4.284   0.118  12.746  1.9463 -0.0370 -0.3019
 6976TIP3    H242420   4.212   0.238  12.688  0.2825 -1.5543 -1.4382
 6977TIP3   OH242421   2.253   4.190   2.372  0.5630 -0.1200 -0.5262
 6977TIP3    H142422   2.287   4.110   2.332 -0.6215 -0.0751 -1.7081
 6977TIP3    H242423   2.255   4.254   2.300 -3.2751 -0.4917 -1.1606
 6978TIP3   OH242424   5.871   2.686  14.858  0.2670 -0.7394  0.4752
 6978TIP3    H142425   5.857   2.637  14.777 -0.7945  0.8434 -0.3529
 6978TIP3    H242426   5.965   2.701  14.860  0.2780 -0.5632 -0.6290
 6979TIP3   OH242427   0.246   2.891  15.178  0.1194 -0.1802  0.5779
 6979TIP3    H142428   0.263   2.858  15.090 -0.0506 -0.6696  0.7242
 6979TIP3    H242429   0.278   2.981  15.177  1.4794 -0.6372  0.4459
 6980TIP3   OH242430   3.694   3.842  15.183 -0.3612 -0.0610  0.3913
 6980TIP3    H142431   3.633   3.890  15.127  0.5401  0.9123  0.2076
 6980TIP3    H242432   3.638   3.785  15.236 -1.2970 -0.3783 -0.8905
 6981TIP3   OH242433   1.722   2.470  16.457 -0.0575 -0.0348 -0.1259
 6981TIP3    H142434   1.748   2.379  16.446 -0.0382  0.1540 -1.9750
 6981TIP3    H242435   1.771   2.500  16.533  0.0050 -1.5325  0.4543
 6982TIP3   OH242436   3.269   0.488  15.163  0.3789  0.4802  0.0881
 6982TIP3    H142437   3.202   0.431  15.202 -0.1944  1.4984  0.6231
 6982TIP3    H242438   3.352   0.447  15.186 -0.0433 -0.7002 -0.4185
 6983TIP3   OH242439   6.678   0.223   4.686 -0.0110  0.1008  0.3333
 6983TIP3    H142440   6.730   0.178   4.753 -0.8771 -1.0152  0.2977
 6983TIP3    H242441   6.742   0.245   4.617  0.8315  0.9807  1.3512
 6984TIP3   OH242442   5.758   0.954  11.377  0.3642 -0.0623 -0.8853
 6984TIP3    H142443   5.792   0.988  11.459 -1.2398  0.4150 -0.3760
 6984TIP3    H242444   5.711   0.874  11.402  0.2826 -0.1814 -1.4084
 6985TIP3   OH242445   6.456   2.972  13.235 -0.5516  0.1132 -0.4816
 6985TIP3    H142446   6.402   3.017  13.171 -0.0807 -0.4161 -1.2741
 6985TIP3    H242447   6.545   3.002  13.217 -0.4578  0.2487  0.1789
 6986TIP3   OH242448   1.108   2.487  16.644 -0.0336 -0.5693 -0.3715
 6986TIP3    H142449   1.052   2.482  16.721 -1.3352  1.6278 -1.0912
 6986TIP3    H242450   1.101   2.400  16.604 -2.5059 -0.5685 -0.0987
 6987TIP3   OH242451   1.925   0.394   3.888 -0.3877 -0.6799  0.4393
 6987TIP3    H142452   1.930   0.450   3.811 -1.2798 -1.1712  0.0051
 6987TIP3    H242453   1.931   0.305   3.854 -1.0211 -0.9106  0.8974
 6988TIP3   OH242454   4.819   0.826  15.935 -0.1159  0.0147 -0.3812
 6988TIP3    H142455   4.771   0.908  15.923 -0.2803  0.0069  0.1921
 6988TIP3    H242456   4.892   0.849  15.992  0.5663  0.0234 -1.2392
 6989TIP3   OH242457   5.386   5.615  11.778  0.6503 -0.9102  0.0266
 6989TIP3    H142458   5.361   5.566  11.856  0.4211  0.7911  1.0685
 6989TIP3    H242459   5.323   5.586  11.711 -0.6765 -0.6861  1.1227
 6990TIP3   OH242460   1.584   3.062  10.512  0.3162  0.4909 -0.1973
 6990TIP3    H142461   1.598   3.131  10.577 -0.1506 -0.0463  0.4782
 6990TIP3    H242462   1.570   2.982  10.563  1.1305 -0.1717 -0.9721
 6991TIP3   OH242463   4.938   3.518  15.190  0.0999 -0.5612  0.2334
 6991TIP3    H142464   4.986   3.601  15.180 -1.7303  0.3658 -1.4133
 6991TIP3    H242465   5.007   3.452  15.198  1.6463  0.8516 -0.6867
 6992TIP3   OH242466   3.593   2.499  16.996  0.5691  0.4185  0.0981
 6992TIP3    H142467   3.525   2.546  17.045  1.5097  2.2518 -0.2486
 6992TIP3    H242468   3.673   2.516  17.044  1.0313 -0.4121 -0.3534
 6993TIP3   OH242469   5.267   6.009  13.171 -0.0983 -0.3986  0.5599
 6993TIP3    H142470   5.211   5.990  13.247 -1.7232 -0.5148 -0.6155
 6993TIP3    H242471   5.206   6.018  13.098  1.4678 -0.8905 -0.8662
 6994TIP3   OH242472   2.926   6.515  14.840 -0.1652  0.6909 -0.7499
 6994TIP3    H142473   2.831   6.525  14.842 -0.1692  0.7239 -1.0919
 6994TIP3    H242474   2.947   6.504  14.748  0.2844  1.9138 -0.8104
 6995TIP3   OH242475   5.616   1.106   5.195  0.3145  0.5142  0.0989
 6995TIP3    H142476   5.690   1.045   5.204 -0.3754 -0.4405 -0.4477
 6995TIP3    H242477   5.617   1.131   5.103  0.4608  1.1634  0.2766
 6996TIP3   OH242478   4.597   1.375  11.080  0.3571  0.0406  0.4523
 6996TIP3    H142479   4.689   1.362  11.055  0.1290 -3.2208  0.9411
 6996TIP3    H242480   4.553   1.294  11.054 -1.8977  0.5501  2.3448
 6997TIP3   OH242481   0.942   6.187   0.482 -0.0973  0.1113  0.1235
 6997TIP3    H142482   0.999   6.121   0.522  0.1739  0.7567  0.8311
 6997TIP3    H242483   0.928   6.156   0.392  2.0295  0.3131 -0.3342
 6998TIP3   OH242484   4.587   6.710  12.518  0.1076 -0.3755  0.1064
 6998TIP3    H142485   4.524   6.651  12.475  0.7924 -0.9876 -0.0739
 6998TIP3    H242486   4.620   6.765  12.448  0.1627 -0.4053  0.1093
 6999TIP3   OH242487   0.267   1.166  15.587 -0.0835  0.0819 -0.2893
 6999TIP3    H142488   0.255   1.259  15.566  1.1803  0.5151  0.7880
 6999TIP3    H242489   0.274   1.124  15.502 -1.2600  0.8791 -0.8067
 7000TIP3   OH242490   1.597   1.138   5.105  0.4047 -0.9036  0.7971
 7000TIP3    H142491   1.616   1.230   5.120  0.1231 -0.1458 -2.6493
 7000TIP3    H242492   1.675   1.092   5.137  1.9521  0.8377 -0.2819
 7001TIP3   OH242493   3.043   0.380   6.066 -0.1966  0.2022 -0.0056
 7001TIP3    H142494   3.121   0.335   6.099 -0.3199 -0.5704 -0.7599
 7001TIP3    H242495   2.975   0.313   6.068 -0.2390  0.1566 -1.7109
 7002TIP3   OH242496   3.654   4.265   4.313 -0.1348 -0.0333  0.4518
 7002TIP3    H142497   3.741   4.225   4.313 -0.5609 -0.9963  0.1350
 7002TIP3    H242498   3.661   4.338   4.252 -0.2076 -1.6596 -1.6047
 7003TIP3   OH242499   3.801   5.115  14.334 -0.5394  0.2318  0.6263
 7003TIP3    H142500   3.805   5.020  14.345 -4.8799 -0.2810 -0.3475
 7003TIP3    H242501   3.838   5.131  14.247 -0.7105 -0.7142  0.3663
 7004TIP3   OH242502   6.802   5.232   2.004 -0.0815 -0.2104 -0.2164
 7004TIP3    H142503   6.883   5.284   2.012 -0.5162  0.4305  0.0985
 7004TIP3    H242504   6.832   5.144   1.981  0.7034  0.0425 -0.1852
 7005TIP3   OH242505   3.442   1.848   0.088 -0.1760  0.1322 -0.5346
 7005TIP3    H142506   3.425   1.913   0.156 -0.1507  0.4663 -0.8489
 7005TIP3    H242507   3.357   1.830   0.049  0.0537  1.2751 -1.6230
 7006TIP3   OH242508   4.451   5.247  11.349 -0.5836  0.3998 -0.1503
 7006TIP3    H142509   4.501   5.218  11.273  0.5861  0.7643  0.4571
 7006TIP3    H242510   4.363   5.262  11.315 -0.2813 -0.1915 -1.2640
 7007TIP3   OH242511   2.520   3.891  12.508  0.1911  0.6015 -0.3880
 7007TIP3    H142512   2.554   3.803  12.520 -0.1617  0.3960 -0.8473
 7007TIP3    H242513   2.557   3.919  12.424 -1.3971  0.0564 -1.3108
 7008TIP3   OH242514   1.159   6.761  13.377 -0.4693 -0.3186 -0.4159
 7008TIP3    H142515   1.190   6.778  13.288 -2.7682 -2.0147 -1.6441
 7008TIP3    H242516   1.236   6.726  13.423  0.3716 -0.8988 -2.1969
 7009TIP3   OH242517   5.060   1.041   0.419  0.0220 -0.3500  0.5768
 7009TIP3    H142518   4.995   1.055   0.349 -0.0125 -1.2562  0.4204
 7009TIP3    H242519   5.145   1.048   0.374  0.1024  1.7918  0.9471
 7010TIP3   OH242520   6.482   1.859   1.142  0.5811  0.4820 -0.8179
 7010TIP3    H142521   6.414   1.914   1.180  0.4104  0.6358 -1.3422
 7010TIP3    H242522   6.499   1.896   1.055  0.9683  0.1371 -0.8976
 7011TIP3   OH242523   5.292   3.509   4.647 -0.1405 -0.6133 -0.0280
 7011TIP3    H142524   5.286   3.416   4.671 -1.3150 -0.4983  0.1824
 7011TIP3    H242525   5.261   3.512   4.557  0.8529 -0.5444 -0.3842
 7012TIP3   OH242526   3.055   6.058   2.077  0.6548 -0.6043 -0.0240
 7012TIP3    H142527   2.979   6.017   2.035 -0.0754  0.1359  0.5444
 7012TIP3    H242528   3.108   6.090   2.004 -0.5685  0.6156 -0.4311
 7013TIP3   OH242529   0.182   4.956  14.646  0.2530  0.4267 -0.2100
 7013TIP3    H142530   0.243   4.969  14.719  0.0885  0.3878 -0.0663
 7013TIP3    H242531   0.171   5.043  14.608 -0.2717  0.5805  0.2929
 7014TIP3   OH242532   5.004   6.045   0.790  0.5635 -0.3261 -0.1870
 7014TIP3    H142533   4.936   6.002   0.842 -0.3231  0.4276 -0.7027
 7014TIP3    H242534   5.086   6.008   0.823 -0.1274 -1.8678 -0.1186
 7015TIP3   OH242535   1.560   0.134   5.000 -0.0985 -0.0813  0.2468
 7015TIP3    H142536   1.598   0.118   5.086 -2.2538  0.8416  1.4536
 7015TIP3    H242537   1.568   0.229   4.987  0.2790 -0.2179 -0.6293
 7016TIP3   OH242538   0.489   5.276  12.510 -0.4305 -0.3815 -0.0855
 7016TIP3    H142539   0.399   5.303  12.529 -0.7402 -1.7782  0.5341
 7016TIP3    H242540   0.539   5.357  12.513 -1.3223  0.1612  1.6155
 7017TIP3   OH242541   2.783   3.793  15.997 -0.2645 -0.2399  0.2209
 7017TIP3    H142542   2.833   3.772  16.075 -0.2405  0.1317  0.3060
 7017TIP3    H242543   2.701   3.743  16.006 -0.7945  0.7625  1.0808
 7018TIP3   OH242544   5.404   4.575  13.678 -0.1322 -0.5334 -0.0846
 7018TIP3    H142545   5.368   4.590  13.765  0.1305  1.9182 -0.3316
 7018TIP3    H242546   5.481   4.632  13.674  1.5713 -2.7663 -0.9369
 7019TIP3   OH242547   6.361   4.581   2.814 -0.1760  0.1967 -0.2968
 7019TIP3    H142548   6.344   4.542   2.729 -0.3398  1.5559 -0.9141
 7019TIP3    H242549   6.405   4.512   2.864  0.4350 -0.4357 -1.6607
 7020TIP3   OH242550   3.680   5.581  14.461 -0.0985 -0.5235 -0.1432
 7020TIP3    H142551   3.687   5.486  14.456 -1.0051 -0.7311  1.5428
 7020TIP3    H242552   3.676   5.599  14.555 -0.8335  1.0950 -0.4519
 7021TIP3   OH242553   0.515   0.002  12.618  0.4600  0.2373  0.3820
 7021TIP3    H142554   0.459   0.075  12.642 -0.7877 -0.5674  0.0403
 7021TIP3    H242555   0.509  -0.058  12.692 -2.5765 -1.7807 -1.2724
 7022TIP3   OH242556   6.033   4.372   6.286  0.4367 -0.0570 -0.1873
 7022TIP3    H142557   6.023   4.368   6.191 -0.3068  1.4842 -0.1980
 7022TIP3    H242558   5.948   4.401   6.318  0.7280 -0.3925  0.9491
 7023TIP3   OH242559   0.855   0.863  15.704 -0.4996  0.0555  0.0404
 7023TIP3    H142560   0.898   0.832  15.625  0.2858 -1.0334  0.8724
 7023TIP3    H242561   0.829   0.784  15.751 -1.6862  0.6863  0.4941
 7024TIP3   OH242562   2.481   4.667   3.238  0.1964 -0.3717 -0.0565
 7024TIP3    H142563   2.393   4.630   3.231 -0.5978  1.1722  1.1966
 7024TIP3    H242564   2.475   4.732   3.308  1.1261  3.0374 -2.8346
 7025TIP3   OH242565   3.176   1.025   0.472  0.0462  0.0645  0.3184
 7025TIP3    H142566   3.153   0.934   0.454 -1.5944  0.0256  2.2545
 7025TIP3    H242567   3.263   1.036   0.434 -0.5987 -1.6500 -1.8867
 7026TIP3   OH242568   2.732   2.659   4.248 -0.6901  0.0592 -0.6900
 7026TIP3    H142569   2.682   2.596   4.299 -0.8041  1.0721  0.5053
 7026TIP3    H242570   2.670   2.730   4.231 -0.3385  0.2277 -1.3150
 7027TIP3   OH242571   2.936   0.327   6.355 -0.3864 -0.4602 -0.0287
 7027TIP3    H142572   2.958   0.419   6.344 -2.2411 -0.2772 -3.8532
 7027TIP3    H242573   3.009   0.279   6.317 -0.3400 -0.4839  0.0890
 7028TIP3   OH242574   5.186   2.302   5.701 -0.1480  0.0654  0.3932
 7028TIP3    H142575   5.265   2.312   5.754  0.4122 -1.6453 -0.0780
 7028TIP3    H242576   5.132   2.378   5.724  1.8138  1.5322  0.3685
 7029TIP3   OH242577   0.383   6.309   0.930 -0.0502 -0.3767  0.0177
 7029TIP3    H142578   0.322   6.325   0.858 -0.8444  2.0744  1.1578
 7029TIP3    H242579   0.462   6.357   0.905  0.0978 -0.5008  0.2456
 7030TIP3   OH242580   1.392   1.090  11.210 -0.4015 -0.1852  0.2408
 7030TIP3    H142581   1.407   1.166  11.154  0.2361 -0.5547 -0.0869
 7030TIP3    H242582   1.328   1.122  11.275  0.5271  0.9109  0.6688
 7031TIP3   OH242583   3.811   1.563  12.982  0.3289  0.1389 -0.2258
 7031TIP3    H142584   3.732   1.530  13.024  0.9026 -0.6874  0.2489
 7031TIP3    H242585   3.877   1.494  12.998  2.2994  2.4633  2.9568
 7032TIP3   OH242586   0.934   4.031   6.133 -0.0132  0.3704 -0.2603
 7032TIP3    H142587   0.993   3.957   6.151 -0.3066  0.3542  0.6315
 7032TIP3    H242588   0.855   4.013   6.184  0.6929  2.3342  1.7039
 7033TIP3   OH242589   0.282   3.764   2.621 -0.4798 -0.0873  0.6893
 7033TIP3    H142590   0.224   3.745   2.695 -0.3253  2.2813  1.5089
 7033TIP3    H242591   0.342   3.690   2.618 -1.1370 -0.7358  2.2796
 7034TIP3   OH242592   1.026   0.926  13.615 -0.0826 -0.0506  0.6804
 7034TIP3    H142593   1.077   0.886  13.686 -0.9394  0.1527  1.4326
 7034TIP3    H242594   1.069   0.897  13.535 -1.5335 -3.8398  1.0656
 7035TIP3   OH242595   5.228   6.264  15.490 -0.0423 -0.0975 -0.2297
 7035TIP3    H142596   5.323   6.271  15.499 -0.2379  1.0446  1.6699
 7035TIP3    H242597   5.213   6.175  15.460  1.5852 -0.8455  0.9954
 7036TIP3   OH242598   4.243   2.115   1.553  0.2326 -0.1091  0.1821
 7036TIP3    H142599   4.153   2.147   1.560  0.5156  1.6657 -2.6573
 7036TIP3    H242600   4.239   2.051   1.483  1.0456 -0.7241  0.6907
 7037TIP3   OH242601   4.821   0.883  11.460 -0.1754 -0.2896 -0.1208
 7037TIP3    H142602   4.768   0.878  11.539  1.2447 -0.6797  0.8485
 7037TIP3    H242603   4.875   0.804  11.463  2.8717  1.6412  0.7663
 7038TIP3   OH242604   5.510   5.887   4.598  0.5396 -0.4146 -0.8415
 7038TIP3    H142605   5.446   5.862   4.532 -0.7616 -1.0017  0.5688
 7038TIP3    H242606   5.463   5.946   4.656  1.3483 -0.6544  0.0995
 7039TIP3   OH242607   0.656   3.404  12.595 -0.0298 -0.1229  0.4960
 7039TIP3    H142608   0.721   3.336  12.576 -0.6367 -0.8781  1.0729
 7039TIP3    H242609   0.673   3.429  12.686 -0.9727 -0.8081  0.8693
 7040TIP3   OH242610   1.640   4.388  14.521  0.1009 -0.5221  0.5321
 7040TIP3    H142611   1.726   4.348  14.508 -0.4280 -1.9138  1.0232
 7040TIP3    H242612   1.623   4.377  14.615 -0.7115 -0.5057  0.3957
 7041TIP3   OH242613   4.340   4.249  14.941 -0.0635  0.4139 -0.0028
 7041TIP3    H142614   4.300   4.194  14.874  0.8923  0.3264 -0.5076
 7041TIP3    H242615   4.434   4.235  14.932  0.2398  2.3667 -0.3629
 7042TIP3   OH242616   3.118   4.591  15.818  0.6388 -0.3172  0.4546
 7042TIP3    H142617   3.025   4.609  15.805  0.6226  0.3856  1.4561
 7042TIP3    H242618   3.159   4.677  15.824  1.7266 -0.5450 -2.1413
 7043TIP3   OH242619   6.111   1.040   5.152  0.4506 -0.4284  0.4472
 7043TIP3    H142620   6.147   0.965   5.201  0.6003 -0.7141 -0.0911
 7043TIP3    H242621   6.175   1.110   5.165  1.1042 -0.8668 -0.3153
 7044TIP3   OH242622   5.069   1.196   6.150  0.2413 -0.3375 -0.0124
 7044TIP3    H142623   5.044   1.104   6.160  0.1192 -0.3667 -0.5485
 7044TIP3    H242624   4.994   1.236   6.106  0.1599  0.0925  0.5074
 7045TIP3   OH242625   4.427   1.636  15.350  0.3860  0.5027  0.1023
 7045TIP3    H142626   4.375   1.608  15.275 -0.7254  1.8053  0.3521
 7045TIP3    H242627   4.504   1.678  15.311 -0.1967  1.2012 -0.3145
 7046TIP3   OH242628   5.284   1.210  14.754 -0.1713 -0.2153  0.3077
 7046TIP3    H142629   5.254   1.130  14.797  0.1534 -0.3044  0.3734
 7046TIP3    H242630   5.204   1.252  14.722 -0.3059 -0.7939 -0.1236
 7047TIP3   OH242631   4.960   2.289   5.470 -0.1015 -0.4442  0.0954
 7047TIP3    H142632   4.934   2.260   5.557 -0.3552  0.0920  0.2043
 7047TIP3    H242633   5.048   2.324   5.481 -0.4763  0.4571  0.3276
 7048TIP3   OH242634   2.118   2.797   5.137 -0.1799 -0.0937 -0.3900
 7048TIP3    H142635   2.048   2.788   5.072  0.2339  1.0608 -1.0252
 7048TIP3    H242636   2.125   2.892   5.151 -1.1917 -0.3316  2.3941
 7049TIP3   OH242637   5.972   5.555   4.232 -0.1085  0.0901 -0.0844
 7049TIP3    H142638   5.899   5.494   4.238 -0.7782  0.7480 -1.1135
 7049TIP3    H242639   5.944   5.619   4.166  1.2136  0.6098 -0.1759
 7050TIP3   OH242640   0.905   3.767   1.785 -0.2721  0.0899  0.7887
 7050TIP3    H142641   0.979   3.749   1.843 -1.3259 -0.5023  2.0114
 7050TIP3    H242642   0.876   3.855   1.809  2.1217  1.8581 -2.1185
 7051TIP3   OH242643   1.547   6.315  14.343 -0.5021  0.0241 -0.4233
 7051TIP3    H142644   1.530   6.379  14.274 -0.8619  2.1909  1.5382
 7051TIP3    H242645   1.461   6.289  14.374 -0.3441 -0.5877 -0.4922
 7052TIP3   OH242646   1.225   1.358   3.732  0.3049  0.7295 -0.3354
 7052TIP3    H142647   1.266   1.426   3.784  0.0608 -0.1119  0.9935
 7052TIP3    H242648   1.179   1.405   3.662  0.2914  1.9080  0.4514
 7053TIP3   OH242649   1.956   2.400   1.642 -0.0329  0.5749  0.2482
 7053TIP3    H142650   1.907   2.393   1.723 -1.9947 -0.4328 -0.9513
 7053TIP3    H242651   1.894   2.373   1.574  2.4212 -1.6335 -1.2987
 7054TIP3   OH242652   3.445   1.280   1.390  0.0232 -0.0621  0.3692
 7054TIP3    H142653   3.376   1.290   1.456  0.6558 -2.5870  1.5272
 7054TIP3    H242654   3.520   1.248   1.439  0.4892 -2.1935 -1.5780
 7055TIP3   OH242655   3.569   1.280  13.337  0.6896 -0.6330  0.0051
 7055TIP3    H142656   3.576   1.220  13.411  0.2155  0.1845  0.7277
 7055TIP3    H242657   3.540   1.362  13.375 -0.5768 -0.4805 -1.2274
 7056TIP3   OH242658   3.779   4.187   4.652  0.3875 -0.0267  0.6719
 7056TIP3    H142659   3.792   4.235   4.734  1.0292  1.8448 -0.4745
 7056TIP3    H242660   3.851   4.216   4.595 -0.2091 -1.0595 -0.6608
 7057TIP3   OH242661   0.814   6.180  14.721  0.6476 -0.2341  0.3841
 7057TIP3    H142662   0.769   6.095  14.718  1.6416 -0.7948  0.8180
 7057TIP3    H242663   0.766   6.230  14.787  0.8064 -0.9176  1.0390
 7058TIP3   OH242664   2.488   5.803   5.852 -0.2615 -0.3715 -0.5767
 7058TIP3    H142665   2.525   5.816   5.939  2.1885 -1.3523 -1.4065
 7058TIP3    H242666   2.395   5.785   5.869 -0.4157  1.8896  1.6103
 7059TIP3   OH242667   1.365   2.152  13.872 -0.0095  0.0094  0.1607
 7059TIP3    H142668   1.321   2.127  13.791  1.3981 -1.2907 -0.2613
 7059TIP3    H242669   1.408   2.235  13.851 -1.0810  0.5809  0.1542
 7060TIP3   OH242670   5.913   2.315  12.238  0.6341 -0.1302  0.0823
 7060TIP3    H142671   5.828   2.343  12.271 -0.0808  1.6539 -2.8792
 7060TIP3    H242672   5.976   2.370  12.283 -0.0533  0.6039  0.1645
 7061TIP3   OH242673   3.838   6.463   5.661  0.1150  0.4400 -1.0121
 7061TIP3    H142674   3.747   6.434   5.655  0.1778 -0.7325  1.8743
 7061TIP3    H242675   3.854   6.509   5.579 -1.9661 -2.3726 -3.2123
 7062TIP3   OH242676   0.238   1.282   2.673  0.0813 -0.0836 -0.0402
 7062TIP3    H142677   0.180   1.353   2.645  0.1604 -0.1146 -0.2869
 7062TIP3    H242678   0.193   1.241   2.747 -1.0936 -1.2754 -1.3768
 7063TIP3   OH242679   5.579   4.620  14.955 -0.5769 -0.4624  0.2442
 7063TIP3    H142680   5.503   4.629  14.897  0.2952  1.7236 -0.6738
 7063TIP3    H242681   5.644   4.572  14.903 -0.9708 -1.5301  0.7034
 7064TIP3   OH242682   0.322   5.143   2.259  0.3471  0.2903 -0.0582
 7064TIP3    H142683   0.290   5.057   2.287  0.8419  0.0472 -0.2115
 7064TIP3    H242684   0.318   5.197   2.338 -0.3721  0.2485 -0.0648
 7065TIP3   OH242685   1.724   1.118   2.373  0.6195 -0.2194 -0.4984
 7065TIP3    H142686   1.803   1.119   2.427 -0.3150  0.9289  0.9025
 7065TIP3    H242687   1.737   1.187   2.309  0.5986  0.2200 -0.0311
 7066TIP3   OH242688   4.619   4.575   2.729 -0.7438  0.2359  0.3288
 7066TIP3    H142689   4.536   4.559   2.684 -1.0862  0.4857  0.8687
 7066TIP3    H242690   4.627   4.670   2.733 -0.9800  0.2212  1.2756
 7067TIP3   OH242691   5.010   1.859   4.215  0.1351 -0.2031  0.3468
 7067TIP3    H142692   4.960   1.782   4.189 -1.8376  0.6142  1.5286
 7067TIP3    H242693   4.970   1.931   4.167 -1.3225  0.7955  2.8584
 7068TIP3   OH242694   2.021   4.868   3.272 -0.8335  0.1023 -0.0012
 7068TIP3    H142695   1.992   4.794   3.325  3.4502  0.5039  3.4337
 7068TIP3    H242696   2.068   4.829   3.199 -1.0923 -0.5333  0.1676
 7069TIP3   OH242697   1.586   0.943  12.978  0.1587  0.3202 -0.3743
 7069TIP3    H142698   1.595   0.910  12.889  0.4150  0.8667 -0.5502
 7069TIP3    H242699   1.592   0.864  13.033 -0.8300 -0.1199 -0.8769
 7070TIP3   OH242700   5.487   3.344  12.153 -0.6542 -0.1818  0.2912
 7070TIP3    H142701   5.534   3.262  12.169  0.3701  0.5730  1.3316
 7070TIP3    H242702   5.468   3.342  12.059  0.1022 -1.2320  0.1382
 7071TIP3   OH242703   2.330   0.357   2.246 -0.3159  0.6672 -0.4862
 7071TIP3    H142704   2.391   0.305   2.193 -1.1270  0.4353 -1.2049
 7071TIP3    H242705   2.326   0.310   2.329 -1.7785 -1.0191 -1.4488
 7072TIP3   OH242706   1.541   6.824   0.191 -0.8435 -0.0142  0.0473
 7072TIP3    H142707   1.448   6.821   0.168 -0.5772  0.4388 -1.1286
 7072TIP3    H242708   1.586   6.785   0.116  0.0840  1.9109 -0.4576
 7073TIP3   OH242709   1.242   2.566   6.072  0.2016 -0.7085 -0.2752
 7073TIP3    H142710   1.169   2.627   6.058  0.0789 -0.4130  1.4016
 7073TIP3    H242711   1.319   2.612   6.038 -0.0868 -0.1577 -0.1903
 7074TIP3   OH242712   6.708   4.399   4.435 -0.1384 -0.8467  0.0108
 7074TIP3    H142713   6.793   4.354   4.430  1.1530  1.5634 -2.1437
 7074TIP3    H242714   6.648   4.342   4.387  0.7514 -1.5740 -0.2760
 7075TIP3   OH242715   0.766   5.538   2.805 -0.1477 -0.4675 -0.3884
 7075TIP3    H142716   0.831   5.566   2.870 -0.4248 -0.0497 -0.2859
 7075TIP3    H242717   0.795   5.451   2.778 -0.7855 -1.2532  1.2998
 7076TIP3   OH242718   2.308   1.919  15.707 -0.3562 -0.0607 -0.2997
 7076TIP3    H142719   2.323   1.897  15.615 -0.6602  0.7979 -0.5660
 7076TIP3    H242720   2.314   1.836  15.753  0.0968 -0.4569 -1.0586
 7077TIP3   OH242721   4.104   2.314  15.156  0.1364  0.6014 -0.5302
 7077TIP3    H142722   4.013   2.287  15.160 -0.2403  1.8462 -0.3066
 7077TIP3    H242723   4.154   2.236  15.181 -0.8749  0.0125 -0.3145
 7078TIP3   OH242724   6.341   3.674   2.679 -0.2054  0.4345 -0.4580
 7078TIP3    H142725   6.343   3.758   2.633  1.0884  0.9623  0.5152
 7078TIP3    H242726   6.250   3.664   2.706 -0.4478  1.3424 -0.8921
 7079TIP3   OH242727   1.441   2.504   2.881 -0.0427  0.2547  0.2904
 7079TIP3    H142728   1.381   2.429   2.885  1.6585 -1.2053 -0.0964
 7079TIP3    H242729   1.461   2.514   2.788  1.8211 -0.6247  0.5430
 7080TIP3   OH242730   3.767   3.324   5.712  0.0964 -0.1140  0.5162
 7080TIP3    H142731   3.770   3.387   5.784  1.6564  0.7285 -0.2274
 7080TIP3    H242732   3.720   3.370   5.642 -1.0316 -0.7689  0.8130
 7081TIP3   OH242733   6.738   2.355   3.712 -0.2202 -0.0384  0.0598
 7081TIP3    H142734   6.706   2.307   3.636 -0.2150 -1.6981  1.0654
 7081TIP3    H242735   6.692   2.439   3.708 -0.3629 -0.1603 -1.6488
 7082TIP3   OH242736   2.495   2.623   3.642 -0.6401  0.1991 -0.2204
 7082TIP3    H142737   2.430   2.569   3.597  0.8060 -0.6994 -1.3006
 7082TIP3    H242738   2.499   2.703   3.590  1.7656 -1.2302 -2.4934
 7083TIP3   OH242739   5.288   6.628  13.946  0.9262  0.6779 -0.1090
 7083TIP3    H142740   5.356   6.578  13.992  0.1159  0.1083  0.5070
 7083TIP3    H242741   5.235   6.666  14.017 -0.2858 -0.1252 -0.5497
 7084TIP3   OH242742   5.440   3.655  12.128 -0.3528  0.9112 -0.4642
 7084TIP3    H142743   5.468   3.564  12.113 -0.0455  0.9495 -0.1400
 7084TIP3    H242744   5.404   3.655  12.216  0.0903  1.2038 -0.2766
 7085TIP3   OH242745   5.844   6.741   0.880  0.2494 -0.5853 -0.3667
 7085TIP3    H142746   5.759   6.778   0.904  0.7269  0.8397 -0.7984
 7085TIP3    H242747   5.906   6.778   0.943  1.1276  1.3465 -2.2281
 7086TIP3   OH242748   6.179   1.547  16.455 -0.2089  0.1778  0.2703
 7086TIP3    H142749   6.203   1.471  16.508 -2.2214 -2.0341 -1.7450
 7086TIP3    H242750   6.095   1.576  16.491 -1.1094 -0.7389 -0.9807
 7087TIP3   OH242751   4.199   3.898  14.327 -0.9136  0.5428  0.6952
 7087TIP3    H142752   4.158   3.838  14.264 -1.7611  0.3297  1.4221
 7087TIP3    H242753   4.260   3.949  14.275 -0.6711 -0.4830 -0.0726
 7088TIP3   OH242754   4.591   5.737  14.580  0.2327 -0.0636 -0.1020
 7088TIP3    H142755   4.672   5.786  14.595  1.1620 -1.4945 -0.2269
 7088TIP3    H242756   4.579   5.685  14.660 -1.3461  1.1436  0.5000
 7089TIP3   OH242757   3.608   3.614  11.345 -0.1627 -0.6568 -0.5136
 7089TIP3    H142758   3.578   3.692  11.298  2.6134  2.4844  2.3529
 7089TIP3    H242759   3.542   3.600  11.412  0.3199  0.7018  0.2956
 7090TIP3   OH242760   4.339   3.720   5.107 -0.1932  0.1603 -0.6470
 7090TIP3    H142761   4.276   3.651   5.087  0.4322 -1.6780  2.9293
 7090TIP3    H242762   4.424   3.676   5.107  0.0772  0.3745  3.2109
 7091TIP3   OH242763   1.373   4.799  17.034 -0.1673 -0.0363 -0.4610
 7091TIP3    H142764   1.280   4.816  17.017 -0.5085 -2.6078 -1.6424
 7091TIP3    H242765   1.375   4.710  17.069  1.9646 -0.7585 -2.2164
 7092TIP3   OH242766   5.453   2.478  15.230 -0.0710 -1.3035 -0.1361
 7092TIP3    H142767   5.496   2.412  15.284 -3.6373 -2.4370  1.6416
 7092TIP3    H242768   5.467   2.560  15.276  0.2830 -1.6277  0.3460
 7093TIP3   OH242769   6.683   2.117  14.224  0.0172  0.1567  0.4187
 7093TIP3    H142770   6.776   2.107  14.245  0.5078 -0.8812 -1.9026
 7093TIP3    H242771   6.637   2.065  14.289  1.3325 -1.9553 -0.2547
 7094TIP3   OH242772   1.827   2.922   3.659  0.1321 -0.2196  0.4591
 7094TIP3    H142773   1.793   2.849   3.711  3.3427  0.8087  4.6027
 7094TIP3    H242774   1.771   2.996   3.683  0.3027 -0.2021  0.8213
 7095TIP3   OH242775   4.497   6.708  16.882  0.1151  0.1705  0.3729
 7095TIP3    H142776   4.526   6.777  16.823 -0.5754  0.7309  0.6773
 7095TIP3    H242777   4.538   6.728  16.966 -0.9390  0.8457  0.7480
 7096TIP3   OH242778   0.213   6.224  13.533 -0.3678 -0.0114  0.4923
 7096TIP3    H142779   0.307   6.216  13.551  0.1363 -0.9187 -2.1023
 7096TIP3    H242780   0.203   6.313  13.499 -0.2198 -0.2854 -0.2879
 7097TIP3   OH242781   3.185   5.065  16.690  0.1026  0.4651 -0.2586
 7097TIP3    H142782   3.132   5.099  16.763 -0.1446  0.9190 -0.6409
 7097TIP3    H242783   3.145   5.104  16.612  1.0439  0.8707 -0.5502
 7098TIP3   OH242784   6.051   4.528   2.514 -0.2469  0.7576 -0.6561
 7098TIP3    H142785   6.013   4.546   2.428 -1.3682  1.2405 -0.0754
 7098TIP3    H242786   5.988   4.562   2.576  0.4112  0.1507  0.3818
 7099TIP3   OH242787   2.253   5.500   1.723  0.4502  0.0064  0.1561
 7099TIP3    H142788   2.219   5.507   1.634  0.5276  0.2624  0.1482
 7099TIP3    H242789   2.180   5.463   1.773 -0.5376  2.3386  0.5483
 7100TIP3   OH242790   4.447   4.985  15.703  0.3288 -0.0028 -0.1436
 7100TIP3    H142791   4.541   4.990  15.719  0.2011  1.8222  0.2631
 7100TIP3    H242792   4.421   5.075  15.685 -1.5158 -0.3073  0.7515
 7101TIP3   OH242793   1.758   5.217   3.222  0.2358  1.0184  0.1677
 7101TIP3    H142794   1.743   5.149   3.287  0.3189  2.5482  1.8885
 7101TIP3    H242795   1.670   5.253   3.205  0.0111 -0.2526 -1.6724
 7102TIP3   OH242796   2.876   5.373   1.241 -0.6304  0.0120 -0.0985
 7102TIP3    H142797   2.794   5.408   1.206 -1.1585 -3.2211 -2.5357
 7102TIP3    H242798   2.929   5.355   1.163  1.3759 -0.2877  1.2858
 7103TIP3   OH242799   3.631   4.470   3.469  0.3458 -0.3209 -0.4627
 7103TIP3    H142800   3.705   4.409   3.464 -0.6464 -1.5892 -0.1518
 7103TIP3    H242801   3.555   4.417   3.447 -0.5980  0.7354  0.1629
 7104TIP3   OH242802   6.423   6.367  12.081 -1.0119 -0.4700 -0.3846
 7104TIP3    H142803   6.474   6.296  12.121 -0.8847  0.5761  1.3671
 7104TIP3    H242804   6.367   6.322  12.018 -0.0599 -1.9857 -0.2215
 7105TIP3   OH242805   2.238   1.124  13.083 -0.0073 -0.8300 -0.0907
 7105TIP3    H142806   2.230   1.071  13.162 -1.7052 -3.6255 -1.9969
 7105TIP3    H242807   2.187   1.203  13.103 -1.4443 -2.0110  1.1945
 7106TIP3   OH242808   2.702   1.503  14.901 -0.3195  0.5411 -0.4534
 7106TIP3    H142809   2.793   1.499  14.873 -0.2690 -0.1171 -0.2070
 7106TIP3    H242810   2.695   1.586  14.949  0.7860 -0.5013  1.6557
 7107TIP3   OH242811   2.271   6.403   2.454  0.5476  0.0347  0.1563
 7107TIP3    H142812   2.273   6.335   2.521 -1.7054 -0.5681 -0.2899
 7107TIP3    H242813   2.353   6.391   2.405 -0.8025 -4.1718 -1.5583
 7108TIP3   OH242814   1.268   0.402  16.117 -0.3401 -0.0520  0.2539
 7108TIP3    H142815   1.219   0.326  16.086  0.9154 -0.9363  0.3696
 7108TIP3    H242816   1.237   0.474  16.062 -2.1896 -0.4445  0.7389
 7109TIP3   OH242817   3.016   2.366  10.649  0.0721  0.5373 -0.1012
 7109TIP3    H142818   2.955   2.393  10.718 -1.6447 -1.7002 -0.6543
 7109TIP3    H242819   3.019   2.441  10.590  0.8614  2.1448  1.8632
 7110TIP3   OH242820   6.045   0.317  16.181 -0.4219 -0.0608  0.3590
 7110TIP3    H142821   6.072   0.364  16.102  1.7660  0.8993  1.6028
 7110TIP3    H242822   6.111   0.249  16.192 -0.4479  0.1032  1.6065
 7111TIP3   OH242823   5.767   3.908   2.416  0.0779 -0.2667 -0.0789
 7111TIP3    H142824   5.710   3.893   2.492 -0.6112 -1.6766 -0.8312
 7111TIP3    H242825   5.793   4.000   2.423 -1.2454  0.0607  0.9991
 7112TIP3   OH242826   0.971   2.982  14.895  0.1900  0.0119  0.1450
 7112TIP3    H142827   0.959   3.077  14.901 -0.5845 -0.0795  0.0791
 7112TIP3    H242828   0.882   2.946  14.895  0.4366 -0.6565 -0.8464
 7113TIP3   OH242829   2.482   3.208   0.271 -0.0309  0.3046  0.2335
 7113TIP3    H142830   2.573   3.209   0.241 -0.1758 -0.5576 -0.2730
 7113TIP3    H242831   2.476   3.281   0.332  0.2980  2.0716 -1.7568
 7114TIP3   OH242832   3.074   1.268   2.371  0.5218  0.5787  0.2537
 7114TIP3    H142833   3.110   1.356   2.362  1.9377 -0.1035 -1.1005
 7114TIP3    H242834   3.122   1.230   2.445  1.2018  0.3492 -0.2960
 7115TIP3   OH242835   5.335   1.926  13.088 -0.6599  0.3398 -0.5591
 7115TIP3    H142836   5.306   1.911  12.998 -2.7956 -1.7528  0.3715
 7115TIP3    H242837   5.380   1.845  13.111  0.7163  1.2318  0.0028
 7116TIP3   OH242838   5.720   1.829  16.612  0.2140 -0.0630 -0.2954
 7116TIP3    H142839   5.747   1.914  16.647 -1.0904  1.3097 -2.4057
 7116TIP3    H242840   5.802   1.780  16.605  1.3331  1.7521 -0.8553
 7117TIP3   OH242841   1.487   3.096   1.948 -0.1357 -0.1468  0.1075
 7117TIP3    H142842   1.416   3.135   1.897 -0.8065  0.2707  1.3269
 7117TIP3    H242843   1.567   3.135   1.911 -0.6386  0.4525 -0.3677
 7118TIP3   OH242844   5.413   3.875  12.412 -0.3405 -0.3465  0.0315
 7118TIP3    H142845   5.496   3.902  12.373 -0.2176 -0.2046  0.3810
 7118TIP3    H242846   5.415   3.779  12.408  0.7378 -0.4427  1.8003
 7119TIP3   OH242847   1.741   5.846  16.277  0.0715  0.6643  0.4262
 7119TIP3    H142848   1.800   5.854  16.352  2.4289 -1.9243 -0.9641
 7119TIP3    H242849   1.695   5.763  16.291 -0.9976  1.1654 -0.0187
 7120TIP3   OH242850   3.274   6.144   5.683 -0.0413  0.3333 -0.2681
 7120TIP3    H142851   3.283   6.126   5.776 -1.7881 -0.4232 -0.2116
 7120TIP3    H242852   3.281   6.059   5.640 -0.1743  0.5583 -0.7505
 7121TIP3   OH242853   3.964   5.329   4.127 -0.3935 -0.9234  0.2033
 7121TIP3    H142854   4.040   5.272   4.126 -0.3440 -0.8890 -1.5174
 7121TIP3    H242855   3.900   5.285   4.072 -0.7061  0.1994 -0.3715
 7122TIP3   OH242856   0.816   2.005   1.865  0.1977  0.0499  0.2452
 7122TIP3    H142857   0.864   2.072   1.914  0.5050  0.1050 -0.1272
 7122TIP3    H242858   0.845   1.922   1.902  1.3354  0.0344 -0.6384
 7123TIP3   OH242859   3.428   3.646   2.123  0.3635 -0.3694 -0.3158
 7123TIP3    H142860   3.387   3.726   2.155  0.8829  0.0702 -0.7350
 7123TIP3    H242861   3.397   3.638   2.033  0.3160 -0.6400 -0.2757
 7124TIP3   OH242862   3.659   4.857  12.778  0.1883  0.5073  0.5984
 7124TIP3    H142863   3.747   4.842  12.745  0.4942  0.6788  1.3260
 7124TIP3    H242864   3.603   4.807  12.719  0.8483 -0.3369  0.6568
 7125TIP3   OH242865   1.017   0.159   0.388  0.0040 -0.5199  0.2085
 7125TIP3    H142866   1.045   0.123   0.472 -2.0550 -2.0842  0.2940
 7125TIP3    H242867   0.996   0.251   0.408 -0.9656 -0.9977  1.5861
 7126TIP3   OH242868   2.325   4.718  16.581 -0.3459  0.1611 -0.3539
 7126TIP3    H142869   2.395   4.770  16.541  0.9109 -1.2501 -0.0531
 7126TIP3    H242870   2.245   4.766  16.558  0.5184  0.7731 -2.4011
 7127TIP3   OH242871   1.616   5.122  15.662 -0.2375  0.5684 -0.0172
 7127TIP3    H142872   1.634   5.130  15.569  1.3929  1.7925  0.3559
 7127TIP3    H242873   1.525   5.094  15.667 -0.0372 -0.5885 -1.9751
 7128TIP3   OH242874   5.098   1.333  16.343 -0.2930 -0.7288  0.0965
 7128TIP3    H142875   5.068   1.278  16.271  2.1380  1.0269 -2.4913
 7128TIP3    H242876   5.189   1.309  16.357  0.2986  1.2847  0.1394
 7129TIP3   OH242877   4.685   2.452  15.316 -0.0220 -0.5671 -0.2178
 7129TIP3    H142878   4.740   2.426  15.242 -0.1799 -0.0707 -0.5075
 7129TIP3    H242879   4.596   2.429  15.289  0.0247 -1.2783  0.2107
 7130TIP3   OH242880   3.624   0.253  14.000  0.0022  0.4214 -0.5791
 7130TIP3    H142881   3.710   0.250  14.042 -0.0540  1.0016 -0.4137
 7130TIP3    H242882   3.561   0.252  14.072 -0.1004  1.0747 -0.6507
 7131TIP3   OH242883   6.229   2.655   4.460  0.0399  0.1238  0.1051
 7131TIP3    H142884   6.210   2.697   4.543  0.0986 -1.2232  0.8316
 7131TIP3    H242885   6.146   2.617   4.433  0.5663 -1.6898  0.8964
 7132TIP3   OH242886   5.961   3.460  14.821 -0.0806 -0.1840  0.4841
 7132TIP3    H142887   5.973   3.554  14.834 -2.5614  0.4519 -1.0863
 7132TIP3    H242888   6.028   3.420  14.876  0.8495  2.4745  1.4819
 7133TIP3   OH242889   0.384   5.986   2.406  0.4453  0.0275  0.1416
 7133TIP3    H142890   0.374   6.029   2.321  0.2146  0.5499  0.4318
 7133TIP3    H242891   0.336   5.903   2.397  0.3307  0.1291 -0.1999
 7134TIP3   OH242892   4.428   4.135  14.018  0.5209  0.8985 -0.1320
 7134TIP3    H142893   4.340   4.100  14.033  0.7011  0.5052  0.0113
 7134TIP3    H242894   4.413   4.226  13.994 -0.0396  0.4242 -1.7045
 7135TIP3   OH242895   4.657   4.842   5.439  0.8951 -0.3262 -0.3875
 7135TIP3    H142896   4.716   4.782   5.486  0.3874 -0.0928  0.5676
 7135TIP3    H242897   4.575   4.794   5.432  0.0491  0.7103  1.5898
 7136TIP3   OH242898   3.597   5.752  11.066 -0.1729  0.2594  0.3214
 7136TIP3    H142899   3.583   5.663  11.097  1.4122 -0.5388 -1.1151
 7136TIP3    H242900   3.553   5.755  10.981  0.3782  0.6185  0.0395
 7137TIP3   OH242901   3.392   0.618   3.738  0.4458  0.1394 -0.0507
 7137TIP3    H142902   3.341   0.616   3.657 -0.0544 -0.0751  0.2623
 7137TIP3    H242903   3.457   0.549   3.727 -0.4052 -0.7118  0.2322
 7138TIP3   OH242904   4.732   2.281   2.951  0.4336  0.0972  0.5552
 7138TIP3    H142905   4.685   2.216   2.899  0.7267  0.4364 -0.1362
 7138TIP3    H242906   4.771   2.340   2.887 -0.5458  1.4779  1.1860
 7139TIP3   OH242907   4.148   1.588  10.710 -0.0557 -0.1585  0.4939
 7139TIP3    H142908   4.159   1.679  10.681  0.4831 -0.6776 -0.9976
 7139TIP3    H242909   4.237   1.553  10.711 -0.2586 -0.6627  1.1129
 7140TIP3   OH242910   0.855   5.877   2.977  0.5280 -0.4426 -0.1815
 7140TIP3    H142911   0.870   5.855   3.069  2.8789 -0.0379 -0.3848
 7140TIP3    H242912   0.943   5.880   2.939 -0.1400  2.1762 -1.7860
 7141TIP3   OH242913   3.748   5.752  12.872 -0.3850 -0.4478  0.2818
 7141TIP3    H142914   3.720   5.844  12.876 -0.7070 -0.3002 -2.8134
 7141TIP3    H242915   3.719   5.722  12.786  2.5304 -2.5104 -0.1298
 7142TIP3   OH242916   2.238   0.870  11.059  0.3373  0.0304 -0.8194
 7142TIP3    H142917   2.330   0.895  11.060  0.7872 -1.3773  1.1896
 7142TIP3    H242918   2.226   0.824  10.976  0.7312  2.4032 -2.2601
 7143TIP3   OH242919   2.612   3.935   2.481  0.3540  0.0845  0.4540
 7143TIP3    H142920   2.585   4.027   2.480 -1.7485 -0.3946 -2.8353
 7143TIP3    H242921   2.670   3.926   2.405  1.8546 -1.0462  1.6656
 7144TIP3   OH242922   3.878   3.267  15.760  0.3507  0.2876  0.2403
 7144TIP3    H142923   3.961   3.271  15.712  0.5272  0.9313  0.5961
 7144TIP3    H242924   3.817   3.318  15.706  0.0734 -0.5144 -0.2243
 7145TIP3   OH242925   6.224   2.515   1.759  0.0927 -0.3444  0.3111
 7145TIP3    H142926   6.188   2.427   1.765  0.0252 -0.3720 -0.3958
 7145TIP3    H242927   6.289   2.519   1.829  0.6429 -1.2162 -0.1301
 7146TIP3   OH242928   6.260   1.198  11.108 -0.4295  0.2413 -0.1995
 7146TIP3    H142929   6.349   1.185  11.076 -0.5890 -1.9280  0.1244
 7146TIP3    H242930   6.263   1.282  11.154  2.5764 -1.5536  3.4177
 7147TIP3   OH242931   6.853   2.136   3.139  0.2994 -0.2156 -0.3354
 7147TIP3    H142932   6.930   2.193   3.139  1.1781 -1.3609 -0.3608
 7147TIP3    H242933   6.798   2.169   3.068  1.0436  0.2538 -0.7021
 7148TIP3   OH242934   3.582   6.079   5.811  0.0203 -0.0061  0.4618
 7148TIP3    H142935   3.553   6.154   5.760  1.1723  0.9789  1.1937
 7148TIP3    H242936   3.577   6.005   5.751 -0.7355  0.7274 -0.3975
 7149TIP3   OH242937   2.645   4.062  13.616  0.0899 -0.5342  0.4534
 7149TIP3    H142938   2.697   4.111  13.680  0.2684 -1.3094  0.9303
 7149TIP3    H242939   2.559   4.102  13.619  0.2748 -0.1501  0.7166
 7150TIP3   OH242940   5.335   3.047   0.214  0.2293  0.1159  0.1287
 7150TIP3    H142941   5.332   2.983   0.144  2.6069  0.1368 -0.0705
 7150TIP3    H242942   5.254   3.098   0.205  0.4988  0.1598 -2.6233
 7151TIP3   OH242943   3.996   2.586   1.413  0.4137 -0.1163 -0.1717
 7151TIP3    H142944   4.040   2.504   1.432  0.0782 -0.3033 -0.1795
 7151TIP3    H242945   3.903   2.567   1.426  0.3242  0.2336 -0.2713
 7152TIP3   OH242946   0.711   5.812  10.376 -0.2934 -0.3961 -0.2367
 7152TIP3    H142947   0.756   5.896  10.372 -0.3222 -0.3695  0.0116
 7152TIP3    H242948   0.645   5.817  10.307 -1.8556  0.6889  1.2722
 7153TIP3   OH242949   1.653   3.286   5.798 -0.1322 -0.2139 -0.1685
 7153TIP3    H142950   1.725   3.335   5.836  0.5688 -0.6744 -0.8759
 7153TIP3    H242951   1.577   3.309   5.852 -0.0360  2.3206 -1.0061
 7154TIP3   OH242952   1.829   2.525  16.183 -0.1145 -0.4818  0.1995
 7154TIP3    H142953   1.749   2.533  16.132 -0.4695 -0.9356  0.6708
 7154TIP3    H242954   1.801   2.537  16.274 -0.0068 -2.6544  0.5821
 7155TIP3   OH242955   1.764   3.925  10.762 -0.0991  0.4840 -0.2608
 7155TIP3    H142956   1.749   3.995  10.825  0.6171  2.3019 -2.0110
 7155TIP3    H242957   1.695   3.935  10.696 -1.5962 -2.1436  0.7422
 7156TIP3   OH242958   0.407   5.591  16.709 -0.0442  0.5325 -0.2552
 7156TIP3    H142959   0.370   5.503  16.704 -1.0191  0.9507 -0.6341
 7156TIP3    H242960   0.473   5.593  16.639  1.7753 -0.6693  1.2990
 7157TIP3   OH242961   3.662   5.384   0.938  0.2401  0.0862  0.2520
 7157TIP3    H142962   3.638   5.353   1.026  0.1744 -0.6089 -0.0006
 7157TIP3    H242963   3.751   5.352   0.925 -0.4448 -1.5573 -0.6955
 7158TIP3   OH242964   6.231   1.919   3.243 -0.7574 -0.3618  0.5143
 7158TIP3    H142965   6.206   1.832   3.274 -2.2036 -0.0438  0.3511
 7158TIP3    H242966   6.241   1.909   3.148  2.1259 -0.9927  0.8211
 7159TIP3   OH242967   3.963   1.812   5.092  0.0359  0.1102 -0.5849
 7159TIP3    H142968   3.891   1.780   5.038  0.3559 -0.7362 -0.5413
 7159TIP3    H242969   3.940   1.902   5.114 -0.7417  0.0214 -1.0172
 7160TIP3   OH242970   0.882   2.845   1.447  0.3700  0.3992 -0.4599
 7160TIP3    H142971   0.797   2.815   1.415 -0.1145  0.6957  0.5377
 7160TIP3    H242972   0.945   2.799   1.391 -0.4401  0.6657 -1.6328
 7161TIP3   OH242973   2.284   2.595  16.306 -0.0985 -0.0092  0.3299
 7161TIP3    H142974   2.323   2.524  16.255 -2.7213 -0.8664 -0.6779
 7161TIP3    H242975   2.320   2.675  16.268  0.1196 -0.7286 -1.0521
 7162TIP3   OH242976   5.623   3.150  14.360  0.4906  0.1546 -0.3762
 7162TIP3    H142977   5.669   3.107  14.432 -2.2810 -1.3381  0.6389
 7162TIP3    H242978   5.568   3.216  14.402 -0.0314  0.3128 -1.2806
 7163TIP3   OH242979   5.873   3.124  16.226  0.2546  0.0375 -0.0747
 7163TIP3    H142980   5.947   3.164  16.182  0.1960  0.6717  0.3948
 7163TIP3    H242981   5.798   3.180  16.205  0.2614  0.4634  0.9666
 7164TIP3   OH242982   3.088   5.341   1.406  0.1441 -0.3065  0.6466
 7164TIP3    H142983   3.011   5.326   1.351 -0.8003 -1.4008  2.2087
 7164TIP3    H242984   3.160   5.351   1.343 -1.2805  1.0476 -0.8602
 7165TIP3   OH242985   6.187   5.413   1.609 -0.1869 -0.6657  0.4523
 7165TIP3    H142986   6.277   5.445   1.613 -0.5156  0.3607 -0.0560
 7165TIP3    H242987   6.136   5.479   1.655 -0.5382 -1.8754  1.8577
 7166TIP3   OH242988   5.872   2.065   2.600  0.3943  0.5523  0.6520
 7166TIP3    H142989   5.838   1.998   2.659 -0.3582 -0.1451 -0.5313
 7166TIP3    H242990   5.796   2.094   2.549  0.6027  2.6552  1.4291
 7167TIP3   OH242991   2.370   1.417  15.241 -0.4488  0.2990 -0.1549
 7167TIP3    H142992   2.429   1.489  15.262 -0.0918  0.9272 -2.9444
 7167TIP3    H242993   2.423   1.338  15.255 -0.0460  0.6887  0.5566
 7168TIP3   OH242994   0.211   3.602  11.985 -0.1214  0.3082 -0.1528
 7168TIP3    H142995   0.289   3.641  11.945  1.2054  0.3901  2.3481
 7168TIP3    H242996   0.205   3.515  11.944  1.7323  0.0202  0.0881
 7169TIP3   OH242997   6.176   3.886  14.299  0.2099 -0.0642  0.6359
 7169TIP3    H142998   6.220   3.893  14.384 -1.5612 -0.0466  1.5917
 7169TIP3    H242999   6.122   3.808  14.306 -2.2708  1.5517  0.6908
 7170TIP3   OH243000   1.836   6.458  16.579  0.6104 -0.0158 -0.0201
 7170TIP3    H143001   1.744   6.434  16.567  0.2614  1.3292 -0.2307
 7170TIP3    H243002   1.835   6.525  16.648  1.2952  0.7266 -0.6997
 7171TIP3   OH243003   4.238   3.869   6.506 -0.2587 -0.2475 -0.0671
 7171TIP3    H143004   4.310   3.859   6.568  0.4411 -0.9393 -0.9788
 7171TIP3    H243005   4.229   3.964   6.495  0.1516 -0.1424  0.4593
 7172TIP3   OH243006   4.802   6.712   0.834  0.7009 -0.1421 -0.2291
 7172TIP3    H143007   4.744   6.723   0.759 -0.0426  1.7716  0.5426
 7172TIP3    H243008   4.743   6.700   0.909  1.2049  2.1920  0.6301
 7173TIP3   OH243009   1.410   1.602   0.740 -0.2537 -0.3149  0.2920
 7173TIP3    H143010   1.338   1.539   0.729  0.3117 -0.8145 -0.6751
 7173TIP3    H243011   1.447   1.582   0.826 -0.3132 -1.0636  0.1455
 7174TIP3   OH243012   2.618   4.375   5.370  0.1034  0.4881 -0.0838
 7174TIP3    H143013   2.694   4.327   5.404  0.4721  0.5698 -0.7628
 7174TIP3    H243014   2.599   4.441   5.436  1.6954  1.5886 -0.6575
 7175TIP3   OH243015   6.153   6.120   1.282 -0.0706  0.1376  0.2477
 7175TIP3    H143016   6.180   6.042   1.233 -1.5606 -0.1433 -0.1668
 7175TIP3    H243017   6.069   6.145   1.244  0.2755  1.8390  0.5265
 7176TIP3   OH243018   5.676   2.921  15.005  0.2535 -0.3794 -0.1468
 7176TIP3    H143019   5.591   2.893  15.039 -0.2161 -0.7222 -1.5444
 7176TIP3    H243020   5.706   2.847  14.953  0.9972  0.0868 -0.3860
 7177TIP3   OH243021   0.980   3.630  12.102  0.1499  0.0170 -0.0026
 7177TIP3    H143022   1.017   3.715  12.129 -0.0476 -0.6432  2.6902
 7177TIP3    H243023   0.885   3.644  12.104  0.1293  0.1268 -1.1326
 7178TIP3   OH243024   0.004   4.750  15.798  0.1413  0.2699  0.6356
 7178TIP3    H143025   0.018   4.828  15.851  2.5509 -0.8768  1.8413
 7178TIP3    H243026   0.092   4.720  15.776 -0.6843 -2.2633  0.4713
 7179TIP3   OH243027   0.577   0.130  13.520  0.6480 -0.0016  0.5900
 7179TIP3    H143028   0.606   0.121  13.610  0.4943 -1.1934  0.5405
 7179TIP3    H243029   0.652   0.102  13.468  0.0746 -1.3028  0.4175
 7180TIP3   OH243030   0.145   2.304  13.611 -0.2762 -0.2333  0.5967
 7180TIP3    H143031   0.153   2.332  13.520 -0.0644  1.2701  1.0446
 7180TIP3    H243032   0.088   2.370  13.651  1.3429  0.4002  2.0256
 7181TIP3   OH243033   1.029   0.149  16.296 -0.2120  0.2568 -0.4424
 7181TIP3    H143034   0.946   0.196  16.305  0.8860  1.9956  1.4395
 7181TIP3    H243035   1.051   0.121  16.385  1.8368  1.0412 -0.6402
 7182TIP3   OH243036   6.826   4.354  13.483 -0.3159  0.5253  0.2260
 7182TIP3    H143037   6.868   4.426  13.436 -0.4163 -1.4345 -3.1748
 7182TIP3    H243038   6.748   4.334  13.431 -1.1490 -1.0401  1.9729
 7183TIP3   OH243039   6.578   5.238  11.988  0.0487  0.2326 -0.0444
 7183TIP3    H143040   6.634   5.170  12.025  1.3401  0.2471 -1.8244
 7183TIP3    H243041   6.611   5.320  12.024 -1.2648  0.0195  1.8020
 7184TIP3   OH243042   1.002   5.639  12.800 -0.5190  0.7536 -0.2644
 7184TIP3    H143043   1.093   5.648  12.772 -0.4280 -0.6378 -0.4924
 7184TIP3    H243044   0.967   5.568  12.745 -1.3564  0.3724  0.7221
 7185TIP3   OH243045   2.037   3.712  15.061  0.0963  0.1406 -0.0867
 7185TIP3    H143046   2.047   3.759  14.978 -0.7739 -1.9702 -1.4817
 7185TIP3    H243047   2.030   3.620  15.035 -0.8009 -0.5317  2.3070
 7186TIP3   OH243048   5.897   5.581  13.727  0.4160  0.5755  0.1244
 7186TIP3    H143049   5.951   5.559  13.651  0.7579  2.0967 -0.1096
 7186TIP3    H243050   5.822   5.523  13.721 -0.1091  1.3839 -2.0260
 7187TIP3   OH243051   0.991   0.585  14.430 -0.9999 -0.0562 -0.0758
 7187TIP3    H143052   1.023   0.659  14.377  0.7230  1.2131  2.4866
 7187TIP3    H243053   1.065   0.524  14.433 -0.9098  0.0736  1.0741
 7188TIP3   OH243054   5.699   6.134  13.109  0.5873  0.3466  0.1019
 7188TIP3    H143055   5.788   6.101  13.100  0.6795 -0.5327  3.1099
 7188TIP3    H243056   5.708   6.214  13.161 -0.3754 -0.1237  1.0424
 7189TIP3   OH243057   3.938   4.857   2.145 -0.2002  0.0862  0.2389
 7189TIP3    H143058   4.000   4.858   2.218 -0.6028  1.4886  0.5895
 7189TIP3    H243059   3.875   4.789   2.168  0.2775 -0.2211  0.6745
 7190TIP3   OH243060   2.382   5.948  12.652 -0.3439  0.0798 -0.3835
 7190TIP3    H143061   2.330   5.931  12.730 -0.6127  1.5920 -0.2078
 7190TIP3    H243062   2.435   6.024  12.675  0.7033 -0.3961 -1.1535
 7191TIP3   OH243063   2.887   4.816   1.153 -0.0479 -0.2891  0.2172
 7191TIP3    H143064   2.974   4.787   1.127 -0.1543  0.2171 -0.7664
 7191TIP3    H243065   2.895   4.840   1.245  0.6830 -0.8862  0.3094
 7192TIP3   OH243066   4.317   4.689   0.898  0.4852 -0.1838  0.5445
 7192TIP3    H143067   4.242   4.683   0.956 -0.5582 -1.8724 -0.8785
 7192TIP3    H243068   4.375   4.619   0.927  0.0721 -0.8737 -0.2538
 7193TIP3   OH243069   5.438   6.713   2.055  0.0876 -0.5073  0.7697
 7193TIP3    H143070   5.520   6.752   2.085  1.0550 -1.5037 -0.4122
 7193TIP3    H243071   5.426   6.748   1.967  0.5387 -2.1458  0.0065
 7194TIP3   OH243072   0.060   0.690   5.566 -0.1966 -0.4817  0.4703
 7194TIP3    H143073   0.062   0.632   5.491  0.9484 -2.0916  1.6874
 7194TIP3    H243074   0.076   0.777   5.530  0.5700 -1.2486 -1.1086
 7195TIP3   OH243075   2.387   1.978  12.029  0.3022 -0.1659 -0.0135
 7195TIP3    H143076   2.292   1.989  12.025  0.2264 -0.8476 -0.3067
 7195TIP3    H243077   2.420   2.028  11.955 -0.0099 -1.6165 -1.1851
 7196TIP3   OH243078   2.934   3.632  16.848 -0.2930 -0.6824 -0.0664
 7196TIP3    H143079   2.965   3.604  16.761  1.2404  1.2845 -0.2320
 7196TIP3    H243080   3.008   3.681  16.884 -0.0758 -3.1197  3.2714
 7197TIP3   OH243081   6.394   3.556  16.159  0.0626  0.5862 -0.5302
 7197TIP3    H143082   6.473   3.542  16.211 -1.2538  0.5389  1.5411
 7197TIP3    H243083   6.377   3.650  16.165  0.7669  0.8716 -2.2733
 7198TIP3   OH243084   6.803   0.333  15.221  0.3412 -0.6357 -0.0379
 7198TIP3    H143085   6.734   0.397  15.203  1.4158  0.0586 -1.9841
 7198TIP3    H243086   6.793   0.268  15.152  0.1838 -1.8257  1.0727
 7199TIP3   OH243087   5.995   3.850   0.549  0.1409 -0.5626 -0.0536
 7199TIP3    H143088   6.054   3.775   0.539 -0.5141 -1.5741  2.6309
 7199TIP3    H243089   6.049   3.918   0.589  0.6342  0.2985 -2.1136
 7200TIP3   OH243090   3.845   1.637  13.317  0.6849 -0.0217 -0.6024
 7200TIP3    H143091   3.851   1.602  13.228  0.9379 -0.2042 -0.5165
 7200TIP3    H243092   3.815   1.562  13.370  0.5755  0.0747 -0.5276
 7201TIP3   OH243093   6.578   0.069   0.874 -0.3747  0.1479  0.1904
 7201TIP3    H143094   6.501   0.036   0.921 -0.1600 -0.2918  0.2345
 7201TIP3    H243095   6.593   0.006   0.804  1.8830 -1.6279  2.0919
 7202TIP3   OH243096   4.398   3.174   0.928  0.0390  0.1586  0.4910
 7202TIP3    H143097   4.468   3.131   0.977  0.5775  0.7567  0.2551
 7202TIP3    H243098   4.438   3.200   0.845  0.1766  2.4893  1.2125
 7203TIP3   OH243099   5.236   2.379   4.379 -0.1415 -0.2583 -0.0689
 7203TIP3    H143100   5.170   2.419   4.437  1.0701 -0.3805  1.4590
 7203TIP3    H243101   5.320   2.406   4.416  0.6848 -1.5587 -0.9255
 7204TIP3   OH243102   2.727   0.698  14.138 -0.1142 -0.1402  0.3278
 7204TIP3    H143103   2.772   0.615  14.151  0.1618 -0.0851 -0.2361
 7204TIP3    H243104   2.643   0.675  14.099 -0.1325 -0.1708  0.3858
 7205TIP3   OH243105   0.657   5.596  14.411  0.0044  0.2194 -0.1104
 7205TIP3    H143106   0.583   5.601  14.472  0.8102  1.1339  0.8381
 7205TIP3    H243107   0.671   5.687  14.384 -0.0423 -0.1223 -1.3188
 7206TIP3   OH243108   0.909   6.655  15.573 -0.2468 -0.8474  0.2468
 7206TIP3    H143109   1.000   6.640  15.600 -0.0423 -0.4367 -0.2095
 7206TIP3    H243110   0.883   6.573  15.531  1.1432  0.2294 -2.9956
 7207TIP3   OH243111   6.269   6.303  15.630  0.1155 -0.4395 -1.0272
 7207TIP3    H143112   6.197   6.251  15.595 -0.0619 -1.3184  0.5554
 7207TIP3    H243113   6.228   6.385  15.658 -0.2321 -0.8131 -0.4214
 7208TIP3   OH243114   3.753   5.013   4.601  0.7833  0.0670 -0.5691
 7208TIP3    H143115   3.773   4.922   4.578  1.1252  0.3426 -1.4088
 7208TIP3    H243116   3.724   5.009   4.692  0.1134 -0.9735 -0.8104
 7209TIP3   OH243117   1.688   3.988   3.377 -0.2025 -0.6275  0.2456
 7209TIP3    H143118   1.680   3.928   3.303 -0.7794  0.4175 -0.5629
 7209TIP3    H243119   1.781   4.011   3.379  0.3340 -2.5932  1.4541
 7210TIP3   OH243120   0.531   1.972   5.080  0.5886  0.2737 -0.0813
 7210TIP3    H143121   0.614   2.003   5.116 -0.3214  0.8829  1.5773
 7210TIP3    H243122   0.515   1.889   5.125  1.3057 -0.9614 -1.9728
 7211TIP3   OH243123   0.238   1.938   6.122  0.4512 -0.3959  0.0934
 7211TIP3    H143124   0.316   1.968   6.169  0.6159 -1.3321  0.4340
 7211TIP3    H243125   0.183   1.899   6.189  0.1590 -0.6937 -0.3169
 7212TIP3   OH243126   6.666   1.774  15.634 -0.4850  0.2828  0.0338
 7212TIP3    H143127   6.626   1.689  15.651  0.1661 -0.1350 -0.4556
 7212TIP3    H243128   6.660   1.821  15.717  0.5795 -0.8400  0.7853
 7213TIP3   OH243129   1.738   3.982   3.748  0.1912  0.6167  0.2019
 7213TIP3    H143130   1.739   4.075   3.726 -0.2188  0.2728 -1.3831
 7213TIP3    H243131   1.807   3.944   3.693  0.2022 -0.0551  0.6713
 7214TIP3   OH243132   4.677   4.888  16.307  0.3228  0.2416 -0.4378
 7214TIP3    H143133   4.596   4.935  16.290 -1.6751 -2.6188  0.2907
 7214TIP3    H243134   4.704   4.917  16.394 -0.1010  0.9675 -0.5401
 7215TIP3   OH243135   3.333   1.841   2.198 -0.3963 -0.4260 -0.0526
 7215TIP3    H143136   3.324   1.849   2.104  1.0505  0.7243 -0.1271
 7215TIP3    H243137   3.253   1.879   2.234 -0.8909 -0.7452 -0.8034
 7216TIP3   OH243138   5.611   3.671  16.434  0.3055 -0.0868  0.6159
 7216TIP3    H143139   5.671   3.606  16.471  0.9885 -0.1386 -0.5300
 7216TIP3    H243140   5.535   3.619  16.405  1.0090 -0.4710 -0.6418
 7217TIP3   OH243141   3.420   6.776  13.401 -0.0139 -0.1220  0.5729
 7217TIP3    H143142   3.509   6.787  13.369 -1.0208  0.2081 -2.4033
 7217TIP3    H243143   3.391   6.692  13.365 -1.3285  0.4005  0.3385
 7218TIP3   OH243144   1.233   4.412   5.461 -0.6480  0.4024  0.4511
 7218TIP3    H143145   1.255   4.360   5.383 -1.1931  0.3267  0.3448
 7218TIP3    H243146   1.313   4.462   5.480 -0.0598 -0.5977  0.6562
 7219TIP3   OH243147   4.726   5.724   4.797  0.5056  0.6765 -0.0022
 7219TIP3    H143148   4.762   5.701   4.711  0.0247 -4.3572  0.8666
 7219TIP3    H243149   4.801   5.723   4.856  0.3476  0.6801  0.2007
 7220TIP3   OH243150   2.598   0.996  16.819 -0.1905  0.1064 -0.1190
 7220TIP3    H143151   2.505   0.980  16.802 -0.4071  0.5672  0.5771
 7220TIP3    H243152   2.600   1.037  16.905  0.6321  0.4887 -0.3080
 7221TIP3   OH243153   2.111   5.421  14.717 -0.2057  0.3343 -0.2794
 7221TIP3    H143154   2.204   5.400  14.709 -0.3849 -0.1956 -1.1467
 7221TIP3    H243155   2.093   5.415  14.810  0.4223 -0.4942 -0.1932
 7222TIP3   OH243156   3.670   3.573   4.624 -0.0696  0.1643  0.6750
 7222TIP3    H143157   3.600   3.607   4.679  0.2453 -0.9661  1.8119
 7222TIP3    H243158   3.630   3.501   4.575 -0.0823  0.4872  0.2075
 7223TIP3   OH243159   4.159   4.059  14.822  0.6840  0.3585 -0.6679
 7223TIP3    H143160   4.223   4.025  14.759 -1.1578 -0.3031 -2.2877
 7223TIP3    H243161   4.138   3.984  14.877  2.0411  0.8515  0.5885
 7224TIP3   OH243162   3.965   4.215  13.344 -0.3089 -0.1921 -0.4375
 7224TIP3    H143163   4.018   4.284  13.302  1.0172 -0.4938  0.6862
 7224TIP3    H243164   3.923   4.170  13.271  0.8160  0.2019 -1.3564
 7225TIP3   OH243165   6.181   0.742  11.936  0.2488 -0.4433  0.2388
 7225TIP3    H143166   6.171   0.829  11.897  2.1707 -1.2603 -2.3637
 7225TIP3    H243167   6.167   0.682  11.863  0.4119 -2.2743  1.6548
 7226TIP3   OH243168   1.635   0.113  12.832 -0.6348  0.2864 -0.3496
 7226TIP3    H143169   1.725   0.129  12.860 -0.6169 -0.7319  0.2222
 7226TIP3    H243170   1.588   0.193  12.853  0.1979  0.9346 -0.9219
 7227TIP3   OH243171   2.875   3.124  12.622 -0.3786 -0.0249  0.2494
 7227TIP3    H143172   2.902   3.144  12.712 -2.3547 -1.8428  1.3234
 7227TIP3    H243173   2.957   3.114  12.575  0.8453 -1.8380  2.5319
 7228TIP3   OH243174   0.047   1.611  11.934  0.0510  0.2103 -0.0086
 7228TIP3    H143175   0.018   1.528  11.974 -0.6547 -0.9830 -2.7882
 7228TIP3    H243176   0.040   1.675  12.005 -3.1690 -1.3284  1.2600
 7229TIP3   OH243177   1.998   6.033   2.553  0.0950 -0.3591  0.1535
 7229TIP3    H143178   1.987   6.113   2.605 -0.0554 -1.2048  1.4874
 7229TIP3    H243179   2.091   6.032   2.531  0.5548 -0.8511  1.9557
 7230TIP3   OH243180   3.461   0.308  12.996 -0.4483 -1.1875  0.1099
 7230TIP3    H143181   3.509   0.266  13.067 -0.7493 -1.0763  0.3833
 7230TIP3    H243182   3.527   0.330  12.931  0.1409  0.5407  1.2385
 7231TIP3   OH243183   0.829   1.402   2.913  0.3588  0.3784  0.0986
 7231TIP3    H143184   0.787   1.431   2.994 -0.2753 -0.9864  0.2980
 7231TIP3    H243185   0.856   1.482   2.869  0.5658  1.1448  1.5812
 7232TIP3   OH243186   0.353   1.396  16.633 -1.0279 -0.0567 -0.4110
 7232TIP3    H143187   0.360   1.303  16.655  0.1217 -0.1342 -1.0650
 7232TIP3    H243188   0.265   1.406  16.596 -1.1398 -0.8755 -0.3729
 7233TIP3   OH243189   5.125   1.785  13.368 -0.2864 -0.7670 -0.0789
 7233TIP3    H143190   5.125   1.835  13.450 -0.8809 -1.2508  0.2291
 7233TIP3    H243191   5.209   1.806  13.327  1.5708 -2.9931  2.2183
 7234TIP3   OH243192   1.139   1.347  12.170 -0.0162  0.4023  0.3171
 7234TIP3    H143193   1.111   1.364  12.080 -0.8784 -0.8938  0.3086
 7234TIP3    H243194   1.069   1.381  12.224 -0.5573 -0.7681  0.3893
 7235TIP3   OH243195   2.920   2.267  13.508  0.1204  0.4576  0.3891
 7235TIP3    H143196   2.908   2.241  13.600 -0.0629  0.7492  0.4503
 7235TIP3    H243197   2.899   2.188  13.458 -0.9553  0.6281  0.5520
 7236TIP3   OH243198   5.820   4.088   4.228 -0.3646 -0.2224  0.2177
 7236TIP3    H143199   5.792   3.998   4.209 -1.6583  0.5435 -1.8852
 7236TIP3    H243200   5.743   4.130   4.266  1.2358 -0.8105  4.7054
 7237TIP3   OH243201   1.125   5.952   3.022 -0.6224  0.4905  0.3700
 7237TIP3    H143202   1.106   6.043   3.001 -2.3254  0.3809  1.2281
 7237TIP3    H243203   1.070   5.933   3.098 -0.4004 -1.2801  0.1389
 7238TIP3   OH243204   5.999   5.847   5.660  0.1100  0.2294 -0.6799
 7238TIP3    H143205   6.066   5.911   5.635 -0.6413  1.6683  0.7904
 7238TIP3    H243206   5.916   5.892   5.645 -0.5382 -1.1680 -1.5356
 7239TIP3   OH243207   1.583   4.425  14.197  0.1063  0.0834 -0.3627
 7239TIP3    H143208   1.672   4.456  14.211 -0.8717  2.0826  2.5218
 7239TIP3    H243209   1.554   4.469  14.117  1.7000 -0.7896 -1.4797
 7240TIP3   OH243210   1.535   5.025   2.811 -0.0634  0.3393 -0.1747
 7240TIP3    H143211   1.538   4.941   2.856 -1.5655  0.8430  0.9341
 7240TIP3    H243212   1.613   5.072   2.843 -0.0565 -0.0534  0.4039
 7241TIP3   OH243213   6.080   2.547  12.999 -0.0192  0.2219  0.4362
 7241TIP3    H143214   6.101   2.504  12.916 -2.7041  1.4074 -0.9762
 7241TIP3    H243215   6.096   2.640  12.983 -0.7639  0.4862  1.1861
 7242TIP3   OH243216   6.219   5.256  15.506 -0.4063  0.3027 -0.1174
 7242TIP3    H143217   6.215   5.283  15.414 -3.4093 -2.0687 -0.8359
 7242TIP3    H243218   6.177   5.327  15.554 -0.2425  0.8456 -0.7698
 7243TIP3   OH243219   4.011   1.974  16.948 -0.1029  0.5212  0.5066
 7243TIP3    H143220   3.978   1.887  16.929 -0.2098  0.2466  1.8426
 7243TIP3    H243221   3.937   2.021  16.986  0.7567  0.1393  2.8178
 7244TIP3   OH243222   1.697   1.791  15.932 -0.1154 -0.3845 -0.1123
 7244TIP3    H143223   1.760   1.828  15.871 -0.5081 -1.7613 -1.4276
 7244TIP3    H243224   1.684   1.701  15.901 -0.2855 -1.1602  2.0511
 7245TIP3   OH243225   1.869   1.480   1.012  0.0739  0.0473 -0.2035
 7245TIP3    H143226   1.829   1.393   1.017  2.3080 -1.0192  1.2171
 7245TIP3    H243227   1.872   1.510   1.103  1.5918  0.4538 -0.3623
 7246TIP3   OH243228   1.188   2.625  15.495  0.2237 -0.0578  0.3433
 7246TIP3    H143229   1.269   2.676  15.497  0.4063 -0.3546  1.8905
 7246TIP3    H243230   1.177   2.600  15.404  0.5963  2.0010 -0.3270
 7247TIP3   OH243231   3.276   4.851  15.909 -0.6502  0.3886 -0.4821
 7247TIP3    H143232   3.360   4.812  15.883 -1.5245 -0.0558 -2.9379
 7247TIP3    H243233   3.299   4.924  15.966  1.3291 -0.3950 -0.2128
 7248TIP3   OH243234   0.010   2.316  11.302 -0.2393 -0.0277 -0.2564
 7248TIP3    H143235  -0.025   2.285  11.218 -1.9791 -2.0101  1.1219
 7248TIP3    H243236   0.099   2.279  11.305 -0.8145 -1.4832 -0.4630
 7249TIP3   OH243237   6.842   2.112  16.828  0.3259  0.3002  0.5477
 7249TIP3    H143238   6.888   2.046  16.776  1.9080  1.7309  0.0601
 7249TIP3    H243239   6.903   2.185  16.834 -0.7851  1.1543  2.3517
 7250TIP3   OH243240   0.582   6.839  11.213  0.0074 -0.4177  0.1544
 7250TIP3    H143241   0.565   6.821  11.306 -1.6012 -0.2483 -0.0709
 7250TIP3    H243242   0.588   6.935  11.208 -0.3082 -0.4010  0.0388
 7251TIP3   OH243243   3.432   4.807  13.427 -0.4211  0.1237 -0.0043
 7251TIP3    H143244   3.478   4.742  13.481 -0.0433 -1.3221 -1.9476
 7251TIP3    H243245   3.371   4.755  13.375 -3.5033  1.8511  1.5944
 7252TIP3   OH243246   5.166   0.294  17.025 -0.0659 -0.2228 -0.2204
 7252TIP3    H143247   5.172   0.293  17.121  1.2281 -0.9131 -0.2837
 7252TIP3    H243248   5.257   0.300  16.996 -0.5330  1.8156 -1.4209
 7253TIP3   OH243249   6.252   5.874  17.026  0.2401 -0.2920 -1.1114
 7253TIP3    H143250   6.246   5.829  17.111 -0.7146 -2.6667 -2.3505
 7253TIP3    H243251   6.346   5.880  17.009  0.4177 -1.2692 -0.5873
 7254TIP3   OH243252   0.168   2.845   6.470 -0.0797 -0.1701 -0.8987
 7254TIP3    H143253   0.129   2.924   6.508  0.9278  0.3807 -0.9850
 7254TIP3    H243254   0.199   2.795   6.546 -1.8549 -1.1233 -0.7573
 7255TIP3   OH243255   0.472   4.436  15.041 -0.0324  0.3471  0.4154
 7255TIP3    H143256   0.401   4.389  14.998  0.1916 -0.9379  1.3891
 7255TIP3    H243257   0.513   4.488  14.972 -1.0737  0.0769 -0.4230
 7256TIP3   OH243258   5.524   2.372   3.239  0.3736 -0.2907 -0.0746
 7256TIP3    H143259   5.436   2.335   3.246  1.2890 -2.6776 -0.1854
 7256TIP3    H243260   5.514   2.463   3.267 -1.7978 -0.9667  1.6752
 7257TIP3   OH243261   0.672   5.285  13.340 -0.3591 -0.1414 -0.3667
 7257TIP3    H143262   0.741   5.219  13.345 -0.3658 -0.1653 -0.5857
 7257TIP3    H243263   0.601   5.250  13.394  0.1459  0.3047  0.5950
 7258TIP3   OH243264   2.948   1.476   1.935 -0.1369 -0.1175 -0.6755
 7258TIP3    H143265   2.922   1.488   1.843  0.2386 -0.2522 -0.8015
 7258TIP3    H243266   3.014   1.544   1.951  0.3605 -0.5757 -0.7359
 7259TIP3   OH243267   4.290   6.519   0.490 -0.0885  1.1763 -0.0093
 7259TIP3    H143268   4.322   6.447   0.436  0.4757  1.6418 -0.3042
 7259TIP3    H243269   4.199   6.496   0.510 -0.2917  0.9811 -1.1258
 7260TIP3   OH243270   0.973   0.540   1.847  0.3058 -0.1368  0.1715
 7260TIP3    H143271   0.938   0.578   1.767 -0.8178 -1.6682 -0.1217
 7260TIP3    H243272   1.052   0.591   1.866 -0.5747  1.6322 -0.6951
 7261TIP3   OH243273   0.039   1.116  14.622  0.2673 -0.5335 -0.3267
 7261TIP3    H143274  -0.040   1.165  14.645  1.1936  1.0391 -0.3257
 7261TIP3    H243275   0.026   1.091  14.530 -0.1828 -0.1662 -0.3668
 7262TIP3   OH243276   2.488   1.187   5.490 -0.1720  0.0709  0.0923
 7262TIP3    H143277   2.465   1.094   5.481  1.8889 -0.5432  0.6361
 7262TIP3    H243278   2.529   1.209   5.406 -0.4739  0.4493  0.0414
 7263TIP3   OH243279   1.611   1.239   1.246 -0.3920 -0.2683 -0.5198
 7263TIP3    H143280   1.624   1.331   1.269  0.7339 -0.7471  0.9606
 7263TIP3    H243281   1.666   1.225   1.169  1.4536 -0.2627  0.7339
 7264TIP3   OH243282   6.715   1.183  12.043 -0.1867 -0.3078 -0.6480
 7264TIP3    H143283   6.779   1.253  12.050  0.1409 -0.3357 -2.7717
 7264TIP3    H243284   6.718   1.139  12.128 -0.8071  2.5343  0.9401
 7265TIP3   OH243285   4.671   0.264  11.839  0.5153  0.3608 -0.1009
 7265TIP3    H143286   4.701   0.352  11.862 -1.7145  1.2722 -0.4385
 7265TIP3    H243287   4.658   0.220  11.923  1.3623  0.4352  0.0762
 7266TIP3   OH243288   0.659   0.146   0.821 -0.1588  0.4342 -0.1441
 7266TIP3    H143289   0.597   0.160   0.892  1.6891  1.7913  1.2955
 7266TIP3    H243290   0.623   0.196   0.748 -1.2693  0.3360  0.3150
 7267TIP3   OH243291   5.059   6.803  16.237  0.7649  0.4333  0.2926
 7267TIP3    H143292   5.113   6.788  16.315  0.6223  1.7222  0.6672
 7267TIP3    H243293   4.994   6.868  16.265  0.3056  0.4310 -0.7210
 7268TIP3   OH243294   2.871   3.033  15.397  0.2321  0.0178  0.3378
 7268TIP3    H143295   2.796   3.056  15.343  0.3488 -2.0976 -0.8099
 7268TIP3    H243296   2.947   3.042  15.339  0.6880  0.3383  0.9549
 7269TIP3   OH243297   4.878   0.805   3.578  0.0122  0.1226  0.2531
 7269TIP3    H143298   4.894   0.747   3.504  0.3629  0.7578 -0.1806
 7269TIP3    H243299   4.837   0.883   3.540  1.3983  1.0194  0.5146
 7270TIP3   OH243300   0.424   4.867   3.120  0.5585  0.0095  0.0663
 7270TIP3    H143301   0.508   4.901   3.088  0.7606  0.3293  0.9042
 7270TIP3    H243302   0.377   4.945   3.151 -0.6508  0.0277 -1.6705
 7271TIP3   OH243303   2.817   0.433  14.261 -0.1490 -0.1767  0.3127
 7271TIP3    H143304   2.875   0.407  14.333 -1.5882  0.9516  1.9827
 7271TIP3    H243305   2.877   0.453  14.189  1.7226  2.0584  2.2806
 7272TIP3   OH243306   5.620   5.617   0.965  0.3942  0.5433  0.0538
 7272TIP3    H143307   5.537   5.582   0.997  1.1148 -0.9402  0.4106
 7272TIP3    H243308   5.671   5.634   1.044  0.4087  1.5536 -0.1605
 7273TIP3   OH243309   2.497   2.093  14.286  0.1897  0.0963  0.0379
 7273TIP3    H143310   2.523   2.001  14.275  0.5337  0.1853  0.0784
 7273TIP3    H243311   2.403   2.090  14.302  0.3475 -0.3186  0.9290
 7274TIP3   OH243312   3.296   1.984  13.719  0.3699  0.4244  0.5319
 7274TIP3    H143313   3.257   1.911  13.671  0.6787  0.4925  0.1709
 7274TIP3    H243314   3.361   2.020  13.659  0.7110  0.5574  0.9751
 7275TIP3   OH243315   2.688   5.302  12.492 -0.8569 -0.6878 -0.4397
 7275TIP3    H143316   2.596   5.288  12.514 -1.3622  0.9512 -1.2857
 7275TIP3    H243317   2.734   5.295  12.575 -1.4249 -3.4945 -0.2659
 7276TIP3   OH243318   3.709   5.431   2.951 -0.4328  0.2047  0.1712
 7276TIP3    H143319   3.631   5.382   2.923 -0.0274  0.3771 -1.3328
 7276TIP3    H243320   3.760   5.442   2.871  0.3047  1.6171  0.8025
 7277TIP3   OH243321   3.938   6.437   2.231 -0.0578  0.0289 -0.3237
 7277TIP3    H143322   3.907   6.505   2.291  2.1976  0.4329  0.4801
 7277TIP3    H243323   4.001   6.481   2.174 -1.2043 -0.6397 -2.2271
 7278TIP3   OH243324   4.634   3.983  11.634 -0.1198 -0.2833 -0.4018
 7278TIP3    H143325   4.639   4.053  11.699 -1.6425 -0.0687 -0.4902
 7278TIP3    H243326   4.549   3.943  11.648  0.6046 -1.9506 -0.5550
 7279TIP3   OH243327   4.604   2.691   5.135  0.5939  0.2546 -0.3212
 7279TIP3    H143328   4.597   2.710   5.229  0.1524 -1.1765 -0.0509
 7279TIP3    H243329   4.698   2.690   5.118  0.6863  0.1710  0.1757
 7280TIP3   OH243330   3.458   4.957  14.474 -0.0605  0.4642 -0.1309
 7280TIP3    H143331   3.442   5.037  14.525  0.5804  1.7453 -1.8216
 7280TIP3    H243332   3.393   4.960  14.404  2.0687  1.4231 -2.2512
 7281TIP3   OH243333   4.079   4.693  12.322  0.1228 -0.3555 -0.1988
 7281TIP3    H143334   4.045   4.604  12.326  0.1372 -0.3913 -0.7345
 7281TIP3    H243335   4.004   4.747  12.299  0.1264 -0.2378  0.0646
 7282TIP3   OH243336   0.978   4.133   0.925 -0.3125  0.0458  0.4709
 7282TIP3    H143337   1.070   4.108   0.934 -0.5196 -1.3031 -0.7574
 7282TIP3    H243338   0.972   4.169   0.837 -0.6814  1.6047  1.0975
 7283TIP3   OH243339   0.719   4.377   5.182 -0.1021  0.4850  0.4586
 7283TIP3    H143340   0.663   4.455   5.189  1.7902  2.0491 -0.7242
 7283TIP3    H243341   0.767   4.389   5.100  1.0992 -1.3647  0.8263
 7284TIP3   OH243342   1.214   2.646  12.495 -0.1076  0.3084 -0.1902
 7284TIP3    H143343   1.182   2.557  12.484 -2.5803  1.2767 -1.4403
 7284TIP3    H243344   1.236   2.675  12.406  0.2897  1.1039  0.1556
 7285TIP3   OH243345   2.370   5.247  15.940  0.2041 -0.2051  0.7122
 7285TIP3    H143346   2.401   5.337  15.946 -3.0550  1.2516 -1.5428
 7285TIP3    H243347   2.330   5.240  15.854  1.3320 -4.2733  0.2736
 7286TIP3   OH243348   1.414   6.050  14.099  0.2065  0.5140  0.1428
 7286TIP3    H143349   1.379   6.095  14.022 -3.1802  1.6559  2.1186
 7286TIP3    H243350   1.376   6.098  14.173  2.6687 -0.9918  2.5472
 7287TIP3   OH243351   4.308   6.154   4.844 -0.0525  0.0500 -0.2696
 7287TIP3    H143352   4.330   6.061   4.852 -0.5786  0.0645  2.9570
 7287TIP3    H243353   4.214   6.154   4.827  0.2515  0.0439 -2.1439
 7288TIP3   OH243354   6.102   2.482  11.378  0.1819 -0.5351  0.5453
 7288TIP3    H143355   6.049   2.512  11.304 -0.1117  0.4586  1.1436
 7288TIP3    H243356   6.171   2.549  11.386 -0.1412 -0.3092  1.5349
 7289TIP3   OH243357   6.259   5.151  11.622  0.8818  0.0210 -0.6194
 7289TIP3    H143358   6.312   5.172  11.698 -0.3963 -1.0975  0.6521
 7289TIP3    H243359   6.262   5.056  11.615 -1.2621 -0.1359 -0.2094
 7290TIP3   OH243360   2.507   4.773  11.252 -0.2919  0.1060 -0.4817
 7290TIP3    H143361   2.501   4.856  11.301 -0.1617 -0.7548  1.0602
 7290TIP3    H243362   2.563   4.717  11.307 -1.0437 -1.2809 -1.0917
 7291TIP3   OH243363   0.084   1.684  16.301 -0.2514 -0.2736 -0.0466
 7291TIP3    H143364   0.065   1.735  16.222 -0.2309 -2.3656 -1.5225
 7291TIP3    H243365   0.129   1.606  16.267 -1.0688 -1.6844  1.9490
 7292TIP3   OH243366   1.244   2.903   1.511 -0.3916  0.1230  0.4641
 7292TIP3    H143367   1.202   2.956   1.443  0.2051  0.3548  0.2643
 7292TIP3    H243368   1.300   2.843   1.462  0.8645  1.0005  0.7677
 7293TIP3   OH243369   4.265   3.758  13.135 -0.4541  0.6963 -0.0359
 7293TIP3    H143370   4.350   3.801  13.145  0.3322  0.3439 -3.7486
 7293TIP3    H243371   4.282   3.686  13.075 -3.0751 -0.5653  0.6131
 7294TIP3   OH243372   0.549   2.588   3.357 -0.0499 -0.1164  0.3562
 7294TIP3    H143373   0.549   2.623   3.446 -1.2748 -0.0053  0.3286
 7294TIP3    H243374   0.532   2.664   3.301  0.4392 -0.2331  0.0361
 7295TIP3   OH243375   3.833   2.239   5.430 -0.7926  0.1243  0.1908
 7295TIP3    H143376   3.896   2.251   5.501 -0.6295 -2.0954  0.4768
 7295TIP3    H243377   3.880   2.266   5.352  0.4998 -1.3169  0.4254
 7296TIP3   OH243378   0.167   4.929  16.916 -0.7472 -0.7915 -0.2405
 7296TIP3    H143379   0.098   4.884  16.965 -2.0185 -0.2989 -1.4884
 7296TIP3    H243380   0.201   4.863  16.856 -0.7439 -0.8023 -0.2280
 7297TIP3   OH243381   5.031   3.852  11.435  0.5246 -0.7511 -0.1939
 7297TIP3    H143382   5.115   3.838  11.478 -0.0444 -2.1856  0.5091
 7297TIP3    H243383   5.053   3.868  11.343  1.6561  0.8789  0.3142
 7298TIP3   OH243384   1.116   4.180  16.805 -0.1726 -0.7392 -0.4915
 7298TIP3    H143385   1.076   4.266  16.819 -0.0534 -0.9819  1.6262
 7298TIP3    H243386   1.045   4.118  16.817  0.2308 -1.0374  0.4329
 7299TIP3   OH243387   0.713   1.037  12.746  0.5280 -0.1848 -0.0483
 7299TIP3    H143388   0.758   1.068  12.825  1.0934 -2.6908  0.6960
 7299TIP3    H243389   0.774   0.974  12.707 -0.8242 -0.9222 -1.0547
 7300TIP3   OH243390   6.733   2.009  13.866  0.0328  0.3391  0.4560
 7300TIP3    H143391   6.683   2.055  13.799  0.0991 -0.4415 -0.1461
 7300TIP3    H243392   6.671   1.947  13.905  0.0674  0.5995  0.9376
 7301TIP3   OH243393   5.553   5.364  13.351  0.7926 -0.4364  0.3850
 7301TIP3    H143394   5.584   5.281  13.315  0.8569 -0.4042  0.3654
 7301TIP3    H243395   5.472   5.382  13.304  1.1740 -0.1064 -0.1517
 7302TIP3   OH243396   3.880   4.949  11.962 -0.1581  0.0966  0.4068
 7302TIP3    H143397   3.961   4.982  12.002 -0.1009  0.4965 -0.0293
 7302TIP3    H243398   3.886   4.975  11.870 -0.0671 -1.2249  0.0211
 7303TIP3   OH243399   1.752   6.532   0.241 -0.2604  0.1518  0.5529
 7303TIP3    H143400   1.779   6.503   0.328 -0.9461 -0.6359  0.5205
 7303TIP3    H243401   1.694   6.606   0.258 -1.5129 -0.8642  0.8716
 7304TIP3   OH243402   0.459   4.387   2.294  0.1040 -0.7507  0.0691
 7304TIP3    H143403   0.494   4.304   2.326  1.4143 -0.4495 -0.5418
 7304TIP3    H243404   0.488   4.451   2.359 -1.2332 -0.7886  0.7496
 7305TIP3   OH243405   1.010   1.657   5.757  0.3492 -0.1781  0.0350
 7305TIP3    H143406   0.983   1.749   5.751 -3.4353 -1.1070 -0.1752
 7305TIP3    H243407   0.998   1.634   5.849 -1.9366 -1.1507 -0.4258
 7306TIP3   OH243408   4.382   2.003  13.364  0.5863  0.1519  0.3547
 7306TIP3    H143409   4.326   1.944  13.416  1.9438 -1.4232  0.1236
 7306TIP3    H243410   4.468   1.995  13.405  1.0139  1.2482 -0.3067
 7307TIP3   OH243411   4.918   5.604   4.998 -0.5534  0.5990  0.3792
 7307TIP3    H143412   4.980   5.557   4.942  0.7020  1.2651  1.1469
 7307TIP3    H243413   4.838   5.551   4.996 -0.4916  0.5155 -1.8685
 7308TIP3   OH243414   4.830   4.151   2.030 -0.4360 -0.0903 -0.6412
 7308TIP3    H143415   4.841   4.219   1.963 -0.6434  1.1334  0.5226
 7308TIP3    H243416   4.872   4.074   1.992  0.2195  0.8042 -1.8312
 7309TIP3   OH243417   0.391   0.703  13.885 -1.1602 -0.4663  0.1606
 7309TIP3    H143418   0.467   0.685  13.941 -1.1558 -2.6942 -0.4694
 7309TIP3    H243419   0.351   0.780  13.924  0.9854  0.3431  0.9625
 7310TIP3   OH243420   3.412   6.121  13.604  0.0844  0.2727 -0.3185
 7310TIP3    H143421   3.440   6.041  13.558 -0.9379 -0.7074  0.6914
 7310TIP3    H243422   3.457   6.117  13.688 -1.3593 -0.1952  0.4534
 7311TIP3   OH243423   4.042   2.413  16.912  0.0570 -0.0060  0.3988
 7311TIP3    H143424   3.991   2.381  16.837  0.6601 -0.0316 -0.0089
 7311TIP3    H243425   4.133   2.407  16.883  0.4086 -1.4845  1.6849
 7312TIP3   OH243426   3.192   0.512  13.623  0.2722  0.1707  0.7395
 7312TIP3    H143427   3.226   0.460  13.695 -0.9110 -0.6533  0.7291
 7312TIP3    H243428   3.116   0.463  13.592 -0.5452  1.6381  0.3673
 7313TIP3   OH243429   1.407   6.245   2.494  0.0590 -0.3453 -0.0739
 7313TIP3    H143430   1.422   6.310   2.563  0.4260  1.1208 -1.4904
 7313TIP3    H243431   1.323   6.205   2.516 -1.1616  2.0062 -0.2137
 7314TIP3   OH243432   5.537   0.260   5.629  0.6659 -0.3796  0.3391
 7314TIP3    H143433   5.572   0.171   5.631  1.5252 -0.0427  0.4831
 7314TIP3    H243434   5.583   0.303   5.558 -0.3197 -0.2659 -0.2517
 7315TIP3   OH243435   0.230   0.215   2.057 -0.2754  0.5836  0.0229
 7315TIP3    H143436   0.216   0.184   2.147  0.3325  1.0941  0.3095
 7315TIP3    H243437   0.146   0.252   2.030 -0.6714 -0.2520  0.1041
 7316TIP3   OH243438   4.455   3.008  16.814  0.6610  0.2123 -0.1088
 7316TIP3    H143439   4.518   3.061  16.864 -0.7249  0.6793  1.2272
 7316TIP3    H243440   4.473   2.918  16.840  0.9168  0.3264  0.1195
 7317TIP3   OH243441   0.304   4.514  16.001 -0.1283  0.5976  0.3058
 7317TIP3    H143442   0.396   4.497  16.021  0.1867 -0.9003 -2.0419
 7317TIP3    H243443   0.305   4.589  15.942  0.0185 -1.3534 -2.3839
 7318TIP3   OH243444   6.536   3.623  12.892 -0.0257  0.1103  0.3636
 7318TIP3    H143445   6.601   3.641  12.959 -1.2367  1.3225  1.2607
 7318TIP3    H243446   6.587   3.617  12.811  1.2674  0.3294  1.1271
 7319TIP3   OH243447   0.691   1.129  11.153 -0.3750 -0.4690  0.4372
 7319TIP3    H143448   0.677   1.204  11.094 -1.9634 -0.1552  1.1753
 7319TIP3    H243449   0.699   1.054  11.094  0.1084  0.1154 -0.2620
 7320TIP3   OH243450   2.607   4.254   2.381 -0.2435 -0.0846  0.0778
 7320TIP3    H143451   2.703   4.259   2.379 -0.2562  0.0316 -1.3159
 7320TIP3    H243452   2.580   4.341   2.412  0.1066 -0.7466  2.4215
 7321TIP3   OH243453   3.459   1.067   3.918 -0.3354  0.9307 -0.4779
 7321TIP3    H143454   3.525   1.137   3.914 -1.2570  1.8372 -0.2968
 7321TIP3    H243455   3.378   1.109   3.889 -0.6284 -0.4445 -1.7279
 7322TIP3   OH243456   4.520   6.082  15.260  0.2025  0.7560  0.3379
 7322TIP3    H143457   4.514   6.156  15.200 -0.7782  0.4485  0.0235
 7322TIP3    H243458   4.500   6.118  15.346  0.9108  1.0679  0.3760
 7323TIP3   OH243459   0.299   1.829  11.761 -0.0592 -0.0447 -0.3227
 7323TIP3    H143460   0.329   1.831  11.670 -1.4687  1.2599 -0.8087
 7323TIP3    H243461   0.228   1.893  11.763 -0.7623 -0.8443  1.4561
 7324TIP3   OH243462   4.908   5.947   3.870 -0.1384 -0.5508 -0.0648
 7324TIP3    H143463   4.833   5.973   3.923 -0.1866 -0.9472  0.0646
 7324TIP3    H243464   4.979   5.934   3.934  0.2906  0.6708 -0.2622
 7325TIP3   OH243465   3.439   2.550   3.775  0.0665 -0.2324 -0.5170
 7325TIP3    H143466   3.438   2.462   3.813  1.5020 -0.4459 -0.9057
 7325TIP3    H243467   3.452   2.609   3.849  1.6834 -0.5587 -0.5098
 7326TIP3   OH243468   4.837   2.022   2.445  0.3400 -0.1476  0.0603
 7326TIP3    H143469   4.926   2.024   2.481 -0.7281 -1.2343  3.0259
 7326TIP3    H243470   4.809   1.931   2.455 -1.0342  0.1174 -1.1020
 7327TIP3   OH243471   4.647   1.720   1.749  0.1243  0.6207 -0.1378
 7327TIP3    H143472   4.742   1.721   1.745  0.1996  1.0191  1.4483
 7327TIP3    H243473   4.623   1.803   1.790 -0.9461  0.7417 -0.9503
 7328TIP3   OH243474   1.697   2.878   5.554  0.3623  0.6623  0.1260
 7328TIP3    H143475   1.657   2.814   5.613  0.1564 -1.2602 -1.9688
 7328TIP3    H243476   1.624   2.910   5.501  0.9288  0.3359 -0.8723
 7329TIP3   OH243477   1.288   3.495  11.686 -0.3785  0.0140  0.2482
 7329TIP3    H143478   1.360   3.548  11.723  1.3894 -1.0284 -1.5098
 7329TIP3    H243479   1.244   3.554  11.625  0.5948 -0.0496 -0.5350
 7330TIP3   OH243480   3.255   3.583  11.167  0.3056  0.4602  0.2405
 7330TIP3    H143481   3.204   3.617  11.093  0.8096  1.6259  0.4145
 7330TIP3    H243482   3.312   3.655  11.193  2.9800 -1.1763 -0.7169
 7331TIP3   OH243483   6.041   2.090   2.925 -0.0123 -0.1594 -0.1999
 7331TIP3    H143484   6.102   2.158   2.895 -0.5901 -0.0439 -1.1516
 7331TIP3    H243485   5.954   2.124   2.904 -0.2716 -1.8478 -2.1814
 7332TIP3   OH243486   1.063   3.182   4.765 -0.7050 -0.1404  0.2681
 7332TIP3    H143487   1.068   3.224   4.679  0.0399 -0.2442  0.2546
 7332TIP3    H243488   1.071   3.088   4.747  0.4889 -0.1067  0.5148
 7333TIP3   OH243489   4.985   4.483  16.006  0.4431  0.0527  0.8375
 7333TIP3    H143490   5.014   4.395  15.985 -2.0321 -1.6551  3.7578
 7333TIP3    H243491   4.917   4.503  15.941 -0.5957 -1.2177  1.4915
 7334TIP3   OH243492   4.668   1.886   4.296 -0.0789  0.4081  0.3499
 7334TIP3    H143493   4.731   1.899   4.367 -0.4896 -0.4833  0.9019
 7334TIP3    H243494   4.679   1.794   4.271 -0.9238  0.3311  0.2256
 7335TIP3   OH243495   0.498   6.210   3.914  0.1254  0.2256 -0.3107
 7335TIP3    H143496   0.454   6.294   3.925 -0.0455  0.2218 -0.9703
 7335TIP3    H243497   0.446   6.149   3.966 -0.1941  0.3729 -0.4557
 7336TIP3   OH243498   1.759   3.987  11.721  0.4836  0.2140  0.2550
 7336TIP3    H143499   1.827   4.010  11.785  0.0078 -2.1564  1.7189
 7336TIP3    H243500   1.776   4.045  11.647  3.5088  0.3467  0.9317
 7337TIP3   OH243501   3.072   5.283  11.729 -0.2178 -0.0500 -0.4819
 7337TIP3    H143502   3.013   5.328  11.669  0.6275  0.1124 -1.2166
 7337TIP3    H243503   3.106   5.209  11.679  0.4387  0.0436 -0.1841
 7338TIP3   OH243504   4.222   1.953   6.153  0.8169  0.0464 -0.2392
 7338TIP3    H143505   4.312   1.956   6.120  0.9514 -0.0230  0.1193
 7338TIP3    H243506   4.183   2.036   6.125  0.5912 -0.4670 -1.5243
 7339TIP3   OH243507   1.470   4.441  10.664 -0.4055  0.1742  0.3090
 7339TIP3    H143508   1.517   4.518  10.696  0.3408  0.1833 -0.7712
 7339TIP3    H243509   1.483   4.375  10.732  0.7633  0.3390  0.2563
 7340TIP3   OH243510   2.439   0.007  14.827  0.2186  0.1312 -0.2918
 7340TIP3    H143511   2.534  -0.006  14.834  0.1667 -0.4066 -0.5493
 7340TIP3    H243512   2.409   0.012  14.918  0.3950 -0.4561 -0.1964
 7341TIP3   OH243513   4.004   3.141   4.792 -0.1354  0.1802  0.1620
 7341TIP3    H143514   4.050   3.224   4.776  0.6163 -0.3270 -0.4426
 7341TIP3    H243515   3.988   3.140   4.886 -1.4363  1.6500 -0.0108
 7342TIP3   OH243516   3.457   5.708   1.163 -0.4101 -0.4554 -0.4275
 7342TIP3    H143517   3.524   5.694   1.095  0.2879  0.1053  0.1330
 7342TIP3    H243518   3.505   5.748   1.236 -1.5676  1.1262 -0.4784
 7343TIP3   OH243519   4.489   4.050  15.585  0.3742 -0.2866 -0.1262
 7343TIP3    H143520   4.496   4.064  15.490 -1.2798 -2.7741 -0.7057
 7343TIP3    H243521   4.560   4.103  15.622  1.2664  0.5264 -2.7560
 7344TIP3   OH243522   0.750   5.844  10.850  0.0912  0.8167  0.2687
 7344TIP3    H143523   0.735   5.887  10.766 -3.0728 -1.5353 -0.5658
 7344TIP3    H243524   0.664   5.837  10.890  0.8453 -1.9118  1.7246
 7345TIP3   OH243525   5.199   3.206   5.434 -0.3293  0.3582 -0.1888
 7345TIP3    H143526   5.124   3.180   5.379 -0.7976 -1.1665  1.0813
 7345TIP3    H243527   5.239   3.123   5.459  2.4680  1.1443 -1.6341
 7346TIP3   OH243528   0.467   3.962   5.586 -0.1131  0.0384  0.4455
 7346TIP3    H143529   0.467   3.881   5.636  0.8677 -0.9957 -1.1329
 7346TIP3    H243530   0.384   3.961   5.538 -0.0463 -0.0954  0.3329
 7347TIP3   OH243531   5.233   5.987   1.279 -0.4593 -0.2684 -0.1628
 7347TIP3    H143532   5.238   5.911   1.337 -0.7142 -0.0313  0.1746
 7347TIP3    H243533   5.140   5.999   1.262 -0.6404  1.3289  1.6388
 7348TIP3   OH243534   6.773   1.505   3.804 -0.0292  0.0157 -0.3472
 7348TIP3    H143535   6.823   1.475   3.880 -0.4860 -2.0265 -0.7965
 7348TIP3    H243536   6.697   1.548   3.842 -0.0395 -0.6062  0.3753
 7349TIP3   OH243537   0.555   5.657  16.469  0.3093  0.3483 -0.7738
 7349TIP3    H143538   0.637   5.645  16.420 -0.9582 -1.1434 -2.6873
 7349TIP3    H243539   0.490   5.678  16.402 -1.1402  0.2485  0.5377
 7350TIP3   OH243540   6.657   1.059   2.780  0.2562  0.8850 -0.6506
 7350TIP3    H143541   6.695   0.974   2.803  0.1553  0.6828 -1.2125
 7350TIP3    H243542   6.564   1.051   2.804  0.2175  0.7878 -0.8325
 7351TIP3   OH243543   1.357   2.415  16.285 -0.1669 -0.6261 -0.1527
 7351TIP3    H143544   1.353   2.343  16.347 -1.5836  0.8454  1.5889
 7351TIP3    H243545   1.372   2.373  16.200 -0.4867 -2.8910  0.8373
 7352TIP3   OH243546   0.885   6.465  10.373  0.3744 -0.0374  0.0130
 7352TIP3    H143547   0.868   6.377  10.408  2.2249 -1.0916 -1.5865
 7352TIP3    H243548   0.927   6.512  10.446  1.6457 -1.3038  0.1432
 7353TIP3   OH243549   3.432   5.296   2.344  0.3650 -0.1933 -0.0324
 7353TIP3    H143550   3.494   5.229   2.373  1.6856  1.0587  0.1789
 7353TIP3    H243551   3.455   5.373   2.395 -1.0899  0.4430 -0.2963
 7354TIP3   OH243552   1.469   5.602  13.510  0.7439  0.3716 -0.3429
 7354TIP3    H143553   1.519   5.522  13.523  1.4286  0.8967  0.3458
 7354TIP3    H243554   1.398   5.598  13.574  0.1898 -0.1349 -0.9756
 7355TIP3   OH243555   5.608   2.378  16.841  0.1651 -1.0149  0.1561
 7355TIP3    H143556   5.638   2.357  16.752  1.6029 -0.1334  0.4172
 7355TIP3    H243557   5.617   2.473  16.847 -2.2878 -0.7357  0.4223
 7356TIP3   OH243558   5.591   5.446  11.702  0.0899  0.1847 -0.1535
 7356TIP3    H143559   5.573   5.389  11.778  0.1428 -1.2590 -1.1813
 7356TIP3    H243560   5.530   5.519  11.712  0.2836  0.1628  1.4252
 7357TIP3   OH243561   6.675   2.367  14.049 -0.0406 -0.3684  0.0862
 7357TIP3    H143562   6.760   2.332  14.077 -0.2348 -1.0467 -0.1420
 7357TIP3    H243563   6.613   2.297  14.071 -0.5544  0.1532  0.3205
 7358TIP3   OH243564   5.604   6.375   3.362  0.0439  0.8729 -0.9083
 7358TIP3    H143565   5.610   6.471   3.361 -1.3492  0.9663 -1.1995
 7358TIP3    H243566   5.605   6.353   3.455  2.9498  0.9370 -0.8074
 7359TIP3   OH243567   0.318   0.689   3.600 -0.0688 -0.8520 -0.1969
 7359TIP3    H143568   0.257   0.737   3.656 -1.0728 -1.3263 -0.8654
 7359TIP3    H243569   0.402   0.733   3.614 -0.4851 -0.3962  0.9834
 7360TIP3   OH243570   5.528   2.623  16.375 -0.1648 -0.4657 -0.2719
 7360TIP3    H143571   5.501   2.535  16.349  1.1269 -1.5833  1.9077
 7360TIP3    H243572   5.624   2.621  16.373 -0.0697  0.2837  1.5235
 7361TIP3   OH243573   5.811   5.616  14.417 -0.6129  0.2866 -0.1444
 7361TIP3    H143574   5.787   5.709  14.411 -1.9026 -0.0436 -0.2953
 7361TIP3    H243575   5.875   5.613  14.488 -0.1426  1.3683 -0.4992
 7362TIP3   OH243576   1.722   5.295  16.714 -0.2347 -0.2268  0.2855
 7362TIP3    H143577   1.758   5.371  16.760 -0.0422  0.0437 -0.2957
 7362TIP3    H243578   1.697   5.235  16.783  0.5379 -0.0518  0.7342
 7363TIP3   OH243579   2.259   2.407   1.870  0.0308  0.6472 -0.3984
 7363TIP3    H143580   2.276   2.358   1.789  2.1125  1.5719 -0.5915
 7363TIP3    H243581   2.219   2.343   1.929  0.7995 -0.7398 -1.3225
 7364TIP3   OH243582   5.942   3.646  12.800  0.1899 -0.1846  0.1625
 7364TIP3    H143583   5.930   3.716  12.865 -1.2543 -0.9444  0.7558
 7364TIP3    H243584   6.031   3.659  12.768  0.2309  1.4588  0.8102
 7365TIP3   OH243585   5.242   1.973   1.995  0.7180 -0.4084  0.1154
 7365TIP3    H143586   5.240   1.878   1.999  1.1994 -0.4198  0.0737
 7365TIP3    H243587   5.313   1.999   2.054  2.5368 -0.2195 -2.0561
 7366TIP3   OH243588   5.502   3.439   5.469  0.2121 -0.2911  0.6436
 7366TIP3    H143589   5.578   3.386   5.494 -0.2741 -2.3694 -1.8458
 7366TIP3    H243590   5.539   3.508   5.415  0.3608 -2.3164 -2.0827
 7367TIP3   OH243591   6.097   1.974   1.437  0.1043  0.1189 -0.0403
 7367TIP3    H143592   6.017   2.002   1.393 -0.1501 -0.4396  0.0625
 7367TIP3    H243593   6.076   1.983   1.530  0.2316  0.1650 -0.0167
 7368TIP3   OH243594   1.990   4.795  12.887  0.1013  0.1866 -0.4526
 7368TIP3    H143595   1.920   4.843  12.842  0.4424 -0.4861 -1.7412
 7368TIP3    H243596   2.046   4.864  12.923  0.3039  0.7868 -1.8366
 7369TIP3   OH243597   3.263   6.140   2.996  0.7262  0.2541  0.4636
 7369TIP3    H143598   3.173   6.146   3.028 -1.3221 -1.1421 -4.2384
 7369TIP3    H243599   3.279   6.223   2.951  0.7729 -0.4495 -0.8637
 7370TIP3   OH243600   5.196   5.032   4.936  0.2061  0.7699 -0.1298
 7370TIP3    H143601   5.129   5.065   4.995 -0.8838  0.9125 -1.3863
 7370TIP3    H243602   5.248   5.109   4.914  1.4469  0.4829  1.6129
 7371TIP3   OH243603   5.878   1.207   0.013 -0.4743 -0.4916 -0.2069
 7371TIP3    H143604   5.941   1.202   0.085 -0.5215 -0.0617 -0.1327
 7371TIP3    H243605   5.885   1.123  -0.031 -0.2877 -0.6766  0.1713
 7372TIP3   OH243606   1.332   4.883   0.197 -0.0115  0.4860  0.0537
 7372TIP3    H143607   1.295   4.815   0.140 -1.4389  0.5481  0.8535
 7372TIP3    H243608   1.388   4.835   0.258 -1.3433 -0.0748  0.8858
 7373TIP3   OH243609   3.323   6.650  16.357  0.2197 -0.1947 -0.0615
 7373TIP3    H143610   3.361   6.629  16.442 -3.3781  0.8286  2.0588
 7373TIP3    H243611   3.288   6.739  16.368 -1.4889 -0.5166 -2.1570
 7374TIP3   OH243612   5.677   2.924  12.799 -0.1463 -0.2461 -0.3448
 7374TIP3    H143613   5.744   2.855  12.805 -0.6009 -0.6269  0.6412
 7374TIP3    H243614   5.657   2.946  12.890 -0.9204  0.2987 -0.6330
 7375TIP3   OH243615   1.772   1.189  12.068  0.3810  0.4217  0.2474
 7375TIP3    H143616   1.797   1.098  12.056 -2.1354 -0.1126 -1.9130
 7375TIP3    H243617   1.762   1.199  12.163  0.5072 -1.6189  0.5119
 7376TIP3   OH243618   4.586   6.080  12.465  0.0640  0.1041 -0.2018
 7376TIP3    H143619   4.500   6.086  12.425 -0.7841 -1.7841  1.1736
 7376TIP3    H243620   4.623   5.997  12.433  0.1192 -0.5356  1.4034
 7377TIP3   OH243621   4.782   3.611  13.989 -0.0936 -0.0405  0.1956
 7377TIP3    H143622   4.755   3.702  14.003 -2.2024 -0.4054 -1.0392
 7377TIP3    H243623   4.864   3.617  13.941 -1.7130  1.3652 -2.6982
 7378TIP3   OH243624   1.117   4.775   2.802 -0.2124 -0.3574  0.3255
 7378TIP3    H143625   1.080   4.698   2.844  0.6192 -0.8572  0.1598
 7378TIP3    H243626   1.183   4.807   2.863 -0.1458 -0.1200  0.1331
 7379TIP3   OH243627   3.494   3.139  14.653 -0.0636  0.4419 -0.6028
 7379TIP3    H143628   3.411   3.181  14.677 -0.0882 -0.8651  1.8290
 7379TIP3    H243629   3.559   3.209  14.657 -0.6652  0.9817 -0.1065
 7380TIP3   OH243630   5.812   4.021  14.744  0.3838 -0.2427  0.0114
 7380TIP3    H143631   5.875   4.076  14.790  1.5585 -0.8512 -0.8057
 7380TIP3    H243632   5.858   3.994  14.664 -0.2708 -2.1516  0.2373
 7381TIP3   OH243633   0.442   3.520  12.483  0.1221 -0.4179 -0.2035
 7381TIP3    H143634   0.482   3.571  12.413  0.0766 -1.7092 -1.1928
 7381TIP3    H243635   0.515   3.473  12.523  0.2644  0.8690  1.1367
 7382TIP3   OH243636   2.299   0.130   2.421 -0.0655 -0.0046 -0.1842
 7382TIP3    H143637   2.293   0.068   2.348  1.7806  1.1766 -1.4196
 7382TIP3    H243638   2.354   0.085   2.486 -0.3113 -0.4038 -0.2500
 7383TIP3   OH243639   2.808   1.523  16.559  0.4931  0.2834  0.6731
 7383TIP3    H143640   2.889   1.478  16.535  0.8307  1.0028  0.4092
 7383TIP3    H243641   2.741   1.455  16.559  0.9957 -0.2196  0.3403
 7384TIP3   OH243642   1.699   1.617  16.404 -0.2803 -0.0571  0.1987
 7384TIP3    H143643   1.661   1.536  16.371  1.4986 -0.8660 -0.0201
 7384TIP3    H243644   1.788   1.592  16.430  0.4230  1.8814 -0.1657
 7385TIP3   OH243645   3.388   1.700  10.516  0.0275 -0.1937 -0.3947
 7385TIP3    H143646   3.466   1.671  10.470  0.5995 -0.7719  0.8886
 7385TIP3    H243647   3.358   1.777  10.467 -0.0442 -1.3833 -2.3474
 7386TIP3   OH243648   6.104   1.189  14.519  0.1652 -0.0934 -0.2211
 7386TIP3    H143649   6.032   1.138  14.557 -0.0635  0.3044 -0.1202
 7386TIP3    H243650   6.073   1.279  14.520  1.1399  0.2594  0.9497
 7387TIP3   OH243651   5.598   6.794   0.981  0.1155  0.0459  0.4740
 7387TIP3    H143652   5.544   6.869   1.007  1.3500  0.7749  0.9943
 7387TIP3    H243653   5.642   6.767   1.062  0.2176 -0.8119  0.1422
 7388TIP3   OH243654   5.190   2.413  12.308  0.2405  0.1406  0.4056
 7388TIP3    H143655   5.230   2.491  12.346  1.4629 -0.0375 -0.4378
 7388TIP3    H243656   5.178   2.434  12.216 -0.7283 -0.1738  0.4511
 7389TIP3   OH243657   2.576   4.626  14.151 -0.5736  0.1084  0.1202
 7389TIP3    H143658   2.663   4.588  14.142 -1.2013 -1.1874 -0.8260
 7389TIP3    H243659   2.572   4.693  14.083 -1.2600 -1.7901 -1.8279
 7390TIP3   OH243660   2.374   5.960   1.928  0.0009 -0.0183 -0.2456
 7390TIP3    H143661   2.360   5.880   1.877 -2.8989 -0.6768  1.4091
 7390TIP3    H243662   2.322   6.027   1.884 -3.0225 -0.7268  1.8945
 7391TIP3   OH243663   3.319   5.628   3.529  0.3226  0.0767  0.4914
 7391TIP3    H143664   3.407   5.653   3.501 -0.3707  3.3412  0.7133
 7391TIP3    H243665   3.332   5.561   3.596  2.3645 -2.3707 -2.1342
 7392TIP3   OH243666   0.098   0.459  12.031  0.2794  0.0767  0.4122
 7392TIP3    H143667   0.026   0.427  12.086  2.0365 -3.3693  0.9994
 7392TIP3    H243668   0.165   0.487  12.094  0.0720  1.8604 -0.1189
 7393TIP3   OH243669   6.590   2.747   5.189  0.0768  0.0679  0.2682
 7393TIP3    H143670   6.615   2.779   5.276  0.3910 -0.8133  0.5147
 7393TIP3    H243671   6.559   2.825   5.143  0.7319  0.7075  0.8773
 7394TIP3   OH243672   3.153   2.975   3.534 -0.1680 -0.1873 -0.6017
 7394TIP3    H143673   3.243   2.995   3.558 -0.7337  1.5641  0.2040
 7394TIP3    H243674   3.120   3.055   3.494 -1.0742 -1.1374 -1.8621
 7395TIP3   OH243675   0.549   4.171  12.937 -0.3601 -0.3783  0.3227
 7395TIP3    H143676   0.551   4.235  12.865 -0.9713 -2.0628 -1.2720
 7395TIP3    H243677   0.472   4.118  12.919 -0.7199 -0.6345  2.4650
 7396TIP3   OH243678   2.310   0.759  12.060  0.1265  0.0037 -0.1451
 7396TIP3    H143679   2.367   0.753  11.984  2.2773 -4.3617  1.4520
 7396TIP3    H243680   2.241   0.694  12.045 -0.8885  0.8431  0.6218
 7397TIP3   OH243681   1.554   6.262   5.453  0.0774 -0.3815  0.7799
 7397TIP3    H143682   1.488   6.245   5.386  1.9744 -0.2059 -1.2346
 7397TIP3    H243683   1.569   6.357   5.450 -0.3133 -0.2567  1.9876
 7398TIP3   OH243684   2.459   2.115  16.490  0.0972 -0.1319  0.4632
 7398TIP3    H143685   2.435   2.089  16.579  1.3707 -0.5258  0.7121
 7398TIP3    H243686   2.548   2.082  16.478  0.0350  0.1217 -0.8794
 7399TIP3   OH243687   2.469   0.799  13.556 -0.2739 -0.1879  0.3340
 7399TIP3    H143688   2.420   0.878  13.531  1.2775  0.2648 -1.5620
 7399TIP3    H243689   2.415   0.726  13.525 -1.8006  0.0449  2.2447
 7400TIP3   OH243690   5.948   4.127   3.533  0.3462 -0.1354 -0.0854
 7400TIP3    H143691   5.869   4.074   3.526 -0.8476  1.6212 -0.7058
 7400TIP3    H243692   5.968   4.153   3.444  0.9661  0.3419  0.1860
 7401TIP3   OH243693   3.661   2.413   2.109  0.0835  0.0646  0.1264
 7401TIP3    H143694   3.584   2.361   2.087 -0.2763  0.9227 -0.7457
 7401TIP3    H243695   3.698   2.371   2.187 -1.7052  0.0786  1.0338
 7402TIP3   OH243696   4.310   5.428  13.076 -0.1692 -0.0232  0.2403
 7402TIP3    H143697   4.406   5.425  13.075 -0.1486  0.5716 -0.0089
 7402TIP3    H243698   4.288   5.503  13.020 -0.7403  0.6861  1.3865
 7403TIP3   OH243699   2.972   2.760   2.619  0.3326  0.1133 -0.4679
 7403TIP3    H143700   2.976   2.845   2.575  0.0418  0.9187  0.9749
 7403TIP3    H243701   3.055   2.754   2.666  0.4261 -0.4938 -0.7076
 7404TIP3   OH243702   1.333   6.807  15.994  0.5283  0.1481 -0.3284
 7404TIP3    H143703   1.315   6.798  15.901 -0.7888 -1.1160  0.0167
 7404TIP3    H243704   1.311   6.722  16.032 -0.1129  0.9862  1.2997
 7405TIP3   OH243705   6.561   2.464   2.835  0.3488  0.7510  0.2072
 7405TIP3    H143706   6.556   2.549   2.879 -0.1846  1.2087 -0.6985
 7405TIP3    H243707   6.546   2.401   2.905  1.3244  1.3595  1.0009
 7406TIP3   OH243708   1.694   3.456  14.070 -0.0408  0.2853 -0.1919
 7406TIP3    H143709   1.613   3.420  14.035 -0.3217  1.0186 -0.3260
 7406TIP3    H243710   1.709   3.408  14.151  0.4582 -1.2265 -1.1494
 7407TIP3   OH243711   3.185   0.005  10.734  0.5156 -0.0096 -0.8800
 7407TIP3    H143712   3.111   0.057  10.703  0.0315  0.1881  0.5449
 7407TIP3    H243713   3.250   0.070  10.761 -0.4559 -0.0051  1.8071
 7408TIP3   OH243714   4.898   3.603   3.678 -0.5560  0.2035  0.2563
 7408TIP3    H143715   4.967   3.551   3.639 -1.2266 -0.4310 -0.1028
 7408TIP3    H243716   4.847   3.636   3.604 -0.0895  1.4672  0.4659
 7409TIP3   OH243717   3.873   2.706  12.632 -1.2191 -0.3628  0.4319
 7409TIP3    H143718   3.784   2.673  12.623 -1.6956 -0.1815  3.4779
 7409TIP3    H243719   3.864   2.801  12.631 -0.9439 -0.3371  0.0061
 7410TIP3   OH243720   3.137   6.647   5.764  0.5715  0.3402  0.0357
 7410TIP3    H143721   3.137   6.679   5.854 -1.5320 -0.7965  0.4814
 7410TIP3    H243722   3.045   6.639   5.740  1.0131  2.2668 -2.8710
 7411TIP3   OH243723   2.899   2.288   1.979 -0.2033  0.3308 -0.0484
 7411TIP3    H143724   2.916   2.375   2.015 -0.7957  1.6040 -2.6490
 7411TIP3    H243725   2.866   2.304   1.891  1.5402 -2.5926 -1.3749
 7412TIP3   OH243726   3.890   1.130   0.525  0.7201 -0.4774  0.2758
 7412TIP3    H143727   3.976   1.092   0.506 -0.2356 -2.9353  0.4763
 7412TIP3    H243728   3.886   1.132   0.621  0.5099 -0.5317  0.2688
 7413TIP3   OH243729   4.468   3.792   2.129 -0.1600 -0.1807 -0.2812
 7413TIP3    H143730   4.465   3.753   2.042  0.6606  0.2924 -0.5346
 7413TIP3    H243731   4.376   3.795   2.157 -0.7611  1.8256 -2.1227
 7414TIP3   OH243732   6.247   2.979  13.623 -0.3370  0.1786  0.5358
 7414TIP3    H143733   6.166   2.930  13.611  0.5156 -0.7985 -1.5923
 7414TIP3    H243734   6.316   2.917  13.602  0.9867  1.0585  2.1033
 7415TIP3   OH243735   1.784   2.190  11.501 -0.4264 -0.2017 -0.1263
 7415TIP3    H143736   1.691   2.167  11.497 -1.3094  2.8887 -0.0178
 7415TIP3    H243737   1.785   2.283  11.525  2.7627 -0.6187  2.0465
 7416TIP3   OH243738   4.576   5.214   0.986  0.3383  0.4148 -0.1088
 7416TIP3    H143739   4.671   5.208   0.983  0.2800 -0.8472  0.0693
 7416TIP3    H243740   4.546   5.145   0.926 -0.4652  0.4061  0.2946
 7417TIP3   OH243741   0.673   5.270  13.904  0.4100  0.2219  0.1292
 7417TIP3    H143742   0.620   5.309  13.835 -2.1431 -1.8450  0.7684
 7417TIP3    H243743   0.713   5.193  13.862  1.3521  0.6764  0.1738
 7418TIP3   OH243744   2.520   1.439  16.357 -0.4750  0.0854 -0.8272
 7418TIP3    H143745   2.539   1.533  16.355 -1.5318  0.3075 -1.3218
 7418TIP3    H243746   2.445   1.431  16.416  2.0738 -0.9822  2.5731
 7419TIP3   OH243747   0.972   2.991   0.738  0.8963  0.1485 -0.1871
 7419TIP3    H143748   0.988   2.978   0.645  0.3886 -2.1527 -0.0239
 7419TIP3    H243749   1.058   3.010   0.775  1.2425  0.1900 -0.9997
 7420TIP3   OH243750   6.853   3.249  13.983  0.0282 -0.2968 -0.2850
 7420TIP3    H143751   6.767   3.214  13.962  0.2512 -1.6482  0.8983
 7420TIP3    H243752   6.887   3.190  14.050  1.0514  1.3509  0.7277
 7421TIP3   OH243753   4.001   4.613  16.512 -0.0658 -0.3222  0.3259
 7421TIP3    H143754   3.961   4.581  16.593 -1.9911 -1.7119 -1.0784
 7421TIP3    H243755   4.095   4.599  16.525 -0.5482 -4.1701  0.9464
 7422TIP3   OH243756   2.868   4.857   3.840  0.0374  0.0585 -0.4473
 7422TIP3    H143757   2.910   4.906   3.911 -1.7663 -0.1681  0.8543
 7422TIP3    H243758   2.781   4.896   3.832 -1.1052 -2.2306 -0.0624
 7423TIP3   OH243759   6.373   1.650  14.983  0.5726  0.1861 -0.0792
 7423TIP3    H143760   6.431   1.624  15.055 -2.4372  0.1350  2.5513
 7423TIP3    H243761   6.302   1.586  14.985 -0.1509  0.8102 -2.4871
 7424TIP3   OH243762   0.186   6.515  14.146 -0.5332 -0.3608 -0.2529
 7424TIP3    H143763   0.276   6.539  14.122 -1.3843  3.2937 -0.3964
 7424TIP3    H243764   0.142   6.500  14.063 -0.1955 -1.8588 -0.1936
 7425TIP3   OH243765   3.140   2.073  14.735 -0.0916 -0.2843  0.4016
 7425TIP3    H143766   3.086   1.996  14.749 -2.6244  1.6337  2.2955
 7425TIP3    H243767   3.107   2.137  14.799  1.4364  2.5748 -1.4459
 7426TIP3   OH243768   1.656   6.273  11.628  0.2316  0.6618 -0.3506
 7426TIP3    H143769   1.738   6.295  11.672 -0.1339  0.7246  0.2984
 7426TIP3    H243770   1.675   6.190  11.583  0.1845 -0.1994  1.1396
 7427TIP3   OH243771   5.161   4.160  13.515 -0.5337  0.6658 -0.1204
 7427TIP3    H143772   5.235   4.197  13.563 -0.3163  2.2236 -1.5346
 7427TIP3    H243773   5.201   4.121  13.437 -0.9583 -1.0442  0.4736
 7428TIP3   OH243774   6.398   5.409   3.118  0.3298  0.0266  0.6024
 7428TIP3    H143775   6.474   5.351   3.118  0.6529  0.4350  0.0051
 7428TIP3    H243776   6.435   5.497   3.109 -0.2469  0.1447 -0.9487
 7429TIP3   OH243777   2.687   2.221  13.095 -0.0249  0.2320 -0.4097
 7429TIP3    H143778   2.633   2.177  13.161 -1.5169 -0.7681 -2.2075
 7429TIP3    H243779   2.729   2.149  13.047 -0.0105  0.8663 -1.3766
 7430TIP3   OH243780   2.115   1.531   0.803 -0.1120  0.8528  0.3704
 7430TIP3    H143781   2.180   1.504   0.868  1.8708  1.8631 -1.0790
 7430TIP3    H243782   2.055   1.587   0.851  0.5519  0.5384  1.6071
 7431TIP3   OH243783   5.400   5.051   4.096 -0.1556 -0.2719  0.3548
 7431TIP3    H143784   5.308   5.025   4.088  0.5319 -3.1524  0.5814
 7431TIP3    H243785   5.432   5.002   4.172  1.9208 -0.5588 -0.6261
 7432TIP3   OH243786   2.371   4.767  15.590 -0.0715  0.4487  0.5007
 7432TIP3    H143787   2.399   4.810  15.671 -0.7539 -0.9218  1.5143
 7432TIP3    H243788   2.405   4.678  15.597 -3.3469 -0.9306  1.2047
 7433TIP3   OH243789   3.741   2.836   5.777  0.8918 -0.3350 -0.3281
 7433TIP3    H143790   3.700   2.759   5.816  1.8350 -0.3298  0.7192
 7433TIP3    H243791   3.763   2.809   5.687 -0.6321 -0.5888 -0.6575
 7434TIP3   OH243792   4.684   3.868  10.460 -0.1891  0.1991 -0.2646
 7434TIP3    H143793   4.608   3.817  10.431 -0.0436  0.2802 -0.8075
 7434TIP3    H243794   4.759   3.816  10.432 -0.0371 -0.0810  0.6312
 7435TIP3   OH243795   0.686   0.699   0.148  0.5127 -0.1098 -0.0341
 7435TIP3    H143796   0.727   0.702   0.235 -0.7737 -2.1458  0.7320
 7435TIP3    H243797   0.733   0.628   0.103 -1.7853 -2.2843  0.7611
 7436TIP3   OH243798   0.403   0.026  12.038 -0.3904  0.3717 -0.2825
 7436TIP3    H143799   0.441   0.112  12.058 -0.5529  0.1762  0.9905
 7436TIP3    H243800   0.392   0.025  11.943  0.1198  1.5453 -0.3653
 7437TIP3   OH243801   2.458   6.035  14.836  0.1833 -0.3192 -0.4336
 7437TIP3    H143802   2.393   5.970  14.809  2.2826 -1.8888 -2.0313
 7437TIP3    H243803   2.425   6.117  14.798 -1.4067 -0.8288 -0.2500
 7438TIP3   OH243804   3.571   2.699   6.092  0.1915  0.8390 -0.3483
 7438TIP3    H143805   3.547   2.660   6.176 -1.8059 -0.0617 -1.2714
 7438TIP3    H243806   3.619   2.778   6.115 -0.9478  1.0093  1.6488
 7439TIP3   OH243807   1.536   4.646   2.046  0.0787  0.1718  0.0010
 7439TIP3    H143808   1.528   4.718   1.983  1.5762  0.6883  0.3496
 7439TIP3    H243809   1.606   4.674   2.105 -0.3499 -0.9219  1.0579
 7440TIP3   OH243810   1.789   4.814   5.938  0.2572  0.6164 -0.3756
 7440TIP3    H143811   1.851   4.831   5.867 -0.2123  1.2822 -0.6345
 7440TIP3    H243812   1.710   4.862   5.913  0.7055  2.5103  1.5007
 7441TIP3   OH243813   4.599   2.664   3.467 -0.0979  0.2226 -0.0825
 7441TIP3    H143814   4.542   2.596   3.431  1.1534 -0.5301 -0.7350
 7441TIP3    H243815   4.665   2.678   3.399 -0.5094  2.3550 -0.1101
 7442TIP3   OH243816   1.399   6.025  15.016  0.1740 -0.3881 -0.2510
 7442TIP3    H143817   1.449   6.042  15.096  0.1452 -0.1529 -0.2806
 7442TIP3    H243818   1.362   5.938  15.028  0.4454 -0.4898 -0.1506
 7443TIP3   OH243819   0.462   2.415   2.161  0.3613 -0.2965  0.7086
 7443TIP3    H143820   0.530   2.384   2.101 -0.7326  0.9609 -1.2877
 7443TIP3    H243821   0.504   2.484   2.211  0.8356 -0.2039  0.1905
 7444TIP3   OH243822   5.712   4.246  11.324 -0.3698 -0.0518 -0.0865
 7444TIP3    H143823   5.690   4.174  11.265  0.6628 -0.4595 -0.0119
 7444TIP3    H243824   5.767   4.205  11.391  1.5751  1.0540 -0.9042
 7445TIP3   OH243825   2.739   3.899  13.401  0.2559 -0.0448  0.7324
 7445TIP3    H143826   2.686   3.937  13.470  0.9311  0.6443  0.8894
 7445TIP3    H243827   2.768   3.974  13.349 -0.9204 -0.6060 -0.8074
 7446TIP3   OH243828   4.909   2.218   4.107  0.5422 -0.9361  0.4238
 7446TIP3    H143829   4.871   2.305   4.120  1.2444 -0.2972 -1.5181
 7446TIP3    H243830   4.950   2.197   4.191 -0.7543  0.0053  1.3361
 7447TIP3   OH243831   4.272   6.324   4.111  0.5819 -0.1385  0.4662
 7447TIP3    H143832   4.323   6.402   4.133  0.2990  0.3828 -0.6709
 7447TIP3    H243833   4.235   6.296   4.194 -0.1422  1.5413  0.7471
 7448TIP3   OH243834   2.123   4.311  13.326  0.5794 -0.1218  0.1998
 7448TIP3    H143835   2.155   4.236  13.276  3.3459  0.5786  0.7950
 7448TIP3    H243836   2.113   4.278  13.415 -0.6803 -0.3828 -0.0135
 7449TIP3   OH243837   1.864   3.574   0.193  0.4844  0.1275 -0.1959
 7449TIP3    H143838   1.959   3.561   0.190  0.4993  0.4257 -3.0742
 7449TIP3    H243839   1.837   3.581   0.102 -2.3745 -0.1631  0.5300
 7450TIP3   OH243840   1.576   5.580  15.726  0.3537 -0.2376  0.1236
 7450TIP3    H143841   1.638   5.563  15.656 -1.1576 -3.1086 -0.6887
 7450TIP3    H243842   1.527   5.657  15.698  1.2680 -0.0003 -0.8552
 7451TIP3   OH243843   6.779   6.607  12.350  0.0796 -0.0811 -0.1443
 7451TIP3    H143844   6.729   6.531  12.381 -1.1514  0.8047  0.1234
 7451TIP3    H243845   6.783   6.596  12.255  0.2667 -0.6806 -0.0723
 7452TIP3   OH243846   6.842   5.895  14.918 -0.1202 -0.0972 -0.3430
 7452TIP3    H143847   6.853   5.855  14.832  0.3193 -2.1948  0.6133
 7452TIP3    H243848   6.841   5.821  14.979  2.1852  1.4128  1.7184
 7453TIP3   OH243849   2.271   4.157   3.286 -0.4372 -0.3260 -0.7653
 7453TIP3    H143850   2.320   4.182   3.364 -0.4939 -1.4394 -0.3424
 7453TIP3    H243851   2.188   4.123   3.321  0.1478 -2.2925 -1.1677
 7454TIP3   OH243852   0.095   4.155  15.433 -0.5699  0.4035  0.2470
 7454TIP3    H143853   0.013   4.136  15.478  0.3289  1.2189  2.3243
 7454TIP3    H243854   0.075   4.231  15.378 -0.8153  1.7519  2.0976
 7455TIP3   OH243855   6.297   0.574  17.015 -0.2527 -0.2102 -0.0840
 7455TIP3    H143856   6.344   0.562  16.933 -0.6066  1.3058 -0.5450
 7455TIP3    H243857   6.362   0.612  17.074 -0.7161  1.4447 -0.5805
 7456TIP3   OH243858   6.548   6.423   3.556 -0.5175 -0.6168 -0.3031
 7456TIP3    H143859   6.465   6.454   3.593 -0.0009  1.3574 -0.6649
 7456TIP3    H243860   6.595   6.385   3.629 -1.2702 -0.6955  0.1485
 7457TIP3   OH243861   0.689   4.389  11.276  0.3090  0.0921 -0.2098
 7457TIP3    H143862   0.601   4.380  11.311  0.7505 -0.5794  0.7889
 7457TIP3    H243863   0.695   4.480  11.248  0.1685  0.9384  2.2543
 7458TIP3   OH243864   2.747   6.460  11.673  0.2039  0.5489 -0.1758
 7458TIP3    H143865   2.738   6.374  11.714  1.1715 -1.0954 -3.1456
 7458TIP3    H243866   2.661   6.501  11.685 -0.9083 -1.6052 -0.3025
 7459TIP3   OH243867   3.283   3.355   2.037 -0.2421 -0.0614 -0.5048
 7459TIP3    H143868   3.322   3.403   2.110 -0.1613  0.5471 -0.9435
 7459TIP3    H243869   3.354   3.345   1.974 -0.4887  0.0264 -0.7975
 7460TIP3   OH243870   3.690   1.176  13.632  0.0050  0.0874  0.6853
 7460TIP3    H143871   3.650   1.123  13.700 -1.4408  1.7136  1.1713
 7460TIP3    H243872   3.777   1.199  13.667  0.0985 -0.8104  1.0452
 7461TIP3   OH243873   6.689   5.022   3.253  0.0894  0.5555 -0.1035
 7461TIP3    H143874   6.757   4.973   3.206 -0.2628  1.7769 -2.0174
 7461TIP3    H243875   6.707   5.007   3.345  1.9598 -0.4829 -0.5946
 7462TIP3   OH243876   0.015   4.199   2.784 -1.0927 -0.1742 -0.3156
 7462TIP3    H143877  -0.036   4.142   2.842 -1.0945 -0.7407 -0.8673
 7462TIP3    H243878  -0.025   4.286   2.795 -0.6975 -0.1427  0.9879
 7463TIP3   OH243879   0.484   4.575  12.189 -0.3729  0.0236  0.4773
 7463TIP3    H143880   0.481   4.664  12.153  1.5008  0.1898  0.6748
 7463TIP3    H243881   0.452   4.520  12.118 -0.9490  0.7774  0.1291
 7464TIP3   OH243882   0.432   0.352  13.437  0.9235  0.9417  0.1868
 7464TIP3    H143883   0.490   0.277  13.453  0.2471  0.5482  0.8409
 7464TIP3    H243884   0.407   0.343  13.345  0.5132  0.1033  0.3660
 7465TIP3   OH243885   4.119   4.620  14.203 -0.0726 -0.0522  0.3880
 7465TIP3    H143886   4.211   4.645  14.216 -0.5695  0.9556  2.2519
 7465TIP3    H243887   4.085   4.688  14.145 -0.1407  0.8027  1.3909
 7466TIP3   OH243888   4.941   1.404  16.873 -0.2918  0.2991  0.4183
 7466TIP3    H143889   4.924   1.443  16.959 -0.1125  0.5156  0.3550
 7466TIP3    H243890   4.870   1.436  16.818 -1.2882 -1.0397  0.8484
 7467TIP3   OH243891   3.854   4.231  16.751 -0.0499  0.1620 -0.4750
 7467TIP3    H143892   3.867   4.202  16.842  2.0600 -0.8700 -1.0545
 7467TIP3    H243893   3.894   4.163  16.698 -2.1114  0.2570 -2.2859
 7468TIP3   OH243894   6.351   6.114   3.351  0.0650 -0.3170  0.0920
 7468TIP3    H143895   6.434   6.139   3.391  0.1229 -0.8684  0.3156
 7468TIP3    H243896   6.374   6.053   3.282  0.0129  1.0118 -1.1581
 7469TIP3   OH243897   2.278   0.059  14.003 -0.3960  0.2803 -0.4949
 7469TIP3    H143898   2.341  -0.014  14.004 -0.7329 -0.0860  2.3160
 7469TIP3    H243899   2.326   0.132  14.041 -1.4901  0.0870  1.3814
 7470TIP3   OH243900   2.499   3.277  14.118  0.4897  0.0000  0.1609
 7470TIP3    H143901   2.539   3.296  14.033  3.0251 -0.6247  1.1070
 7470TIP3    H243902   2.429   3.214  14.099 -0.0245  1.0483 -1.5917
 7471TIP3   OH243903   5.758   3.600  14.668 -0.0424 -0.0674 -0.1476
 7471TIP3    H143904   5.734   3.689  14.695  0.7527  1.0194 -2.7118
 7471TIP3    H243905   5.825   3.573  14.731 -1.9061  0.1381  2.0795
 7472TIP3   OH243906   5.571   6.635   1.599  0.2458  0.4358 -0.0343
 7472TIP3    H143907   5.515   6.566   1.635  0.4145  0.5091  0.3754
 7472TIP3    H243908   5.654   6.591   1.582 -0.1437  0.1514 -1.3325
 7473TIP3   OH243909   2.059   3.354   5.898 -0.1293  0.3677 -0.1224
 7473TIP3    H143910   1.964   3.362   5.913 -0.2062 -1.1795  0.4931
 7473TIP3    H243911   2.097   3.428   5.944 -1.1434  2.3144 -2.2468
 7474TIP3   OH243912   0.242   3.008  12.414 -0.1380 -0.5250  0.3879
 7474TIP3    H143913   0.245   2.995  12.509 -0.0965 -0.4684  0.3944
 7474TIP3    H243914   0.278   3.096  12.400 -0.4510 -0.4016  0.3461
 7475TIP3   OH243915   1.701   4.135  16.998 -0.2165 -0.1488  0.1104
 7475TIP3    H143916   1.634   4.195  17.033  0.7778  1.0890 -0.0299
 7475TIP3    H243917   1.738   4.182  16.923 -0.2850 -1.5127 -0.8215
 7476TIP3   OH243918   1.587   5.110  13.435 -0.2708 -1.2869 -0.4334
 7476TIP3    H143919   1.666   5.058  13.423  1.4052  0.8341  0.6266
 7476TIP3    H243920   1.573   5.112  13.530  0.2323  0.8002 -0.3509
 7477TIP3   OH243921   1.505   4.024   3.889  0.5161  0.0923  0.3401
 7477TIP3    H143922   1.543   4.049   3.805  0.0275 -0.8134 -0.1704
 7477TIP3    H243923   1.423   3.981   3.866 -0.3160  1.0676  1.3643
 7478TIP3   OH243924   6.244   5.630   1.943 -0.5385 -0.3889  0.3193
 7478TIP3    H143925   6.173   5.631   1.879 -0.2625 -0.1842  0.0105
 7478TIP3    H243926   6.294   5.551   1.922 -0.4679 -0.3396  0.2994
 7479TIP3   OH243927   0.209   2.597  12.884 -0.3820  0.4937  0.6121
 7479TIP3    H143928   0.231   2.605  12.791  1.0406 -1.5831  0.6885
 7479TIP3    H243929   0.273   2.653  12.929  0.2325 -0.0511  0.4312
 7480TIP3   OH243930   1.732   1.704  12.201  0.2345 -0.1687  0.5147
 7480TIP3    H143931   1.793   1.677  12.132  0.4766 -1.3445  1.1732
 7480TIP3    H243932   1.646   1.676  12.169  0.0781  1.0442 -0.1848
 7481TIP3   OH243933   0.368   5.067  11.874  0.1546  0.6656  0.3133
 7481TIP3    H143934   0.376   4.983  11.920 -1.3517  1.2748  1.7863
 7481TIP3    H243935   0.442   5.118  11.904 -0.9718  1.1625  2.4016
 7482TIP3   OH243936   3.153   5.994  10.385  0.1719  0.2428 -0.0510
 7482TIP3    H143937   3.100   5.972  10.309 -0.6283  0.6375  0.3778
 7482TIP3    H243938   3.231   6.038  10.349 -2.0075  4.2018 -0.5502
 7483TIP3   OH243939   3.708   1.878   5.205  0.4305 -0.5947  0.0721
 7483TIP3    H143940   3.713   1.784   5.188 -0.2487 -1.1635  2.5578
 7483TIP3    H243941   3.655   1.912   5.134 -2.3508 -2.7349  0.9096
 7484TIP3   OH243942   0.634   6.142   1.235 -0.5902  0.3090  0.1557
 7484TIP3    H143943   0.674   6.187   1.160 -0.7379  1.3869  0.6952
 7484TIP3    H243944   0.621   6.052   1.205  0.0896  0.5174 -0.8314
 7485TIP3   OH243945   5.166   4.275   3.829  0.3931 -0.0805 -0.2027
 7485TIP3    H143946   5.208   4.299   3.747  0.0603 -0.1483 -0.3944
 7485TIP3    H243947   5.214   4.198   3.859 -2.4790 -3.2140 -2.8285
 7486TIP3   OH243948   0.092   3.518  13.627 -1.0645 -0.2364  0.0902
 7486TIP3    H143949   0.025   3.528  13.558 -1.4062  0.6999  0.5408
 7486TIP3    H243950   0.071   3.434  13.668 -0.0432 -1.4651 -1.7905
 7487TIP3   OH243951   6.152   2.568  17.067 -0.1299 -0.7097  0.0465
 7487TIP3    H143952   6.226   2.591  17.123  0.5873 -1.4661 -0.5669
 7487TIP3    H243953   6.181   2.589  16.978 -0.3817 -1.6422 -0.2718
 7488TIP3   OH243954   5.854   4.830  14.743 -0.2485  0.8378  0.3680
 7488TIP3    H143955   5.925   4.864  14.688 -0.6563  0.6758 -0.2801
 7488TIP3    H243956   5.852   4.888  14.819  1.8053 -0.2559  1.3488
 7489TIP3   OH243957   0.966   1.800  13.868 -0.4959 -0.2180  0.1815
 7489TIP3    H143958   0.947   1.715  13.908  0.1295  0.1829  1.3952
 7489TIP3    H243959   1.061   1.810  13.878 -0.5064  0.4410 -0.3270
 7490TIP3   OH243960   3.242   5.296   0.887 -0.2547 -0.0321 -0.0628
 7490TIP3    H143961   3.152   5.323   0.905 -0.5046 -0.3392 -0.8221
 7490TIP3    H243962   3.277   5.363   0.829  0.0051  0.0846  0.2279
 7491TIP3   OH243963   3.805   0.778   2.660  0.6669  0.2190 -0.1376
 7491TIP3    H143964   3.783   0.707   2.600  0.1569  1.2409 -1.1990
 7491TIP3    H243965   3.888   0.812   2.627  0.7784  0.2904  0.2109
 7492TIP3   OH243966   1.909   3.547  14.517  0.3176 -0.0335  0.8337
 7492TIP3    H143967   1.945   3.616  14.572 -0.4555  0.6092  0.5619
 7492TIP3    H243968   1.976   3.532  14.450  1.0239 -0.4342  1.6148
 7493TIP3   OH243969   2.390   5.563   3.179  0.2617 -0.4778  0.1222
 7493TIP3    H143970   2.376   5.474   3.146  0.6751 -0.5547  0.1497
 7493TIP3    H243971   2.485   5.572   3.184  0.2217 -0.8624  2.3831
 7494TIP3   OH243972   2.516   6.415   0.263  0.1494  0.2740 -0.1425
 7494TIP3    H143973   2.539   6.373   0.181 -1.1579 -0.6540 -0.0599
 7494TIP3    H243974   2.589   6.394   0.322  0.2163 -0.6568 -0.5371
 7495TIP3   OH243975   1.204   6.464   5.603  0.0373 -0.7174  0.1846
 7495TIP3    H143976   1.189   6.529   5.671  0.1933 -0.1842 -0.2809
 7495TIP3    H243977   1.129   6.472   5.545 -0.1293 -1.2161  0.3292
 7496TIP3   OH243978   0.741   2.467   3.068  0.4549 -0.0441  0.1382
 7496TIP3    H143979   0.676   2.478   2.999  0.9408 -0.1387 -0.3392
 7496TIP3    H243980   0.794   2.547   3.063  0.9799 -0.3995 -0.1279
 7497TIP3   OH243981   5.140   0.776  12.257 -0.5032  0.1729  0.5514
 7497TIP3    H143982   5.131   0.863  12.295 -1.6740 -0.4040  1.6684
 7497TIP3    H243983   5.211   0.735  12.306  1.8964  1.3303 -1.7104
 7498TIP3   OH243984   1.567   5.883  12.093 -0.0014  0.6094 -0.4938
 7498TIP3    H143985   1.557   5.788  12.091 -0.0870  0.5244  1.6714
 7498TIP3    H243986   1.488   5.916  12.051 -0.2054 -0.2637 -0.8291
 7499TIP3   OH243987   2.159   3.223   0.636  0.4968 -0.2764  0.4043
 7499TIP3    H143988   2.086   3.282   0.621 -0.3662 -0.8275  2.1960
 7499TIP3    H243989   2.156   3.161   0.563 -1.1561 -0.6027  0.7266
 7500TIP3   OH243990   1.315   5.551  13.284  0.2749 -0.2288 -0.4451
 7500TIP3    H143991   1.360   5.625  13.326 -1.6575  0.7532  0.0185
 7500TIP3    H243992   1.377   5.478  13.291  1.2353  0.6807  1.3787
 7501TIP3   OH243993   3.869   6.038   2.090  0.3421  0.4255  0.4551
 7501TIP3    H143994   3.820   6.003   2.164 -0.1018 -1.3594 -0.6167
 7501TIP3    H243995   3.842   5.983   2.016  0.2115  2.5983 -1.1857
 7502TIP3   OH243996   1.521   1.930   1.902 -0.2895 -0.3509  0.4712
 7502TIP3    H143997   1.579   1.927   1.978  1.0300  1.9066 -0.3530
 7502TIP3    H243998   1.564   1.875   1.836 -0.0079 -0.1187  0.4588
 7503TIP3   OH243999   2.827   1.564   5.402 -0.1463  0.6549  0.1338
 7503TIP3    H144000   2.871   1.572   5.487 -0.5801  1.8887  0.2661
 7503TIP3    H244001   2.899   1.557   5.339  0.1845 -0.0058  0.5791
 7504TIP3   OH244002   6.335   6.250  11.216 -0.5595  0.1423  0.1254
 7504TIP3    H144003   6.385   6.308  11.157  0.3171 -0.5933  0.1233
 7504TIP3    H244004   6.400   6.220  11.280 -1.1966 -0.1745  0.6289
 7505TIP3   OH244005   3.024   2.735   3.961 -0.5655  0.4772 -0.2073
 7505TIP3    H144006   3.065   2.792   4.026  1.2524  0.3664 -1.1953
 7505TIP3    H244007   3.027   2.786   3.880 -1.0387 -0.1357 -0.6192
 7506TIP3   OH244008   0.741   1.251  16.506 -0.5983 -0.0554 -0.0812
 7506TIP3    H144009   0.696   1.335  16.508 -0.0897  0.2490 -1.0156
 7506TIP3    H244010   0.820   1.264  16.558 -0.0857  0.3099 -0.9385
 7507TIP3   OH244011   4.008   4.581  13.386 -0.4581  0.0732  0.4866
 7507TIP3    H144012   4.089   4.583  13.437  1.2181 -2.5404 -1.7862
 7507TIP3    H244013   3.939   4.575  13.452  1.3114  0.2770  2.4828
 7508TIP3   OH244014   5.631   4.963  16.635  0.6189  0.3003  0.0036
 7508TIP3    H144015   5.563   4.929  16.578  1.3027 -3.3932  1.1364
 7508TIP3    H244016   5.583   5.002  16.708 -0.2994 -0.5982 -0.0995
 7509TIP3   OH244017   0.764   1.793   0.465 -0.3340  0.1470 -0.0738
 7509TIP3    H144018   0.823   1.844   0.521  0.1666  1.0085 -1.3442
 7509TIP3    H244019   0.727   1.727   0.524  0.3261  0.8812  1.2215
 7510TIP3   OH244020   6.811   4.458   2.773 -0.1922 -0.1150  0.4169
 7510TIP3    H144021   6.858   4.456   2.690  0.8846 -0.4425  1.0210
 7510TIP3    H244022   6.862   4.516   2.829 -0.1211 -0.9880  1.2909
 7511TIP3   OH244023   6.007   1.318   3.745  0.6281 -0.5542  0.1193
 7511TIP3    H144024   6.069   1.268   3.692  0.4361  0.5887 -1.2239
 7511TIP3    H244025   5.970   1.382   3.685 -2.4493 -1.6708  0.6564
 7512TIP3   OH244026   2.947   1.191  14.306 -0.3939 -0.1447  0.9400
 7512TIP3    H144027   2.855   1.191  14.280  0.1418 -0.9311 -1.1373
 7512TIP3    H244028   2.962   1.104  14.344  0.2863 -1.5214 -2.1515
 7513TIP3   OH244029   3.019   2.822   0.491  0.1717  0.0715  0.1904
 7513TIP3    H144030   3.046   2.734   0.516 -1.4791  0.0217  2.0800
 7513TIP3    H244031   2.928   2.828   0.519  0.6785  2.8798  1.6277
 7514TIP3   OH244032   0.591   0.664   6.073 -0.1851 -0.3545  0.1687
 7514TIP3    H144033   0.667   0.607   6.074  0.3178  0.3031  0.2967
 7514TIP3    H244034   0.625   0.749   6.045 -1.1856 -0.4925 -1.6285
 7515TIP3   OH244035   6.665   4.611  16.355 -0.6811 -0.2556  0.5261
 7515TIP3    H144036   6.642   4.676  16.289 -0.5177  1.0016  1.6739
 7515TIP3    H244037   6.666   4.659  16.437  1.9026 -1.1253  1.1136
 7516TIP3   OH244038   4.779   2.580   3.698  0.6403 -0.1043 -0.2384
 7516TIP3    H144039   4.793   2.487   3.679  0.0962 -0.2993  0.2771
 7516TIP3    H244040   4.701   2.603   3.647 -0.6410 -0.5510  1.4317
 7517TIP3   OH244041   1.044   0.925   0.633 -0.0777  0.1953 -0.2485
 7517TIP3    H144042   1.140   0.929   0.638 -0.0745  0.1900 -0.2963
 7517TIP3    H244043   1.019   1.004   0.585 -0.2311  1.0648  1.2341
 7518TIP3   OH244044   3.512   4.800  15.752  0.2444  0.0702  0.5847
 7518TIP3    H144045   3.581   4.740  15.780  0.6508  0.0012 -0.5359
 7518TIP3    H244046   3.459   4.749  15.691  0.3943  0.7312 -0.1124
 7519TIP3   OH244047   2.793   0.261  12.274  0.0814  0.3295  0.5965
 7519TIP3    H144048   2.820   0.332  12.217  2.2138  0.2327  1.4174
 7519TIP3    H244049   2.839   0.277  12.356 -1.6093 -0.4490  1.7619
 7520TIP3   OH244050   4.812   2.574   2.953 -0.2016 -0.3533  0.3956
 7520TIP3    H144051   4.813   2.625   3.035 -0.0679 -0.5658  0.5282
 7520TIP3    H244052   4.883   2.510   2.964  1.8746  1.5087 -1.0930
 7521TIP3   OH244053   1.754   6.739   1.847 -0.5396 -0.0846 -0.3857
 7521TIP3    H144054   1.737   6.812   1.906  0.7813 -0.5192  0.5754
 7521TIP3    H244055   1.773   6.665   1.905  2.1653 -0.1951 -1.3055
 7522TIP3   OH244056   1.127   6.461   3.987 -0.6331  0.6182  0.0479
 7522TIP3    H144057   1.120   6.551   3.954 -1.5983  0.1259 -1.1678
 7522TIP3    H244058   1.220   6.452   4.009  0.2518  0.9082 -2.9896
 7523TIP3   OH244059   4.641   1.408   0.542  0.0438 -0.2400 -0.1558
 7523TIP3    H144060   4.561   1.357   0.558 -0.0329  0.0551  0.4115
 7523TIP3    H244061   4.694   1.351   0.486 -0.9113 -0.0961 -1.2356
 7524TIP3   OH244062   6.827   3.464   3.653  0.2790 -0.0423 -0.1724
 7524TIP3    H144063   6.787   3.551   3.657 -1.5676 -0.8398 -0.5878
 7524TIP3    H244064   6.909   3.473   3.702 -1.0258  1.3319  1.8951
 7525TIP3   OH244065   5.803   1.811   4.900  0.3152 -0.5196  0.4980
 7525TIP3    H144066   5.872   1.787   4.839 -0.5486 -4.0579  0.7172
 7525TIP3    H244067   5.850   1.839   4.979  1.4125  1.7950 -0.8675
 7526TIP3   OH244068   4.745   0.042  14.627 -0.5505 -0.1986 -0.6747
 7526TIP3    H144069   4.694   0.046  14.709  0.6296  0.4320  0.0602
 7526TIP3    H244070   4.805  -0.031  14.640 -1.3908 -1.0724 -1.6254
 7527TIP3   OH244071   0.784   1.280   2.406  0.1357  0.2155 -0.4682
 7527TIP3    H144072   0.693   1.296   2.380 -0.5583 -2.2737  0.1123
 7527TIP3    H244073   0.781   1.273   2.501  0.6476 -1.2853 -0.5375
 7528TIP3   OH244074   0.293   5.798  11.036  1.0444  0.3547 -0.2855
 7528TIP3    H144075   0.299   5.722  11.094  1.3817 -0.6473 -1.5895
 7528TIP3    H244076   0.357   5.781  10.967 -0.6219  0.5881 -1.9695
 7529TIP3   OH244077   3.933   6.410   4.303 -0.2717  0.2629 -0.0124
 7529TIP3    H144078   3.961   6.319   4.291 -0.5393  0.2737 -0.7711
 7529TIP3    H244079   4.014   6.459   4.315 -0.1346 -0.0978  0.5459
 7530TIP3   OH244080   1.354   5.879   3.848  0.2543 -0.5304 -0.4298
 7530TIP3    H144081   1.272   5.870   3.897  1.2277 -0.2993  1.3064
 7530TIP3    H244082   1.360   5.798   3.798  0.3491 -1.8751  1.6407
 7531TIP3   OH244083   1.663   4.376  13.821  0.2629 -0.2117 -0.0666
 7531TIP3    H144084   1.670   4.417  13.735 -3.0661 -2.8142 -1.8476
 7531TIP3    H244085   1.715   4.296  13.814  0.3402 -0.2174  0.5115
 7532TIP3   OH244086   6.668   2.765  11.830  0.0098 -0.6914 -0.3095
 7532TIP3    H144087   6.704   2.767  11.919  2.2368  0.9090 -1.1506
 7532TIP3    H244088   6.603   2.695  11.832  0.0466 -0.7660  2.5354
 7533TIP3   OH244089   5.590   2.124   5.822  0.5663 -0.1203  0.0498
 7533TIP3    H144090   5.632   2.097   5.741 -2.0457 -1.4189 -0.9928
 7533TIP3    H244091   5.616   2.057   5.886  1.0018 -0.2252 -0.2334
 7534TIP3   OH244092   4.442   3.406  16.854  0.6709  0.0492 -0.2029
 7534TIP3    H144093   4.401   3.395  16.768 -0.7103 -1.2018  0.5551
 7534TIP3    H244094   4.385   3.468  16.900  0.7992 -0.0996  0.1599
 7535TIP3   OH244095   2.589   1.648  13.059 -0.4016  0.4584  0.0329
 7535TIP3    H144096   2.624   1.560  13.073 -0.4395  0.7643  2.4538
 7535TIP3    H244097   2.504   1.634  13.018 -1.1436 -0.7899  1.8593
 7536TIP3   OH244098   3.537   2.897  14.140  0.7077 -0.0064  0.0352
 7536TIP3    H144099   3.604   2.934  14.197  1.2612 -1.6881  0.5433
 7536TIP3    H244100   3.583   2.830  14.089 -0.0822  0.4816 -1.3913
 7537TIP3   OH244101   2.103   0.772  12.382 -0.1624  0.0528  0.5429
 7537TIP3    H144102   2.142   0.856  12.406 -0.4505  0.5940 -0.8446
 7537TIP3    H244103   2.176   0.710  12.391  0.8695  0.9360 -1.2824
 7538TIP3   OH244104   4.636   6.107  13.572 -0.0925  0.1835  0.8393
 7538TIP3    H144105   4.621   6.130  13.481  0.4204 -0.0728  0.6869
 7538TIP3    H244106   4.561   6.052  13.596  0.5283 -1.0310  0.1061
 7539TIP3   OH244107   6.382   5.979  13.127  0.1179  0.3863  0.0955
 7539TIP3    H144108   6.465   5.997  13.171 -0.1156 -0.5285  0.9233
 7539TIP3    H244109   6.315   6.010  13.187 -0.1644  0.3951 -0.2207
 7540TIP3   OH244110   4.407   4.678  12.896 -0.0085 -0.1825  0.0893
 7540TIP3    H144111   4.389   4.592  12.933  1.7622 -0.4930  0.3118
 7540TIP3    H244112   4.475   4.663  12.831 -2.0123  0.5745 -2.3615
 7541TIP3   OH244113   5.583   4.710  12.754 -0.1815 -0.1024  0.2491
 7541TIP3    H144114   5.643   4.746  12.820  1.1205 -1.7738  0.0370
 7541TIP3    H244115   5.547   4.787  12.710  0.5023  0.9880  1.5238
 7542TIP3   OH244116   3.588   4.041   4.507 -0.5114  0.5843  0.6455
 7542TIP3    H144117   3.572   4.112   4.444  0.9390  1.0639  0.7915
 7542TIP3    H244118   3.665   4.069   4.556  0.5555 -1.4268  0.2124
 7543TIP3   OH244119   0.359   3.466  16.007 -0.0392  0.1526  0.1974
 7543TIP3    H144120   0.397   3.379  16.022 -0.3460 -0.2174 -0.9938
 7543TIP3    H244121   0.297   3.452  15.934 -1.2539  1.0566  1.0200
 7544TIP3   OH244122   1.351   0.477   3.670 -0.2167  0.4506 -0.1203
 7544TIP3    H144123   1.338   0.549   3.609 -1.4514  0.1517 -0.2348
 7544TIP3    H244124   1.263   0.454   3.700  0.1892 -0.7327  0.2331
 7545TIP3   OH244125   3.493   0.753   1.712 -0.1364 -0.4742  0.3420
 7545TIP3    H144126   3.559   0.710   1.658  1.4986  0.0457  1.8338
 7545TIP3    H244127   3.463   0.827   1.660  0.7928 -0.4531 -0.1797
 7546TIP3   OH244128   0.914   4.018  13.520 -0.4925  0.0191 -0.2009
 7546TIP3    H144129   0.879   4.081  13.583 -1.0546 -1.0517  0.6006
 7546TIP3    H244130   0.855   4.021  13.446 -2.2032 -1.5293  0.9975
 7547TIP3   OH244131   2.705   2.409   2.304  0.6748 -0.3476  0.1479
 7547TIP3    H144132   2.694   2.468   2.229  2.0471 -1.3646 -0.9148
 7547TIP3    H244133   2.761   2.458   2.365 -0.2084  0.3748  0.3957
 7548TIP3   OH244134   0.007   5.515   2.366 -0.6341  0.4577 -0.0829
 7548TIP3    H144135   0.019   5.552   2.278  0.9532  2.0042  0.7079
 7548TIP3    H244136  -0.082   5.481   2.366 -0.3212 -0.5998 -2.6432
 7549TIP3   OH244137   1.019   1.616  17.079 -0.7704  0.1475 -0.6511
 7549TIP3    H144138   1.070   1.576  17.009  1.2225  1.1569  0.1257
 7549TIP3    H244139   1.069   1.694  17.104 -0.3824 -1.0580  3.0361
 7550TIP3   OH244140   0.757   4.096  11.197 -1.1290  0.1655 -0.0668
 7550TIP3    H144141   0.798   4.051  11.122  0.8405  0.5533  0.7213
 7550TIP3    H244142   0.746   4.186  11.167 -1.4700  0.0561 -0.2860
 7551TIP3   OH244143   0.066   2.509  16.295  0.7787  0.3220 -0.0108
 7551TIP3    H144144   0.070   2.442  16.364  1.8620 -0.5170 -0.8427
 7551TIP3    H244145  -0.006   2.566  16.321  0.3323 -0.7161  1.1403
 7552TIP3   OH244146   1.905   3.092  15.561 -0.1251 -0.4036 -0.0429
 7552TIP3    H144147   1.981   3.128  15.606  0.2607 -1.1725 -0.0650
 7552TIP3    H244148   1.831   3.108  15.620  0.2212 -0.5400  0.4269
 7553TIP3   OH244149   3.107   2.602   0.183 -0.3576 -0.4416 -0.2357
 7553TIP3    H144150   3.079   2.692   0.196 -1.7850 -0.7182 -1.2473
 7553TIP3    H244151   3.117   2.593   0.088 -2.1187 -1.8399 -0.3446
 7554TIP3   OH244152   6.152   2.622   0.274  0.2578 -0.4299 -0.1753
 7554TIP3    H144153   6.113   2.699   0.317  0.6153 -0.8514  0.9571
 7554TIP3    H244154   6.079   2.561   0.264  0.3057 -0.6197  0.5489
 7555TIP3   OH244155   4.519   2.067   5.922  0.1154 -0.2052  0.6630
 7555TIP3    H144156   4.456   2.138   5.912  0.4261 -0.0362 -0.2051
 7555TIP3    H244157   4.545   2.045   5.833  1.0674 -0.4649  0.9844
 7556TIP3   OH244158   2.602   3.022  12.460 -0.4702  0.3659  0.1029
 7556TIP3    H144159   2.645   3.107  12.453  1.3390 -0.2254  2.4761
 7556TIP3    H244160   2.603   2.986  12.372 -0.5427  2.4483 -0.7912
 7557TIP3   OH244161   4.409   0.167   0.602  0.0570 -0.4516 -0.0404
 7557TIP3    H144162   4.360   0.154   0.521 -0.9183  2.0590  0.0442
 7557TIP3    H244163   4.465   0.243   0.584  0.3748 -0.3202  1.3866
 7558TIP3   OH244164   2.900   4.967  12.698  0.2593 -0.4698  0.0946
 7558TIP3    H144165   2.960   4.918  12.640 -1.3644 -0.4071 -1.7543
 7558TIP3    H244166   2.820   4.914  12.700 -0.0642  0.0426  1.5181
 7559TIP3   OH244167   0.439   4.878   4.987 -0.4923  0.0034  0.5920
 7559TIP3    H144168   0.523   4.877   4.941 -0.6566 -0.2410  0.2878
 7559TIP3    H244169   0.394   4.954   4.951 -0.3508  0.2106  0.8500
 7560TIP3   OH244170   0.293   6.675   2.909  0.0123  0.6621  0.1597
 7560TIP3    H144171   0.281   6.751   2.852  1.1880  1.2862  0.6949
 7560TIP3    H244172   0.384   6.647   2.893  0.1276  0.4083  1.1757
 7561TIP3   OH244173   3.767   4.412  13.145  0.2603  0.3597 -0.1308
 7561TIP3    H144174   3.810   4.457  13.217  1.1641 -1.2590  0.3800
 7561TIP3    H244175   3.785   4.468  13.069  0.0329  1.6375  0.7129
 7562TIP3   OH244176   3.040   0.054   1.631  0.0587 -0.1233  0.3737
 7562TIP3    H144177   3.025   0.045   1.537 -0.8591  0.0700  0.4894
 7562TIP3    H244178   3.127   0.094   1.637  0.5095 -0.9557 -0.3557
 7563TIP3   OH244179   0.397   2.365   2.663 -0.4824 -0.2910 -0.1810
 7563TIP3    H144180   0.326   2.427   2.649 -0.9471 -1.2942 -2.7681
 7563TIP3    H244181   0.443   2.361   2.579  1.7569 -0.8092  0.9649
 7564TIP3   OH244182   2.761   2.019  14.449  0.4646  0.0772 -0.1938
 7564TIP3    H144183   2.694   1.965  14.490 -1.5832  2.5138 -0.1013
 7564TIP3    H244184   2.838   2.009  14.505  0.5292 -3.3237 -0.6719
 7565TIP3   OH244185   5.132   3.005  12.014 -0.2900  0.1656 -0.0329
 7565TIP3    H144186   5.142   2.910  12.002 -1.8361  0.1143 -1.1668
 7565TIP3    H244187   5.092   3.035  11.932 -0.7790  1.6448  0.7218
 7566TIP3   OH244188   6.468   2.522  13.895 -0.2758 -0.0403 -0.1863
 7566TIP3    H144189   6.504   2.437  13.920 -1.0797  0.0958  1.5826
 7566TIP3    H244190   6.541   2.583  13.905 -0.3340 -0.1469  0.9487
 7567TIP3   OH244191   4.019   1.462   4.709 -0.2931 -0.2064  0.0713
 7567TIP3    H144192   4.033   1.384   4.762  0.1897  0.4721  0.9738
 7567TIP3    H244193   4.095   1.517   4.726 -0.0403 -0.0324 -1.4775
 7568TIP3   OH244194   4.064   6.077  16.459  0.5516 -0.0937  0.0293
 7568TIP3    H144195   4.120   6.033  16.523 -1.4160  1.5032  3.0544
 7568TIP3    H244196   4.120   6.143  16.418  1.0796  1.2762  2.7624
 7569TIP3   OH244197   2.298   1.738   3.225  0.0906  0.3095  0.3254
 7569TIP3    H144198   2.343   1.658   3.252  0.4276  0.9089  1.6096
 7569TIP3    H244199   2.279   1.724   3.132 -1.4772 -2.0433  0.8939
 7570TIP3   OH244200   5.430   1.750   3.991  0.9138 -0.0970 -0.4246
 7570TIP3    H144201   5.384   1.703   3.921  3.6189 -1.2069 -1.5996
 7570TIP3    H244202   5.434   1.687   4.063 -2.6338  1.3390  1.2422
 7571TIP3   OH244203   6.685   2.685   0.698 -0.0061  0.0171  0.0035
 7571TIP3    H144204   6.604   2.676   0.648 -1.0146  0.3390  1.5065
 7571TIP3    H244205   6.680   2.615   0.764  1.2768 -0.3924 -0.3081
 7572TIP3   OH244206   5.904   3.175   5.243 -0.5755 -0.1370  0.3276
 7572TIP3    H144207   5.845   3.251   5.245  1.3167  1.3857  1.7004
 7572TIP3    H244208   5.847   3.100   5.260 -2.1676  1.2308  1.3263
 7573TIP3   OH244209   1.947   4.426   0.014  0.4952  0.0818  0.0271
 7573TIP3    H144210   1.997   4.347  -0.006 -0.1187 -0.4778  0.6636
 7573TIP3    H244211   1.943   4.428   0.110 -0.4103  0.3016 -0.0064
 7574TIP3   OH244212   1.057   0.688   4.807  0.1025 -0.0283  0.2604
 7574TIP3    H144213   1.075   0.640   4.727 -1.9658  0.9799 -0.8758
 7574TIP3    H244214   1.141   0.691   4.853  2.0296  1.5550 -3.0496
 7575TIP3   OH244215   0.004   0.209  17.027 -0.0928  0.5334  0.4078
 7575TIP3    H144216   0.065   0.257  16.971  1.9313 -0.1551  1.9298
 7575TIP3    H244217   0.052   0.193  17.108 -2.2772 -0.1455  1.6636
 7576TIP3   OH244218   3.573   1.594  11.428  0.5318 -0.2503  0.2189
 7576TIP3    H144219   3.503   1.558  11.483  1.2776 -0.8328  0.8214
 7576TIP3    H244220   3.534   1.601  11.341 -0.4213 -0.1067  0.6357
 7577TIP3   OH244221   2.466   2.806  13.495 -0.4447  0.4443 -0.3839
 7577TIP3    H144222   2.526   2.737  13.524  0.3150  1.1734 -0.1813
 7577TIP3    H244223   2.415   2.766  13.425  0.6551 -0.0345 -0.9265
 7578TIP3   OH244224   2.999   4.847  13.755  0.1857 -0.2014  0.0717
 7578TIP3    H144225   3.095   4.851  13.746  0.0657 -0.5390 -1.6468
 7578TIP3    H244226   2.977   4.756  13.733 -0.5573 -0.0790  0.2960
 7579TIP3   OH244227   6.716   1.189   4.096  0.6447  0.4614 -0.3253
 7579TIP3    H144228   6.764   1.200   4.178  0.1855  0.5303 -0.0640
 7579TIP3    H244229   6.672   1.273   4.083  1.6986  0.8909 -1.2829
 7580TIP3   OH244230   2.112   3.290   1.601  0.5218 -0.2558 -0.4504
 7580TIP3    H144231   2.150   3.378   1.607  1.7135 -0.8355  1.2838
 7580TIP3    H244232   2.042   3.289   1.666  1.2653 -0.9023  0.3728
 7581TIP3   OH244233   5.004   5.170  12.122 -0.6617 -0.0773  0.7189
 7581TIP3    H144234   5.048   5.085  12.116 -3.5550 -1.6689 -0.2124
 7581TIP3    H244235   4.958   5.167  12.206 -0.6877  0.6469  0.7337
 7582TIP3   OH244236   6.301   2.861  11.032 -0.2153 -0.0255 -0.2710
 7582TIP3    H144237   6.310   2.780  11.082  0.5133  0.8951  1.1382
 7582TIP3    H244238   6.292   2.832  10.941 -0.4327 -1.6961  0.2572
 7583TIP3   OH244239   1.676   6.590   1.310  0.1629  0.4141 -0.0960
 7583TIP3    H144240   1.756   6.538   1.308  0.0102  0.1491  0.5018
 7583TIP3    H244241   1.701   6.675   1.274  0.2296 -0.3168 -1.8965
 7584TIP3   OH244242   5.086   5.210   3.436 -0.0506 -0.1906  0.5098
 7584TIP3    H144243   5.046   5.148   3.496  1.8356 -0.5967  1.4373
 7584TIP3    H244244   5.085   5.293   3.484  0.8241 -0.3649  0.8615
 7585TIP3   OH244245   5.868   5.835  11.072  0.1309  0.4751  0.0503
 7585TIP3    H144246   5.888   5.865  11.161 -0.7993 -1.0365  0.8026
 7585TIP3    H244247   5.901   5.746  11.069  4.2687  1.8270 -2.6460
 7586TIP3   OH244248   1.683   3.311   5.545  0.2237  0.0793  0.0651
 7586TIP3    H144249   1.673   3.305   5.640 -0.1257  0.4897  0.0565
 7586TIP3    H244250   1.602   3.352   5.514  1.0155  1.5051 -0.2328
 7587TIP3   OH244251   2.875   4.350   1.919 -0.1793  0.6927  0.4215
 7587TIP3    H144252   2.910   4.415   1.980 -0.8661  1.2498  0.2364
 7587TIP3    H244253   2.931   4.356   1.842 -0.9508  1.9413 -0.0771
 7588TIP3   OH244254   6.853   4.150   4.321 -0.1816 -0.0520  0.5594
 7588TIP3    H144255   6.783   4.153   4.255  1.4031  1.9768 -1.1905
 7588TIP3    H244256   6.875   4.057   4.328 -0.3152 -0.3359 -1.9327
 7589TIP3   OH244257   6.787   0.519  16.524 -0.0166  0.0782 -0.4896
 7589TIP3    H144258   6.722   0.450  16.523 -1.0176  0.9836 -1.9017
 7589TIP3    H244259   6.864   0.481  16.481 -0.3878 -0.3296 -0.7987
 7590TIP3   OH244260   4.820   0.635  13.311  0.0529 -0.1394 -0.3176
 7590TIP3    H144261   4.883   0.567  13.289  0.9708  0.3937  0.5373
 7590TIP3    H244262   4.861   0.683  13.384 -1.1774  0.4599  0.0117
 7591TIP3   OH244263   0.380   1.502  15.971 -0.2527  0.5159 -0.7120
 7591TIP3    H144264   0.413   1.571  16.030  0.2668 -0.2875 -0.0427
 7591TIP3    H244265   0.455   1.443  15.960 -1.0105 -0.5138 -0.4224
 7592TIP3   OH244266   2.411   5.526  13.353 -0.1769 -0.2107  0.5195
 7592TIP3    H144267   2.475   5.591  13.323 -1.7304  0.9544 -0.4632
 7592TIP3    H244268   2.405   5.540  13.447  0.0278  0.6254  0.4221
 7593TIP3   OH244269   4.417   1.124   2.614 -0.0613  0.2209 -0.4850
 7593TIP3    H144270   4.413   1.134   2.709 -1.2924  0.5849 -0.5579
 7593TIP3    H244271   4.368   1.200   2.580  1.8924  1.1079 -1.4802
 7594TIP3   OH244272   3.560   0.403   5.636  0.2310 -0.1851  0.2793
 7594TIP3    H144273   3.637   0.360   5.599 -0.8815  0.2216 -2.8106
 7594TIP3    H244274   3.498   0.331   5.651  0.1177 -0.2013 -0.2386
 7595TIP3   OH244275   5.531   1.442  12.170  0.4909 -0.1213  0.3998
 7595TIP3    H144276   5.619   1.477  12.174  0.8299 -0.9502  0.3885
 7595TIP3    H244277   5.474   1.517  12.188  1.1225  0.7145 -0.9560
 7596TIP3   OH244278   1.725   0.690   4.001  0.0320 -0.3335  0.2353
 7596TIP3    H144279   1.697   0.781   4.013  0.1737 -0.3670  0.8568
 7596TIP3    H244280   1.709   0.672   3.909  1.1503  0.7215 -0.1906
 7597TIP3   OH244281   2.861   3.417  15.517 -0.2233  0.0277 -0.0700
 7597TIP3    H144282   2.793   3.350  15.519  0.3529 -0.5433  1.2774
 7597TIP3    H244283   2.932   3.382  15.571  1.2380  0.5330 -1.5934
 7598TIP3   OH244284   3.432   1.506   3.048  0.3846 -0.0066  0.1358
 7598TIP3    H144285   3.494   1.557   3.100 -1.9690  1.5571  1.6213
 7598TIP3    H244286   3.389   1.570   2.992 -0.7611 -0.8132  0.0601
 7599TIP3   OH244287   0.914   3.106   1.547  0.1747 -0.3884 -0.6379
 7599TIP3    H144288   0.918   3.031   1.487  1.5809 -1.3616  0.5885
 7599TIP3    H244289   0.843   3.161   1.513  1.3355 -0.5273 -3.6005
 7600TIP3   OH244290   1.980   2.686   4.515  0.0152 -0.3897 -0.1545
 7600TIP3    H144291   1.902   2.684   4.459  0.4626 -0.7013 -0.7821
 7600TIP3    H244292   1.963   2.756   4.578 -1.7926 -1.9629  1.2305
 7601TIP3   OH244293   1.650   5.307   2.306  0.1069  0.2242  0.2667
 7601TIP3    H144294   1.611   5.390   2.335  0.7994  0.7385 -0.2162
 7601TIP3    H244295   1.741   5.313   2.336  0.8385  0.7452 -1.8756
 7602TIP3   OH244296   4.481   2.671  12.808 -0.7126 -0.3391 -0.1585
 7602TIP3    H144297   4.388   2.673  12.787 -0.7607  1.7842  0.0221
 7602TIP3    H244298   4.493   2.740  12.873  0.9440 -0.7131 -0.0156
 7603TIP3   OH244299   2.330   1.249  16.818  0.1110  0.1620 -0.1119
 7603TIP3    H144300   2.339   1.164  16.776  1.0623  0.4914 -0.6123
 7603TIP3    H244301   2.363   1.311  16.753  1.5471  0.6995  1.0618
 7604TIP3   OH244302   1.134   2.034  11.650 -0.6508  0.6349  0.5252
 7604TIP3    H144303   1.166   2.039  11.740  3.0655  0.9239 -0.6202
 7604TIP3    H244304   1.162   1.947  11.619 -0.8601  0.9683 -0.6686
 7605TIP3   OH244305   0.455   6.045  12.447  0.3836  0.0328  0.2146
 7605TIP3    H144306   0.401   5.986  12.393  0.9533  1.4447 -2.0416
 7605TIP3    H244307   0.515   5.987  12.493 -2.5635 -1.5634  2.3895
 7606TIP3   OH244308   0.324   3.587   1.113 -0.2935 -0.0824  0.5144
 7606TIP3    H144309   0.330   3.665   1.169 -1.0519  0.9572 -0.8137
 7606TIP3    H244310   0.408   3.542   1.127  0.4952  1.3766  0.7151
 7607TIP3   OH244311   4.843   4.949   2.122  1.1240 -0.1743 -0.0030
 7607TIP3    H144312   4.761   4.942   2.074  0.5869  1.8138  0.5138
 7607TIP3    H244313   4.905   4.987   2.060  1.7487 -1.8369 -0.4474
 7608TIP3   OH244314   6.658   3.769  13.998 -0.5894  0.1851 -0.2053
 7608TIP3    H144315   6.749   3.786  14.020 -0.2124 -0.6908 -0.9853
 7608TIP3    H244316   6.618   3.855  13.989  0.1316  0.5694  0.2846
 7609TIP3   OH244317   5.346   6.027  16.582  0.8211 -0.5049 -0.0047
 7609TIP3    H144318   5.388   5.942  16.592  0.8411 -0.5658 -0.5873
 7609TIP3    H244319   5.387   6.082  16.650  1.0817 -0.8501  0.1198
 7610TIP3   OH244320   0.073   1.708   0.528  0.0023 -0.8371  0.0214
 7610TIP3    H144321   0.028   1.789   0.501  0.1042 -0.9141 -0.3774
 7610TIP3    H244322   0.165   1.724   0.509 -0.0474 -1.2705 -0.6156
 7611TIP3   OH244323   4.820   3.056  11.099  0.1001 -0.0149 -0.2631
 7611TIP3    H144324   4.873   3.094  11.029  3.2760 -1.3972  1.2093
 7611TIP3    H244325   4.853   2.967  11.110 -0.2560  0.1057  2.9355
 7612TIP3   OH244326   6.150   2.664  14.218 -0.1413 -0.4003 -0.2733
 7612TIP3    H144327   6.110   2.733  14.270  1.2593 -0.1597  0.5449
 7612TIP3    H244328   6.224   2.707  14.174  1.4049 -1.5702  1.0805
 7613TIP3   OH244329   3.769   4.434   3.010  0.3878 -0.0662 -0.0207
 7613TIP3    H144330   3.795   4.467   3.096  1.1705  1.3452 -0.7566
 7613TIP3    H244331   3.674   4.430   3.013  0.3539  0.9227  0.5927
 7614TIP3   OH244332   4.443   3.989  16.198  0.0677 -0.2754  0.0700
 7614TIP3    H144333   4.467   3.993  16.106  0.1266  1.2906  0.1347
 7614TIP3    H244334   4.513   4.037  16.243 -0.7533  0.2878  0.7616
 7615TIP3   OH244335   6.008   3.548  17.032  0.1196 -0.2167  0.0542
 7615TIP3    H144336   6.027   3.611  17.101 -1.5607 -1.0620  1.3389
 7615TIP3    H244337   6.079   3.484  17.038 -0.5905 -0.8865  1.7733
 7616TIP3   OH244338   4.934   4.995  16.605 -0.1552 -0.1688 -0.4139
 7616TIP3    H144339   4.855   4.962  16.649 -0.3256 -0.6022 -1.0243
 7616TIP3    H244340   5.006   4.952  16.651 -0.2852  0.0665  0.0124
 7617TIP3   OH244341   3.664   3.143  16.098 -0.1634  0.1943 -0.7855
 7617TIP3    H144342   3.701   3.149  16.186 -0.3596  1.8893 -0.7778
 7617TIP3    H244343   3.737   3.114  16.043 -0.1798 -1.4074  0.0024
 7618TIP3   OH244344   0.874   4.176  13.738  0.2334 -0.1921 -0.2831
 7618TIP3    H144345   0.820   4.252  13.715 -0.3898 -0.3390  0.6236
 7618TIP3    H244346   0.848   4.155  13.828  0.5105 -1.3894 -0.4677
 7619TIP3   OH244347   3.194   5.000  11.656  0.5662  0.5224 -0.3220
 7619TIP3    H144348   3.139   4.996  11.734  1.4595  0.0961  0.3106
 7619TIP3    H244349   3.133   4.991  11.583 -0.4954  2.6497  0.2300
 7620TIP3   OH244350   2.975   5.249  11.134  0.4760  0.3323 -0.5065
 7620TIP3    H144351   2.882   5.250  11.159  1.1941  0.7512  2.4793
 7620TIP3    H244352   3.007   5.336  11.158  1.8699 -0.1262 -0.6107
 7621TIP3   OH244353   1.421   6.098  12.793  0.1012 -0.0166 -0.1956
 7621TIP3    H144354   1.474   6.054  12.860 -1.6245 -1.2915  0.4367
 7621TIP3    H244355   1.376   6.026  12.748 -3.4702  1.0043  1.4062
 7622TIP3   OH244356   0.159   6.094  15.034 -0.6692 -0.2651  0.4285
 7622TIP3    H144357   0.120   6.130  15.113  0.7924  0.1230  1.0109
 7622TIP3    H244358   0.097   6.027  15.005 -0.2052 -2.0851  3.2189
 7623TIP3   OH244359   1.984   4.495   0.540  1.0973 -0.0876 -0.0424
 7623TIP3    H144360   1.931   4.433   0.590  1.1072  1.4869  2.0461
 7623TIP3    H244361   2.067   4.499   0.586  1.5218  0.6188 -0.8343
 7624TIP3   OH244362   1.434   5.700  16.629  0.3271  0.6484 -0.1841
 7624TIP3    H144363   1.356   5.689  16.682  0.8723 -0.3218  0.4354
 7624TIP3    H244364   1.406   5.676  16.540 -0.2025  0.8145 -0.0669
 7625TIP3   OH244365   5.122   3.289  14.547  0.4012  0.1457 -0.7505
 7625TIP3    H144366   5.093   3.273  14.636  1.3962  0.0829 -0.4215
 7625TIP3    H244367   5.060   3.352  14.512 -1.0919 -1.2156 -0.6459
 7626TIP3   OH244368   4.525   6.610  16.171  0.3420  0.2330  0.0476
 7626TIP3    H144369   4.468   6.575  16.240 -0.9703  3.5429  0.8402
 7626TIP3    H244370   4.581   6.537  16.146 -1.4744 -2.0442  2.1876
 7627TIP3   OH244371   1.570   3.059  10.214 -0.4471  0.2690  0.0876
 7627TIP3    H144372   1.571   3.029  10.305 -0.2678 -0.3669 -0.1230
 7627TIP3    H244373   1.485   3.101  10.203  0.4794  2.7028  1.2957
 7628TIP3   OH244374   1.083   5.988   5.761  0.3483 -0.7005  1.1315
 7628TIP3    H144375   1.131   6.067   5.734 -0.8029 -0.4247 -0.2120
 7628TIP3    H244376   1.105   5.978   5.854 -0.6270  2.0666  1.7532
 7629TIP3   OH244377   4.359   5.996   4.209  0.1336 -0.0127 -0.0212
 7629TIP3    H144378   4.329   6.044   4.286  1.3374  2.0572 -0.7685
 7629TIP3    H244379   4.285   5.940   4.185 -1.3256  1.4320  0.9163
 7630TIP3   OH244380   4.945   5.309  12.673  0.3190 -0.9318  0.2234
 7630TIP3    H144381   4.880   5.359  12.624 -1.0138 -1.1677  1.6617
 7630TIP3    H244382   4.974   5.241  12.613 -1.1472 -1.1273 -0.3048
 7631TIP3   OH244383   5.625   1.122  15.659 -0.1354 -0.1959 -0.5180
 7631TIP3    H144384   5.678   1.198  15.683  1.8246 -0.7882 -2.6497
 7631TIP3    H244385   5.559   1.158  15.599 -1.2418  0.2800  0.9240
 7632TIP3   OH244386   2.863   5.686   5.833  0.6235 -0.2808  0.3078
 7632TIP3    H144387   2.851   5.696   5.928  1.6165  2.0521  0.2530
 7632TIP3    H244388   2.813   5.758   5.795  2.1655  0.2642 -0.7677
 7633TIP3   OH244389   6.300   0.842   2.611  0.3120  0.2887 -0.2239
 7633TIP3    H144390   6.365   0.772   2.604 -1.6502 -2.4326  4.3993
 7633TIP3    H244391   6.330   0.896   2.685 -1.3015  0.5750  0.2611
 7634TIP3   OH244392   5.747   2.390   1.064 -0.3930 -0.8494 -0.0791
 7634TIP3    H144393   5.736   2.447   0.987 -0.8976 -1.8524 -0.7717
 7634TIP3    H244394   5.777   2.307   1.028 -0.7007 -1.3572  0.8076
 7635TIP3   OH244395   4.421   3.547   3.831  0.4227 -0.4113 -0.1645
 7635TIP3    H144396   4.458   3.635   3.840 -0.2804 -0.1617  0.3408
 7635TIP3    H244397   4.471   3.494   3.893  0.7901 -0.3532 -0.4075
 7636TIP3   OH244398   6.637   4.896  14.095 -0.0841  0.0126 -0.1265
 7636TIP3    H144399   6.712   4.851  14.134 -0.1527  0.6794  0.7984
 7636TIP3    H244400   6.656   4.896  14.001  0.1388 -1.5177 -0.1185
 7637TIP3   OH244401   1.827   5.812  14.464  0.2379  0.0858 -0.2039
 7637TIP3    H144402   1.824   5.891  14.517 -1.4802 -1.3788  2.0720
 7637TIP3    H244403   1.906   5.822  14.410 -0.0728  3.4060 -0.2250
 7638TIP3   OH244404   3.538   5.121  13.119 -0.0343 -0.5855 -0.0024
 7638TIP3    H144405   3.568   5.095  13.032  2.1321  0.4632  0.3734
 7638TIP3    H244406   3.608   5.093  13.178  0.0625  1.5346  0.9932
 7639TIP3   OH244407   4.313   1.532  14.424 -0.4709 -0.0886 -0.1308
 7639TIP3    H144408   4.228   1.505  14.387 -0.6057  1.1002 -0.7222
 7639TIP3    H244409   4.378   1.482  14.374 -0.6984  0.8634 -1.4300
 7640TIP3   OH244410   1.954   2.880   3.123  0.3948  0.2289  0.2815
 7640TIP3    H144411   1.910   2.948   3.175 -0.3961  0.8548 -1.1216
 7640TIP3    H244412   2.029   2.853   3.176  0.0936  1.4138  1.3623
 7641TIP3   OH244413   1.813   0.959   6.120 -0.4006  0.6472 -0.0150
 7641TIP3    H144414   1.747   0.979   6.185  1.2451  1.0423  1.6105
 7641TIP3    H244415   1.894   0.998   6.154  0.6979  0.1663 -1.8908
 7642TIP3   OH244416   0.418   5.805  13.300 -0.2082 -0.1723 -0.2025
 7642TIP3    H144417   0.357   5.845  13.362 -0.0985 -1.0593  0.5005
 7642TIP3    H244418   0.436   5.874  13.236  0.0063  0.9059  0.9724
 7643TIP3   OH244419   3.861   5.959   5.260 -0.6282 -0.0843  0.4051
 7643TIP3    H144420   3.913   5.965   5.180 -0.4121  1.4570  0.6291
 7643TIP3    H244421   3.783   5.910   5.236 -1.1450  1.3945 -1.0697
 7644TIP3   OH244422   3.646   3.262  11.788  0.0694 -0.5821  0.4430
 7644TIP3    H144423   3.646   3.345  11.739 -0.9775 -0.5117  0.5443
 7644TIP3    H244424   3.720   3.270  11.848  0.4934 -0.0722 -0.1314
 7645TIP3   OH244425   1.212   6.200   5.644  0.0096 -0.3425 -0.3675
 7645TIP3    H144426   1.234   6.168   5.557 -1.2213  0.3195 -0.9425
 7645TIP3    H244427   1.209   6.295   5.634  2.2675 -0.0555  0.9852
 7646TIP3   OH244428   1.924   1.530  16.551  0.4734 -0.2481  0.2282
 7646TIP3    H144429   1.999   1.471  16.539  1.5104  1.0733 -0.0654
 7646TIP3    H244430   1.911   1.532  16.646  0.8113 -0.4781  0.2818
 7647TIP3   OH244431   1.734   6.709  16.732  0.3027 -0.0515  0.5456
 7647TIP3    H144432   1.657   6.762  16.750  1.0217  1.1353  0.2411
 7647TIP3    H244433   1.798   6.737  16.798  0.8353 -0.2257  0.1061
 7648TIP3   OH244434   0.680   6.113  10.965  0.3703  0.5256  0.2357
 7648TIP3    H144435   0.721   6.026  10.967 -0.6878  0.0114  1.2269
 7648TIP3    H244436   0.597   6.099  10.918 -0.0289  0.8908  0.8242
 7649TIP3   OH244437   2.721   5.876   4.897 -0.0509 -0.1543 -0.0633
 7649TIP3    H144438   2.656   5.912   4.957  0.2264  1.3360 -0.6342
 7649TIP3    H244439   2.734   5.786   4.928 -2.1721 -0.4205  0.2274
 7650TIP3   OH244440   6.357   2.974   1.681  0.0971  0.2587 -0.0870
 7650TIP3    H144441   6.311   3.041   1.629  1.5715  1.0508 -0.4112
 7650TIP3    H244442   6.317   2.892   1.654 -1.4097  0.9438 -0.0564
 7651TIP3   OH244443   5.701   3.448   6.708  1.0184  0.4471  0.2603
 7651TIP3    H144444   5.702   3.441   6.613  1.6187  1.9492  0.1185
 7651TIP3    H244445   5.633   3.514   6.726  0.0834 -0.6720  0.9679
 7652TIP3   OH244446   1.300   1.699  14.294 -0.1714  0.1224  0.0602
 7652TIP3    H144447   1.311   1.642  14.217 -0.0840  0.5245 -0.2263
 7652TIP3    H244448   1.208   1.727  14.289 -0.0381  0.5328 -0.1701
 7653TIP3   OH244449   2.220   5.570  15.426  0.0814 -0.4074 -0.3559
 7653TIP3    H144450   2.309   5.542  15.445 -0.8589 -2.4432  1.4239
 7653TIP3    H244451   2.196   5.626  15.500 -0.3903 -0.5502 -0.3991
 7654TIP3   OH244452   0.359   0.702   4.530  0.7503  0.4381 -0.1895
 7654TIP3    H144453   0.307   0.758   4.587  0.6155 -0.1305  0.2604
 7654TIP3    H244454   0.370   0.752   4.450  0.4264  1.0038  0.1156
 7655TIP3   OH244455   1.123   5.178  12.526  0.1834 -0.5366  0.0745
 7655TIP3    H144456   1.034   5.151  12.548 -1.4770  2.6307 -1.9731
 7655TIP3    H244457   1.137   5.144  12.438  0.1117  0.7165 -0.4410
 7656TIP3   OH244458   6.662   6.181   2.715  0.4626 -0.0128 -0.1794
 7656TIP3    H144459   6.644   6.090   2.741  1.2019 -0.4114 -1.0233
 7656TIP3    H244460   6.682   6.226   2.798  1.8412 -1.0412  0.0859
 7657TIP3   OH244461   0.935   4.386  16.767 -0.0389 -0.4698  0.2826
 7657TIP3    H144462   0.895   4.422  16.688  1.0901  0.1703 -0.0290
 7657TIP3    H244463   0.932   4.457  16.831 -0.4649 -0.8080  0.6388
 7658TIP3   OH244464   5.799   5.422   3.443  0.9901  0.2737  0.1932
 7658TIP3    H144465   5.855   5.497   3.464  1.2021 -0.1037  1.0011
 7658TIP3    H244466   5.729   5.426   3.508  1.6945 -0.9557  1.0847
 7659TIP3   OH244467   2.943   6.507   1.656 -0.5684  0.1526  0.6559
 7659TIP3    H144468   2.884   6.473   1.589 -0.1927 -1.4651  1.0969
 7659TIP3    H244469   2.889   6.569   1.706 -1.2948  0.2060 -0.1607
 7660TIP3   OH244470   0.777   0.493   2.272  0.3858  0.0885 -0.0940
 7660TIP3    H144471   0.732   0.477   2.355  1.3482  0.9482  0.6228
 7660TIP3    H244472   0.711   0.474   2.205 -0.6485  0.1056  0.8824
 7661TIP3   OH244473   5.380   2.720   5.436  0.3475 -0.3367 -0.7660
 7661TIP3    H144474   5.448   2.658   5.411  1.9256  0.7379  0.6340
 7661TIP3    H244475   5.332   2.675   5.506  0.1960 -0.7354 -1.1201
 7662TIP3   OH244476   6.746   6.041   1.686  0.2976  0.7770 -0.3877
 7662TIP3    H144477   6.758   5.963   1.632  2.8328 -0.6071  1.9087
 7662TIP3    H244478   6.805   6.106   1.647  1.1497  0.2118 -0.0780
 7663TIP3   OH244479   3.677   3.151   2.789  0.5850  0.3560 -0.0899
 7663TIP3    H144480   3.668   3.245   2.807 -1.2002  0.3567 -0.8266
 7663TIP3    H244481   3.738   3.120   2.856 -0.3451  1.6784  1.4345
 7664TIP3   OH244482   4.672   5.124  11.695 -0.0599  0.3579 -0.3969
 7664TIP3    H144483   4.595   5.150  11.746  0.1621 -0.3086  0.2932
 7664TIP3    H244484   4.643   5.046  11.647  0.1067  0.2589 -0.3354
 7665TIP3   OH244485   1.145   1.662  13.604  0.2475  0.3090 -0.4642
 7665TIP3    H144486   1.114   1.750  13.582  0.9818  0.3041 -1.5529
 7665TIP3    H244487   1.068   1.606  13.595 -0.0460  0.7188 -0.5076
 7666TIP3   OH244488   0.829   1.485   1.370  0.5059  0.6746 -0.3884
 7666TIP3    H144489   0.869   1.452   1.289  1.1134  3.0843 -1.1468
 7666TIP3    H244490   0.770   1.555   1.340 -2.1311 -0.8074  0.9762
 7667TIP3   OH244491   4.260   1.525  12.359 -0.0817 -0.4723 -0.4561
 7667TIP3    H144492   4.306   1.443  12.374  2.0973  1.0969  2.5375
 7667TIP3    H244493   4.329   1.588  12.338 -1.1179  1.3747  1.2771
 7668TIP3   OH244494   2.712   5.316   4.029  1.0533  0.1013  0.9072
 7668TIP3    H144495   2.688   5.230   3.994  1.4395  0.2190  0.3444
 7668TIP3    H244496   2.660   5.325   4.108  0.7605 -0.5114  0.7872
 7669TIP3   OH244497   0.777   5.213   0.074 -0.3024 -0.5110  0.1875
 7669TIP3    H144498   0.823   5.256   0.147  1.4502 -0.7796 -0.7004
 7669TIP3    H244499   0.755   5.284   0.014 -0.1810 -0.4850  0.1724
 7670TIP3   OH244500   5.294   4.591   6.228 -0.4868  0.5703 -0.1726
 7670TIP3    H144501   5.314   4.682   6.252  0.6764  0.8652 -2.0715
 7670TIP3    H244502   5.199   4.588   6.222 -0.5360  1.6830 -0.1401
 7671TIP3   OH244503   0.715   3.218  14.306  0.0495  0.0008  0.2089
 7671TIP3    H144504   0.665   3.161  14.365  0.7548  0.2632  1.0941
 7671TIP3    H244505   0.774   3.158  14.260  2.6230  0.1450  2.9674
 7672TIP3   OH244506   4.558   2.302  15.539 -0.1315 -0.0166 -0.2256
 7672TIP3    H144507   4.600   2.340  15.462  0.6616  0.3027  0.3429
 7672TIP3    H244508   4.465   2.318  15.527 -0.0575 -0.3668 -1.3251
 7673TIP3   OH244509   0.216   6.430   4.593  0.2926 -0.0842 -0.2050
 7673TIP3    H144510   0.150   6.364   4.613 -0.8099  0.6660 -1.3160
 7673TIP3    H244511   0.182   6.478   4.517  2.2231  0.1484 -0.9870
 7674TIP3   OH244512   3.440   0.279   1.991 -0.4531 -0.2574  0.3652
 7674TIP3    H144513   3.526   0.249   1.960 -1.5622 -1.0196 -2.2449
 7674TIP3    H244514   3.453   0.295   2.085  2.9310  1.1726 -0.1936
 7675TIP3   OH244515   2.283   6.328  11.438  0.4973 -0.2840  0.2160
 7675TIP3    H144516   2.267   6.419  11.416 -0.6355 -0.6745 -0.7001
 7675TIP3    H244517   2.360   6.303  11.386  1.1225  0.2669  0.8580
 7676TIP3   OH244518   2.285   3.208   5.724 -0.5635 -0.1336  0.2120
 7676TIP3    H144519   2.196   3.221   5.755 -0.9771 -0.9232 -0.6012
 7676TIP3    H244520   2.329   3.162   5.795 -0.6480  0.7145  0.8262
 7677TIP3   OH244521   0.979   3.430   0.809  0.0318  0.0312  0.3433
 7677TIP3    H144522   1.065   3.414   0.846  0.8088  1.7515 -0.5896
 7677TIP3    H244523   0.944   3.342   0.791  0.6008 -0.7700  2.8013
 7678TIP3   OH244524   4.877   0.484  15.796 -0.3357  0.0014 -0.3149
 7678TIP3    H144525   4.960   0.459  15.756  0.5649  0.7665  0.9562
 7678TIP3    H244526   4.842   0.551  15.738  0.0415 -0.1797 -0.7599
 7679TIP3   OH244527   5.219   3.686   4.311 -0.0380  0.1707 -0.1008
 7679TIP3    H144528   5.160   3.624   4.354  2.1606 -0.8567  1.6291
 7679TIP3    H244529   5.257   3.636   4.239 -0.9171  0.7110 -0.9700
 7680TIP3   OH244530   5.257   2.274   1.915  0.5801  0.6841 -0.0629
 7680TIP3    H144531   5.317   2.322   1.859  0.1557 -0.2785 -1.3889
 7680TIP3    H244532   5.297   2.187   1.924 -0.1575  0.3152 -0.2233
 7681TIP3   OH244533   0.626   2.700  17.123 -0.9588  0.4936 -0.2841
 7681TIP3    H144534   0.676   2.728  17.046  2.3913 -0.8438  1.2230
 7681TIP3    H244535   0.625   2.604  17.118 -2.1820  0.4410  0.4998
 7682TIP3   OH244536   6.309   0.976  15.993  0.2922 -0.1798  0.1033
 7682TIP3    H144537   6.344   1.041  15.931  2.3547 -0.1869  1.1861
 7682TIP3    H244538   6.251   1.027  16.050 -2.3536 -0.3183 -2.2214
 7683TIP3   OH244539   0.740   3.163   2.972  0.4161  0.9950  0.4994
 7683TIP3    H144540   0.710   3.231   2.911 -0.0754  1.0219  0.7649
 7683TIP3    H244541   0.678   3.168   3.045  1.7169  1.7810  1.5820
 7684TIP3   OH244542   5.181   1.838   4.400 -0.3667  0.8781 -0.8692
 7684TIP3    H144543   5.111   1.829   4.334 -0.4804  0.9565 -0.7589
 7684TIP3    H244544   5.221   1.922   4.380 -0.6204  1.0566 -0.6269
 7685TIP3   OH244545   4.914   4.693   5.544  0.1097  0.0459  0.2771
 7685TIP3    H144546   4.902   4.614   5.597  0.2530  0.5543  1.0724
 7685TIP3    H244547   5.002   4.723   5.565  0.1469  0.2788 -0.2113
 7686TIP3   OH244548   5.395   0.975  15.167  0.6544 -0.7475  0.4236
 7686TIP3    H144549   5.404   0.883  15.142 -2.2386 -0.4813 -2.3942
 7686TIP3    H244550   5.353   0.973  15.252 -1.5401 -2.2034 -0.5906
 7687TIP3   OH244551   1.308   1.629  10.227 -0.0937 -0.7620  0.2475
 7687TIP3    H144552   1.289   1.687  10.154  0.3749  1.6252  1.8736
 7687TIP3    H244553   1.332   1.546  10.187  1.0556  0.6976 -2.3292
 7688TIP3   OH244554   4.436   6.384   1.356 -0.4917 -0.4751  0.1809
 7688TIP3    H144555   4.510   6.441   1.377 -1.3796  1.0780 -0.6952
 7688TIP3    H244556   4.453   6.352   1.268 -1.6975  1.4026 -0.7937
 7689TIP3   OH244557   1.832   6.449  16.076 -0.2779  0.1075  0.0971
 7689TIP3    H144558   1.737   6.454  16.066 -0.3152  1.9686  0.8347
 7689TIP3    H244559   1.845   6.393  16.152 -0.7887 -0.2010 -0.0391
 7690TIP3   OH244560   0.142   4.735   1.543  0.2654 -0.2711  0.3655
 7690TIP3    H144561   0.076   4.666   1.547 -0.7265  0.7059  2.4342
 7690TIP3    H244562   0.179   4.739   1.631  1.5501  0.6826 -0.1729
 7691TIP3   OH244563   2.535   1.285   4.883 -0.4898 -0.2438  0.1578
 7691TIP3    H144564   2.441   1.277   4.869 -0.6280 -0.5679  1.1474
 7691TIP3    H244565   2.558   1.370   4.846 -0.8684 -0.8535 -1.5485
 7692TIP3   OH244566   4.294   0.065  13.071 -0.1043  0.3180 -0.1361
 7692TIP3    H144567   4.244   0.043  12.992  2.7993 -1.7875 -1.5779
 7692TIP3    H244568   4.272  -0.005  13.133 -0.5258  0.5831  0.0145
 7693TIP3   OH244569   0.784   2.729   2.994 -0.3479 -0.6910  0.3440
 7693TIP3    H144570   0.787   2.793   2.922  1.9281 -3.0627 -1.9053
 7693TIP3    H244571   0.704   2.750   3.042  0.5207  4.1753  0.2100
 7694TIP3   OH244572   1.195   6.700  11.772 -0.1765 -0.0737 -0.3543
 7694TIP3    H144573   1.246   6.754  11.832  0.7127 -1.3940  0.1188
 7694TIP3    H244574   1.259   6.652  11.720 -0.8912 -1.5292  0.0309
 7695TIP3   OH244575   4.560   5.590  11.760 -0.4349 -0.3312 -0.2116
 7695TIP3    H144576   4.501   5.574  11.686 -0.5990 -0.8208  0.0214
 7695TIP3    H244577   4.538   5.522  11.824 -0.2260  0.0245  0.2475
 7696TIP3   OH244578   3.413   2.052   4.042 -0.7116  0.3320 -0.0090
 7696TIP3    H144579   3.381   2.075   4.129  1.3264 -0.6263  1.0692
 7696TIP3    H244580   3.376   1.965   4.025 -2.4114  1.1883 -0.8384
 7697TIP3   OH244581   1.982   4.175  16.694 -0.5677 -0.0278  0.1466
 7697TIP3    H144582   1.962   4.238  16.763 -0.4704 -0.9456  1.0353
 7697TIP3    H244583   1.939   4.210  16.616  1.3792  2.3706  0.0056
 7698TIP3   OH244584   5.742   4.632  15.743 -0.2375  0.2513 -0.2481
 7698TIP3    H144585   5.728   4.564  15.809  0.4371  0.0096 -0.3422
 7698TIP3    H244586   5.666   4.626  15.686 -1.4210  1.2557  1.1718
 7699TIP3   OH244587   0.943   6.552  12.630  0.2929 -0.4371 -0.5776
 7699TIP3    H144588   0.849   6.568  12.638  0.2053 -0.1840 -1.8357
 7699TIP3    H244589   0.950   6.482  12.565  0.9714 -0.4172 -0.5362
 7700TIP3   OH244590   6.150   2.155  14.248 -0.2243  0.0980  0.0319
 7700TIP3    H144591   6.075   2.157  14.189 -0.3549 -0.3899  0.1738
 7700TIP3    H244592   6.179   2.246  14.253 -2.4307  0.7920  2.0578
 7701TIP3   OH244593   4.332   0.817  16.861  0.0758  0.1108 -0.2593
 7701TIP3    H144594   4.413   0.863  16.840 -0.5734  1.5491  0.2147
 7701TIP3    H244595   4.338   0.734  16.814  0.6645  1.3039 -2.4180
 7702TIP3   OH244596   3.525   5.297   4.430 -0.0368 -0.2505 -0.0250
 7702TIP3    H144597   3.581   5.328   4.502  0.1212 -1.1006  0.2265
 7702TIP3    H244598   3.537   5.362   4.361  2.2133 -1.0035 -0.4375
 7703TIP3   OH244599   1.905   4.345   0.270 -0.3384  0.2267  0.0203
 7703TIP3    H144600   1.907   4.336   0.365 -0.8175 -1.2154 -0.0790
 7703TIP3    H244601   1.825   4.299   0.244  1.2336 -1.9755 -1.2999
 7704TIP3   OH244602   1.480   3.445  16.959  0.7022  0.0299 -0.3393
 7704TIP3    H144603   1.488   3.534  16.925  0.3822  0.9996  1.9820
 7704TIP3    H244604   1.570   3.416  16.973  0.7917  0.2348 -0.4920
 7705TIP3   OH244605   6.275   0.149   1.935 -0.5243  0.5617  0.7147
 7705TIP3    H144606   6.231   0.085   1.991  0.2588 -0.5173  0.1335
 7705TIP3    H244607   6.284   0.105   1.850  0.5656  1.2243  0.4679
 7706TIP3   OH244608   2.416   1.529  16.818  0.5904 -0.4196 -0.3678
 7706TIP3    H144609   2.356   1.573  16.757 -1.3082  1.4773  2.6063
 7706TIP3    H244610   2.458   1.601  16.866  3.0744 -1.8099 -0.2831
 7707TIP3   OH244611   4.276   4.586   3.140 -0.4331  0.2937 -0.6758
 7707TIP3    H144612   4.289   4.501   3.098 -0.9730  0.0388 -0.3299
 7707TIP3    H244613   4.182   4.591   3.157 -0.3802  0.8780 -0.5167
 7708TIP3   OH244614   4.717   3.224   2.597  0.0135 -0.2544  0.1032
 7708TIP3    H144615   4.723   3.145   2.650  0.5865  0.4129  1.0732
 7708TIP3    H244616   4.743   3.197   2.509 -0.8057 -1.3450  0.1836
 7709TIP3   OH244617   0.412   5.165  13.413 -0.5547 -0.2132 -0.1016
 7709TIP3    H144618   0.379   5.231  13.474 -0.4211  1.4224 -1.7242
 7709TIP3    H244619   0.381   5.193  13.328  1.2348 -1.1214 -1.1174
 7710TIP3   OH244620   1.097   6.437   2.008 -0.1931  0.4446  0.0175
 7710TIP3    H144621   1.103   6.517   1.956  0.4948  0.2008 -0.2886
 7710TIP3    H244622   1.163   6.448   2.077 -1.4154  0.9734  1.1555
 7711TIP3   OH244623   5.169   1.458   4.937  0.1896  0.0281  0.7002
 7711TIP3    H144624   5.255   1.477   4.974 -0.2124  0.7874  1.2737
 7711TIP3    H244625   5.187   1.423   4.850  1.1212 -0.9676  1.2730
 7712TIP3   OH244626   4.660   5.921   4.499 -0.2185 -0.5142  0.0039
 7712TIP3    H144627   4.588   5.859   4.510 -0.3500 -0.3283  0.2070
 7712TIP3    H244628   4.628   6.002   4.540  0.4627 -0.7055  0.9278
 7713TIP3   OH244629   0.768   0.620  15.812 -0.3205 -0.6170  0.3806
 7713TIP3    H144630   0.677   0.629  15.782  0.0809 -0.7592 -0.9472
 7713TIP3    H244631   0.761   0.617  15.907 -1.7399 -0.9241  0.2993
 7714TIP3   OH244632   0.630   6.674  10.883 -0.1925  0.7806  0.5732
 7714TIP3    H144633   0.594   6.699  10.798 -1.8587 -3.5135 -0.2750
 7714TIP3    H244634   0.554   6.671  10.941  0.3753  0.5036  1.3194
 7715TIP3   OH244635   3.228   0.829  17.038 -0.3453  0.0657 -0.5244
 7715TIP3    H144636   3.320   0.837  17.064 -0.6501  0.0235  0.6462
 7715TIP3    H244637   3.206   0.915  17.002  1.2606 -1.0638 -4.8686
 7716TIP3   OH244638   1.574   6.348   0.593 -0.1145 -0.0742  1.1036
 7716TIP3    H144639   1.553   6.347   0.686 -0.4409 -0.4265  1.0312
 7716TIP3    H244640   1.541   6.432   0.562 -0.5929 -0.2304  1.1803
 7717TIP3   OH244641   3.453   1.877   4.721 -0.7475  0.0166  0.2791
 7717TIP3    H144642   3.490   1.800   4.678 -1.1151 -0.6207  1.0612
 7717TIP3    H244643   3.426   1.845   4.807 -0.9374  1.0214  0.6038
 7718TIP3   OH244644   0.742   1.929  13.963 -0.0800  0.0772 -1.0573
 7718TIP3    H144645   0.756   2.008  13.911  1.1916 -0.1219 -1.0572
 7718TIP3    H244646   0.809   1.868  13.932  0.9019  0.0454  0.9906
 7719TIP3   OH244647   1.886   6.154   5.550  0.4308 -0.1821  0.0751
 7719TIP3    H144648   1.790   6.149   5.551  0.3793  0.2691 -1.1090
 7719TIP3    H244649   1.914   6.087   5.613 -0.6564 -0.3032  0.4564
 7720TIP3   OH244650   5.793   0.418  11.858  0.5899 -0.0830  0.2954
 7720TIP3    H144651   5.742   0.415  11.940  0.1541  1.0781  0.0855
 7720TIP3    H244652   5.737   0.374  11.794  1.0737 -1.2891  0.6784
 7721TIP3   OH244653   1.750   4.849  13.800 -0.7341 -0.3570  0.5233
 7721TIP3    H144654   1.793   4.914  13.855 -1.5520  0.3185  0.3869
 7721TIP3    H244655   1.815   4.780  13.790  1.3619  1.7267 -1.7779
 7722TIP3   OH244656   3.013   1.311   4.766  0.0508  0.5854  0.6055
 7722TIP3    H144657   2.952   1.384   4.753 -0.8539 -0.3345 -0.4889
 7722TIP3    H244658   3.099   1.353   4.768 -0.4778  1.7298  0.3783
 7723TIP3   OH244659   4.838   1.205   1.838 -0.4053  0.6307  0.1271
 7723TIP3    H144660   4.917   1.179   1.792  0.3908  0.6379  1.4476
 7723TIP3    H244661   4.778   1.235   1.768  0.3617 -0.3173 -0.9689
 7724TIP3   OH244662   2.809   6.444  11.125  0.2882  0.2712  0.1895
 7724TIP3    H144663   2.799   6.511  11.058 -1.3706  0.3311  0.4575
 7724TIP3    H244664   2.747   6.469  11.194  2.9845  1.0945  2.5305
 7725TIP3   OH244665   2.520   6.755   5.972  0.1798  0.2189  1.3990
 7725TIP3    H144666   2.607   6.772   6.007  1.1163  0.0454 -0.6903
 7725TIP3    H244667   2.493   6.839   5.933 -0.6039  0.2665  2.0094
 7726TIP3   OH244668   1.748   6.051   3.043  0.0897  0.1877 -0.9683
 7726TIP3    H144669   1.658   6.023   3.025 -0.2654  2.2724 -2.9409
 7726TIP3    H244670   1.802   6.000   2.982  0.3770 -1.4792  0.6082
 7727TIP3   OH244671   2.875   3.908   5.741 -0.2545 -0.4019  0.4026
 7727TIP3    H144672   2.863   3.889   5.834  0.3540  2.0957  1.0536
 7727TIP3    H244673   2.809   3.974   5.721 -0.1061 -0.6046 -0.8493
 7728TIP3   OH244674   1.470   4.687  11.999  0.3397  0.6635  0.3040
 7728TIP3    H144675   1.545   4.669  11.943  0.4455  0.5303  0.4861
 7728TIP3    H244676   1.508   4.717  12.082  0.1587  2.0925 -0.1045
 7729TIP3   OH244677   2.634   6.258  15.853  0.1729 -0.0503 -0.4484
 7729TIP3    H144678   2.723   6.223  15.841  0.3063  0.5820 -1.3904
 7729TIP3    H244679   2.605   6.220  15.936  1.8691  0.8237  0.6255
 7730TIP3   OH244680   5.635   2.138   5.195  0.2547  0.2360 -0.7363
 7730TIP3    H144681   5.715   2.181   5.164  1.3061 -0.8327  0.3697
 7730TIP3    H244682   5.608   2.083   5.122  0.0971  1.1565 -1.3867
 7731TIP3   OH244683   1.037   0.290   1.628  0.3097  0.0909 -0.0373
 7731TIP3    H144684   1.132   0.298   1.631  0.3977 -0.6073 -0.6703
 7731TIP3    H244685   1.012   0.321   1.541  0.0575 -0.5832 -0.2145
 7732TIP3   OH244686   3.806   0.062  11.643  0.1493 -0.6357 -0.0942
 7732TIP3    H144687   3.785   0.010  11.720  0.5031 -0.7488 -0.0729
 7732TIP3    H244688   3.820   0.150  11.676  1.0097 -0.8253  0.0759
 7733TIP3   OH244689   0.575   4.557  16.762  0.0897  0.5497 -0.0893
 7733TIP3    H144690   0.641   4.509  16.712  0.6600  1.6781 -0.4619
 7733TIP3    H244691   0.619   4.639  16.786 -1.5922  1.9672 -1.5473
 7734TIP3   OH244692   2.860   2.452   3.108  0.1545 -0.1300  0.6672
 7734TIP3    H144693   2.903   2.444   3.193 -0.2089  0.0124  0.8681
 7734TIP3    H244694   2.769   2.427   3.125  0.4795 -1.9317 -0.0672
 7735TIP3   OH244695   3.290   0.808  13.155 -0.8720 -0.1631  0.8164
 7735TIP3    H144696   3.271   0.898  13.181 -3.2091 -0.3075 -0.1638
 7735TIP3    H244697   3.279   0.757  13.236  1.0234  0.4347  1.5098
 7736TIP3   OH244698   4.452   1.586  12.732 -0.0009  0.0254 -0.3996
 7736TIP3    H144699   4.456   1.661  12.791 -0.7601 -0.2237 -0.0210
 7736TIP3    H244700   4.445   1.510  12.790 -1.0696 -0.1977 -0.8098
 7737TIP3   OH244701   3.551   0.277   5.139  0.6177 -0.4086  0.3525
 7737TIP3    H144702   3.503   0.354   5.110 -0.4066 -0.6201  1.4137
 7737TIP3    H244703   3.572   0.294   5.230  1.3021 -0.9476  0.3052
 7738TIP3   OH244704   4.095   6.040   2.541  0.7902  0.2311 -0.1409
 7738TIP3    H144705   4.062   6.110   2.485  0.4711  0.2404  0.0615
 7738TIP3    H244706   4.133   5.976   2.480 -1.5945 -0.8832 -0.5604
 7739TIP3   OH244707   6.333   0.024   5.467  0.2728  0.2595 -0.7583
 7739TIP3    H144708   6.418   0.003   5.504 -0.3688 -0.8554  0.1537
 7739TIP3    H244709   6.298   0.092   5.525 -0.2339 -0.6346  0.0019
 7740TIP3   OH244710   5.278   1.312   1.219  0.3504  0.1251  0.3754
 7740TIP3    H144711   5.306   1.222   1.238 -0.6771 -0.4544 -0.7166
 7740TIP3    H244712   5.339   1.367   1.268  1.5300 -1.1444  0.3995
 7741TIP3   OH244713   5.693   1.661  13.053  0.3853 -0.2391  0.5488
 7741TIP3    H144714   5.703   1.613  12.970  0.4892  0.0742  0.3800
 7741TIP3    H244715   5.705   1.753  13.029  0.6113 -0.1639  0.9460
 7742TIP3   OH244716   3.267   3.702   6.242  0.4246 -0.0744  0.0292
 7742TIP3    H144717   3.241   3.622   6.288  0.1816 -0.0264 -0.0224
 7742TIP3    H244718   3.357   3.718   6.270  0.0888  0.2848  0.9545
 7743TIP3   OH244719   6.245   4.141   4.729  0.0551  0.7415 -0.3391
 7743TIP3    H144720   6.299   4.141   4.650  0.9803  1.7766  0.2654
 7743TIP3    H244721   6.172   4.084   4.708 -1.0439  2.8775 -2.8530
 7744TIP3   OH244722   6.030   5.919   1.470 -0.0718 -0.3008  0.5682
 7744TIP3    H144723   6.064   6.009   1.475 -2.1963  0.5168  1.4764
 7744TIP3    H244724   6.107   5.866   1.451  1.0953  1.8044 -1.0346
 7745TIP3   OH244725   2.721   6.489   4.219  0.0207 -0.8699  0.0918
 7745TIP3    H144726   2.664   6.501   4.143 -1.4265 -1.9125  0.9533
 7745TIP3    H244727   2.790   6.554   4.208 -1.6376  0.8502 -0.7159
 7746TIP3   OH244728   6.756   2.234  11.067 -0.0188  0.4416 -0.9013
 7746TIP3    H144729   6.666   2.225  11.099  0.3337  1.0686  0.3492
 7746TIP3    H244730   6.777   2.148  11.029 -0.5932 -0.2616  0.3034
 7747TIP3   OH244731   0.223   1.410   2.300  0.9355  0.0197 -0.5187
 7747TIP3    H144732   0.166   1.475   2.341  1.9675  0.2492  0.5985
 7747TIP3    H244733   0.189   1.326   2.332  0.5692  0.0910 -0.7138
 7748TIP3   OH244734   5.911   0.847   1.767  0.3392 -0.7565  0.2381
 7748TIP3    H144735   5.916   0.785   1.694 -0.6081 -3.0023  1.9283
 7748TIP3    H244736   5.999   0.846   1.805 -0.0340 -2.4015  1.1849
 7749TIP3   OH244737   1.753   2.497   5.692 -0.0064  0.2389  0.2471
 7749TIP3    H144738   1.730   2.438   5.764  1.5067  0.4761  0.9576
 7749TIP3    H244739   1.697   2.573   5.704  1.6779  1.2318  2.5080
 7750TIP3   OH244740   1.900   6.333  11.752 -0.2694 -0.0922 -0.1323
 7750TIP3    H144741   1.988   6.296  11.749 -0.1895 -0.1296  1.7947
 7750TIP3    H244742   1.914   6.426  11.767 -0.5689  0.0557 -0.7133
 7751TIP3   OH244743   2.051   0.677   4.433  0.2492 -0.4271  0.2983
 7751TIP3    H144744   2.017   0.689   4.344  0.2319 -0.9270  0.2389
 7751TIP3    H244745   2.039   0.584   4.451 -0.5857 -0.1677  1.1618
 7752TIP3   OH244746   3.273   6.338   1.043 -0.1806 -0.4166 -0.2202
 7752TIP3    H144747   3.312   6.403   0.986 -1.1080  0.4627  0.1145
 7752TIP3    H244748   3.246   6.267   0.984  0.0566 -0.1130 -0.6987
 7753TIP3   OH244749   6.744   5.064  10.652  0.0612 -0.3960 -0.2156
 7753TIP3    H144750   6.814   5.070  10.586 -0.3962 -0.5977 -0.7224
 7753TIP3    H244751   6.676   5.011  10.610 -0.2545 -0.4877  0.4048
 7754TIP3   OH244752   3.508   4.109  13.905  0.1214  0.0810 -0.0529
 7754TIP3    H144753   3.431   4.084  13.855  0.8414  1.1654 -1.8170
 7754TIP3    H244754   3.514   4.045  13.976 -2.0963 -0.3025 -0.1666
 7755TIP3   OH244755   6.249   1.607   4.740 -0.1443  0.3312 -0.3490
 7755TIP3    H144756   6.259   1.683   4.798  1.9263  0.2370 -0.5299
 7755TIP3    H244757   6.237   1.533   4.799 -2.7464  0.7897 -0.1727
 7756TIP3   OH244758   0.790   2.351   2.641  0.0354  0.1792 -0.1836
 7756TIP3    H144759   0.761   2.442   2.644 -0.5001  0.0713 -1.6600
 7756TIP3    H244760   0.713   2.302   2.613 -0.7236 -1.2487  3.7657
 7757TIP3   OH244761   0.272   4.075  10.908  0.5068  0.5163  0.6153
 7757TIP3    H144762   0.227   4.014  10.850  0.7813  0.6916  0.2183
 7757TIP3    H244763   0.242   4.051  10.996 -0.3150  0.5976  0.3635
 7758TIP3   OH244764   6.328   4.499   2.538  0.2536 -0.3371 -0.5016
 7758TIP3    H144765   6.233   4.506   2.530  0.3405  0.9031 -0.7217
 7758TIP3    H244766   6.358   4.470   2.452  0.0785 -0.7126 -0.4373
 7759TIP3   OH244767   2.198   6.785  14.618 -0.2140 -0.4576 -0.3433
 7759TIP3    H144768   2.269   6.787  14.681  0.9629  3.0815 -1.5354
 7759TIP3    H244769   2.241   6.775  14.533 -1.2205  0.3192 -0.9790
 7760TIP3   OH244770   6.105   1.633  15.682 -0.0943  0.5192 -0.0951
 7760TIP3    H144771   6.119   1.727  15.690 -1.7607  0.7312  0.6706
 7760TIP3    H244772   6.032   1.614  15.740  0.3781 -1.3079 -0.0255
 7761TIP3   OH244773   6.857   2.635   1.482  0.7371  0.1490 -0.2992
 7761TIP3    H144774   6.947   2.611   1.464  1.5975  1.7031  1.5722
 7761TIP3    H244775   6.860   2.729   1.500 -1.1212  0.0957  0.5321
 7762TIP3   OH244776   0.264   2.533  14.832  0.1170 -0.3779  0.2483
 7762TIP3    H144777   0.321   2.538  14.908  1.3183 -0.6697 -0.5969
 7762TIP3    H244778   0.206   2.459  14.850  0.4181 -0.4691  0.8573
 7763TIP3   OH244779   0.172   0.421  16.405  0.5632  0.0138  0.1937
 7763TIP3    H144780   0.131   0.377  16.330  2.2091 -1.0616 -0.1360
 7763TIP3    H244781   0.231   0.485  16.366 -2.9843  3.9868  0.6519
 7764TIP3   OH244782   2.527   6.234   0.578  0.1510 -0.3808  0.4426
 7764TIP3    H144783   2.454   6.292   0.558  0.0854 -0.4061  0.6060
 7764TIP3    H244784   2.491   6.146   0.569  0.2673 -0.3962  0.1322
 7765TIP3   OH244785   2.402   5.909   3.773  0.2295 -0.4036 -0.3732
 7765TIP3    H144786   2.480   5.955   3.741  1.4818 -1.4756  0.9772
 7765TIP3    H244787   2.377   5.852   3.700  0.9845 -0.3836 -0.6612
 7766TIP3   OH244788   0.111   0.824   3.127 -0.2101 -0.4673 -0.0054
 7766TIP3    H144789   0.186   0.768   3.106  0.0917 -0.4521  0.9701
 7766TIP3    H244790   0.063   0.775   3.194 -1.8060 -1.0672 -1.5106
 7767TIP3   OH244791   0.433   0.286  14.497  0.7525 -0.0846 -0.2085
 7767TIP3    H144792   0.426   0.364  14.551 -0.3171 -0.8552  0.8203
 7767TIP3    H244793   0.507   0.303  14.439  1.1909  1.2543  0.7041
 7768TIP3   OH244794   1.255   1.451   1.663  0.0857  0.0401 -0.0063
 7768TIP3    H144795   1.175   1.472   1.615 -0.8662 -2.3738  0.3632
 7768TIP3    H244796   1.227   1.446   1.755  1.2522  1.6917  0.4736
 7769TIP3   OH244797   3.892   2.803  13.691 -0.0735  0.3283  0.9590
 7769TIP3    H144798   3.983   2.780  13.707  0.1074 -0.3271 -0.7393
 7769TIP3    H244799   3.872   2.872  13.754  1.5252  0.3228  1.4988
 7770TIP3   OH244800   3.255   0.391  13.860 -0.0045 -0.6554 -0.0102
 7770TIP3    H144801   3.299   0.393  13.945 -1.1423 -1.9754  0.6674
 7770TIP3    H244802   3.223   0.301  13.853  0.2393 -0.6140 -1.9489
 7771TIP3   OH244803   2.207   3.027   1.696  0.7686 -0.2718 -0.0317
 7771TIP3    H144804   2.255   3.105   1.722  1.2496 -0.5746  0.0138
 7771TIP3    H244805   2.120   3.058   1.673  0.6776  0.1541  0.8496
 7772TIP3   OH244806   5.014   4.967   5.231  0.2488  0.5553  0.0188
 7772TIP3    H144807   5.005   5.000   5.321  4.4323 -0.4168  1.0291
 7772TIP3    H244808   5.035   4.874   5.242  1.6051  0.5929 -1.8767
 7773TIP3   OH244809   4.720   4.803  11.262 -0.0649 -0.5430 -0.6785
 7773TIP3    H144810   4.654   4.746  11.223 -0.5124  0.2150 -1.0604
 7773TIP3    H244811   4.783   4.819  11.192  1.8885 -3.1502  0.3065
 7774TIP3   OH244812   5.937   2.436   1.597  0.6802 -0.3652 -0.0966
 7774TIP3    H144813   5.899   2.487   1.669  0.5812  0.7783 -0.9248
 7774TIP3    H244814   5.902   2.348   1.609  0.1198 -0.0318  0.8587
 7775TIP3   OH244815   5.422   2.406  11.997  0.3389 -0.6678  0.2302
 7775TIP3    H144816   5.329   2.424  12.010  0.5894  1.4861 -0.5814
 7775TIP3    H244817   5.428   2.372  11.908  0.2340 -2.0666  0.7183
 7776TIP3   OH244818   6.407   4.044   1.656  0.5588 -0.2021 -0.1489
 7776TIP3    H144819   6.380   4.057   1.565 -0.0251  1.2253  0.1905
 7776TIP3    H244820   6.474   4.111   1.671 -1.0658  1.2575  1.1244
 7777TIP3   OH244821   0.760   3.080   0.250 -0.0387 -0.0202  0.0227
 7777TIP3    H144822   0.835   3.105   0.196  0.1086  0.9270  0.6360
 7777TIP3    H244823   0.739   3.159   0.300 -1.0849 -0.4455  0.2831
 7778TIP3   OH244824   3.936   1.235  14.236 -0.0019  0.2064 -0.1724
 7778TIP3    H144825   3.928   1.149  14.196 -0.6087 -0.4899  1.3812
 7778TIP3    H244826   3.862   1.240  14.296  1.0225  1.0992  1.0502
 7779TIP3   OH244827   6.674   1.510   4.866  0.0706 -0.1966 -0.1021
 7779TIP3    H144828   6.694   1.473   4.780 -0.2631  0.4062 -0.4412
 7779TIP3    H244829   6.671   1.434   4.924 -2.0491 -0.9113 -1.0513
 7780TIP3   OH244830   5.620   0.696  12.816  0.1617 -0.2572 -0.1719
 7780TIP3    H144831   5.671   0.709  12.896  0.0877  1.8484 -0.4054
 7780TIP3    H244832   5.655   0.760  12.755 -0.4996 -1.1213 -1.4902
 7781TIP3   OH244833   0.786   2.914   2.792  0.0055 -0.1090  0.4531
 7781TIP3    H144834   0.817   2.908   2.702 -1.0763 -2.2619  0.1561
 7781TIP3    H244835   0.754   3.004   2.801 -1.0372 -0.2062 -1.7201
 7782TIP3   OH244836   6.519   3.411   2.052  0.1207  0.0914 -0.2779
 7782TIP3    H144837   6.572   3.396   1.974  0.2133 -0.6697 -0.0809
 7782TIP3    H244838   6.579   3.455   2.113  0.5318 -0.7406 -0.0673
 7783TIP3   OH244839   4.685   4.772  14.008 -0.0802  0.9765 -0.7521
 7783TIP3    H144840   4.672   4.691  13.958 -0.4288 -0.1001  0.9930
 7783TIP3    H244841   4.765   4.810  13.970  1.5178 -1.4283 -0.1121
 7784TIP3   OH244842   3.899   1.738  14.596  0.1506  0.2525  0.2784
 7784TIP3    H144843   3.805   1.758  14.603 -0.1059 -1.0647  1.0590
 7784TIP3    H244844   3.901   1.644  14.576  1.2976  0.0039  1.4184
 7785TIP3   OH244845   2.105   3.418   2.866  0.7641 -0.1436  0.3755
 7785TIP3    H144846   2.138   3.363   2.795 -0.0922 -0.4351  0.2002
 7785TIP3    H244847   2.156   3.390   2.943  1.3011 -0.2143  0.0032
 7786TIP3   OH244848   1.357   0.190  10.937 -0.1540 -0.4092 -0.1335
 7786TIP3    H144849   1.393   0.251  11.001  0.4451 -0.7907 -0.0992
 7786TIP3    H244850   1.405   0.109  10.951  0.2008 -0.4192 -1.2474
 7787TIP3   OH244851   0.717   4.197  12.506  0.0744  0.0711 -0.9390
 7787TIP3    H144852   0.724   4.287  12.539 -0.7455 -0.4283  0.7152
 7787TIP3    H244853   0.687   4.206  12.416  0.1135  1.4634 -0.8305
 7788TIP3   OH244854   6.377   1.935  13.177 -0.5359 -0.7448 -0.3614
 7788TIP3    H144855   6.327   2.014  13.156 -0.2210 -0.9410 -1.9918
 7788TIP3    H244856   6.392   1.940  13.271 -0.8880  0.9202 -0.3694
 7789TIP3   OH244857   3.473   5.846  16.826  0.0692  0.1810 -0.5614
 7789TIP3    H144858   3.390   5.817  16.788 -1.0988 -0.6204  2.3479
 7789TIP3    H244859   3.495   5.778  16.890  2.0524  1.2902  0.0163
 7790TIP3   OH244860   5.629   2.840   0.422 -0.1394 -0.4408  0.6226
 7790TIP3    H144861   5.556   2.813   0.479 -0.6248 -2.5266 -0.8597
 7790TIP3    H244862   5.702   2.784   0.449  0.0585 -0.3922  0.1946
 7791TIP3   OH244863   1.242   5.845  12.195 -0.2784 -0.0683  0.0442
 7791TIP3    H144864   1.247   5.779  12.265  0.3730  0.5175  0.5630
 7791TIP3    H244865   1.219   5.926  12.240 -2.7488 -0.2243 -0.7924
 7792TIP3   OH244866   2.121   3.205  15.686  0.7697  0.1016  0.2926
 7792TIP3    H144867   2.195   3.239  15.636  0.7566 -2.7820 -1.8994
 7792TIP3    H244868   2.161   3.151  15.755  0.7523 -0.8959 -0.4632
 7793TIP3   OH244869   0.355   3.323   1.650 -0.1102  0.2434  0.0471
 7793TIP3    H144870   0.360   3.325   1.554  1.8611  2.2468  0.1288
 7793TIP3    H244871   0.270   3.282   1.668 -1.2873  1.2849 -2.5827
 7794TIP3   OH244872   4.943   4.140   6.391 -0.0636 -0.4913 -0.3600
 7794TIP3    H144873   4.929   4.221   6.342  1.2264 -1.6461 -2.8346
 7794TIP3    H244874   5.002   4.165   6.462 -0.2408  0.8628 -0.6618
 7795TIP3   OH244875   2.905   3.458   3.439 -0.1560 -0.1533  0.0648
 7795TIP3    H144876   2.996   3.484   3.427  0.5030 -1.7201  1.3061
 7795TIP3    H244877   2.869   3.525   3.498  0.3395  0.1883 -0.0112
 7796TIP3   OH244878   0.225   4.876  12.433 -0.0683  0.4193 -0.2347
 7796TIP3    H144879   0.215   4.802  12.493 -1.0751  0.2159 -0.6275
 7796TIP3    H244880   0.223   4.836  12.346  0.9127  0.7579 -0.4195
 7797TIP3   OH244881   1.466   2.799  16.116  0.2579  0.6004 -0.3014
 7797TIP3    H144882   1.479   2.743  16.193 -0.9602  0.2440 -0.3332
 7797TIP3    H244883   1.553   2.809  16.079  0.6927 -0.1803  0.4648
 7798TIP3   OH244884   6.243   6.132  10.965 -0.1202 -0.3364 -0.1894
 7798TIP3    H144885   6.304   6.170  10.902  0.4801 -0.8250  0.0780
 7798TIP3    H244886   6.267   6.172  11.049 -0.8131  0.1951 -0.2336
 7799TIP3   OH244887   6.083   4.875  11.914 -0.0859 -0.2635  0.1283
 7799TIP3    H144888   6.130   4.936  11.971 -1.0687  0.2534  0.4174
 7799TIP3    H244889   6.033   4.820  11.974 -0.9494  0.1344 -0.2154
 7800TIP3   OH244890   6.521   1.825  16.581  0.1736  0.0220 -0.3230
 7800TIP3    H144891   6.530   1.802  16.674 -1.0323  1.8878  0.3015
 7800TIP3    H244892   6.563   1.752  16.535 -1.3274 -2.2104  1.5693
 7801TIP3   OH244893   4.032   6.214  13.550  0.4309 -0.0105 -0.4432
 7801TIP3    H144894   4.033   6.252  13.638  1.8369 -1.1253  0.0600
 7801TIP3    H244895   3.979   6.134  13.559  0.2910  0.0505 -0.7033
 7802TIP3   OH244896   3.391   3.036  14.394  0.2539 -0.1822  0.2608
 7802TIP3    H144897   3.439   2.986  14.328  0.7933  0.3934  0.2144
 7802TIP3    H244898   3.456   3.094  14.433 -0.3275  0.3519  0.4509
 7803TIP3   OH244899   4.201   4.490  14.771  0.2136 -0.1137  0.1026
 7803TIP3    H144900   4.296   4.503  14.764  0.1909  0.4599  0.7255
 7803TIP3    H244901   4.188   4.462  14.862 -0.4836  2.6180  0.9510
 7804TIP3   OH244902   1.860   0.544   0.051 -0.3408  0.1273  0.0506
 7804TIP3    H144903   1.892   0.632   0.032 -2.0711  0.8298  0.2157
 7804TIP3    H244904   1.885   0.528   0.142 -1.1393  0.9981  0.4405
 7805TIP3   OH244905   2.028   3.626   1.233 -0.1836 -0.5493 -0.2349
 7805TIP3    H144906   2.107   3.673   1.262  0.0308  0.1814 -1.8874
 7805TIP3    H244907   2.057   3.578   1.155 -1.6369  0.7358 -1.6382
 7806TIP3   OH244908   6.723   5.341  11.591  0.2096 -0.5615 -0.1074
 7806TIP3    H144909   6.668   5.284  11.538 -1.0282  1.3510 -1.0089
 7806TIP3    H244910   6.662   5.406  11.627  1.7901  1.3439 -0.7288
 7807TIP3   OH244911   0.831   6.773  16.308 -0.0530  0.4013  0.1387
 7807TIP3    H144912   0.868   6.861  16.308  2.6834 -0.6621  0.3726
 7807TIP3    H244913   0.829   6.748  16.216 -1.6743  0.9773 -0.0159
 7808TIP3   OH244914   2.838   2.121  10.538  0.3094  0.2284  0.2250
 7808TIP3    H144915   2.912   2.173  10.569 -0.9237  0.4254  3.2910
 7808TIP3    H244916   2.771   2.186  10.517 -1.1872  0.1329  3.9300
 7809TIP3   OH244917   4.037   2.839  14.487  0.0950  0.6186 -0.0364
 7809TIP3    H144918   4.120   2.833  14.534  0.0326 -0.6527 -0.0563
 7809TIP3    H244919   3.977   2.783  14.536 -0.4589  0.6957 -0.6117
 7810TIP3   OH244920   0.613   1.919   0.051 -0.4732 -0.5210  0.0909
 7810TIP3    H144921   0.530   1.898   0.010 -1.3648 -0.8766  1.9493
 7810TIP3    H244922   0.597   1.905   0.145  0.9209  1.8071  0.7613
 7811TIP3   OH244923   4.915   2.971  16.050  0.2309  0.0700  0.2191
 7811TIP3    H144924   4.994   2.989  16.101 -0.4307  0.9987  0.9317
 7811TIP3    H244925   4.908   3.045  15.990  0.5639 -0.6244 -0.7122
 7812TIP3   OH244926   4.980   6.105   2.996  0.1629  0.1801  0.5925
 7812TIP3    H144927   5.059   6.157   3.008  0.6585  0.1000 -1.8799
 7812TIP3    H244928   4.910   6.159   3.035  1.3340  0.3701  2.5477
 7813TIP3   OH244929   1.738   4.211   1.212 -0.0183  0.1280  0.0595
 7813TIP3    H144930   1.723   4.277   1.145 -2.4897 -1.6918 -1.3371
 7813TIP3    H244931   1.651   4.192   1.248  0.4088 -2.9695 -0.2518
 7814TIP3   OH244932   4.022   3.578  13.086  0.3919 -0.4380 -0.4898
 7814TIP3    H144933   4.020   3.617  12.999 -0.1551  1.1882  0.2178
 7814TIP3    H244934   4.110   3.595  13.119  0.7518 -1.4648 -0.8793
 7815TIP3   OH244935   1.627   0.430  11.367  0.8012  0.0280  0.0339
 7815TIP3    H144936   1.696   0.488  11.335  0.8482 -0.6275 -1.0962
 7815TIP3    H244937   1.663   0.342  11.361 -0.3983 -0.4084 -1.3745
 7816TIP3   OH244938   0.199   0.893   5.416 -0.5669  0.2075  0.4486
 7816TIP3    H144939   0.294   0.890   5.415 -0.5876 -0.7472 -0.5058
 7816TIP3    H244940   0.178   0.979   5.454  0.6723  0.6760  0.1330
 7817TIP3   OH244941   1.258   1.268   4.435  0.1253 -1.0213  0.2746
 7817TIP3    H144942   1.325   1.273   4.366 -1.2166  0.2649 -1.0113
 7817TIP3    H244943   1.189   1.215   4.395 -0.6202 -0.3517  0.6684
 7818TIP3   OH244944   2.480   0.965   4.450 -0.3056 -0.3088  0.3805
 7818TIP3    H144945   2.479   1.001   4.362 -0.2423 -1.3842 -0.0841
 7818TIP3    H244946   2.390   0.936   4.464 -0.2909 -0.2332  0.6253
 7819TIP3   OH244947   3.903   1.710   4.728  0.0828 -0.3244 -0.1087
 7819TIP3    H144948   3.939   1.654   4.659  0.3071 -1.1593  0.6709
 7819TIP3    H244949   3.952   1.687   4.807  0.5724  1.3748  0.1341
 7820TIP3   OH244950   4.424   0.783   1.942  0.2761 -0.0152  0.2064
 7820TIP3    H144951   4.502   0.813   1.896 -0.1853 -1.9215 -2.0067
 7820TIP3    H244952   4.438   0.689   1.954 -0.4152  0.1160  2.5102
 7821TIP3   OH244953   0.449   1.772   2.444  0.6248  0.8756  1.1138
 7821TIP3    H144954   0.540   1.740   2.445  0.2769 -0.3554 -0.9086
 7821TIP3    H244955   0.423   1.768   2.352 -2.1131 -0.6750  1.8505
 7822TIP3   OH244956   1.889   2.397   5.951  1.1739 -0.6450 -0.1689
 7822TIP3    H144957   1.853   2.406   6.040  0.7341 -1.0138 -0.3033
 7822TIP3    H244958   1.925   2.309   5.949  2.1155 -0.2692 -0.0339
 7823TIP3   OH244959   0.417   1.161  12.093  0.6253 -0.3068 -0.0299
 7823TIP3    H144960   0.427   1.068  12.112  1.6598  0.1310  1.8251
 7823TIP3    H244961   0.360   1.164  12.017 -1.2471 -2.4031  1.1676
 7824TIP3   OH244962   6.224   6.210  11.945 -0.2255 -0.2138  0.4597
 7824TIP3    H144963   6.217   6.130  11.995  0.6463 -0.2828  0.4846
 7824TIP3    H244964   6.249   6.182  11.857 -0.8623 -0.0327  0.2149
 7825TIP3   OH244965   4.828   5.045   3.271 -0.3413 -0.3641 -0.7604
 7825TIP3    H144966   4.760   4.987   3.237 -0.9265  0.8917 -1.8508
 7825TIP3    H244967   4.841   5.109   3.201 -0.0832  1.1095  0.5806
 7826TIP3   OH244968   2.414   3.193   3.610 -0.3208 -0.3322  0.1116
 7826TIP3    H144969   2.336   3.231   3.571  0.5622 -1.0318 -2.5116
 7826TIP3    H244970   2.381   3.128   3.672 -1.7727  0.5512  0.3284
 7827TIP3   OH244971   1.789   0.293   4.966  0.5588 -0.2498 -0.1113
 7827TIP3    H144972   1.707   0.334   4.936  1.0289 -0.9538 -2.6311
 7827TIP3    H244973   1.857   0.352   4.934  1.0879 -0.3997  0.7359
 7828TIP3   OH244974   4.621   0.111  14.032  0.4490  0.4428  0.0242
 7828TIP3    H144975   4.530   0.139  14.031  0.7062  1.3452 -1.8360
 7828TIP3    H244976   4.671   0.193  14.032  1.2405 -0.0105 -1.2508
 7829TIP3   OH244977   3.565   3.855   6.341 -0.0472  0.0215 -0.3710
 7829TIP3    H144978   3.572   3.928   6.402 -1.3732 -0.0787 -0.0746
 7829TIP3    H244979   3.655   3.829   6.323  0.4634  1.9566 -0.7627
 7830TIP3   OH244980   0.055   4.904   3.161  0.2633  0.1206 -0.2112
 7830TIP3    H144981   0.096   4.907   3.248  0.6909 -0.6377 -0.3802
 7830TIP3    H244982   0.122   4.934   3.101 -0.1728  1.0656 -0.2433
 7831TIP3   OH244983   4.833   4.240  12.910 -0.1521 -0.3636 -0.4320
 7831TIP3    H144984   4.746   4.213  12.939 -0.0871 -0.6050 -0.4600
 7831TIP3    H244985   4.893   4.193  12.968 -0.0219 -0.8006 -0.9173
 7832TIP3   OH244986   2.679   0.133   5.231  0.0672 -0.7507  0.1810
 7832TIP3    H144987   2.591   0.097   5.239  0.3034 -1.8239 -1.4797
 7832TIP3    H244988   2.710   0.101   5.146  2.1055 -0.5045  0.7772
 7833TIP3   OH244989   3.696   0.718  14.067 -0.1800 -0.8643  0.5326
 7833TIP3    H144990   3.693   0.735  14.161  1.7695  2.1293  0.1917
 7833TIP3    H244991   3.771   0.659  14.056  0.6970  0.1845  0.7477
 7834TIP3   OH244992   1.254   5.345  16.651 -0.2113 -0.1510 -0.4962
 7834TIP3    H144993   1.296   5.281  16.708 -1.1064  0.4515  0.8824
 7834TIP3    H244994   1.253   5.302  16.565 -0.6218 -1.9363  0.3381
 7835TIP3   OH244995   1.773   5.868   1.224  0.3369 -0.5255  0.4872
 7835TIP3    H144996   1.804   5.947   1.179  2.9418 -0.6934  1.7950
 7835TIP3    H244997   1.690   5.894   1.263  0.9198  1.4665  0.5251
 7836TIP3   OH244998   3.023   6.548   2.320  0.1729 -0.4930  0.2751
 7836TIP3    H144999   3.068   6.587   2.245  0.1221 -1.1995 -0.1316
 7836TIP3    H245000   3.022   6.454   2.301  1.9634 -0.9507  2.1123
 7837TIP3   OH245001   2.969   0.709   4.028  0.2571 -0.2467  1.0085
 7837TIP3    H145002   2.877   0.715   4.056  0.0650 -0.2529  0.3851
 7837TIP3    H245003   3.000   0.627   4.066  0.2084  0.1000  1.8099
 7838TIP3   OH245004   1.587   1.285  11.345  0.1144 -0.2291  0.2291
 7838TIP3    H145005   1.591   1.258  11.253 -1.2217  0.2306  0.0117
 7838TIP3    H245006   1.627   1.373  11.346  0.4332 -0.3698  0.1619
 7839TIP3   OH245007   1.044   4.404   0.300  0.0340  0.0661 -0.3258
 7839TIP3    H145008   1.072   4.349   0.373  0.0439  0.6903  0.1536
 7839TIP3    H245009   0.980   4.352   0.253  1.4725 -1.1336 -1.0389
 7840TIP3   OH245010   1.998   0.659  11.118  0.0673  0.7159 -0.5799
 7840TIP3    H145011   2.083   0.696  11.093 -0.8483  3.6646  0.2991
 7840TIP3    H245012   1.934   0.723  11.087 -1.7064 -0.4050  0.5922
 7841TIP3   OH245013   4.369   6.108   2.107  0.4257  0.6470 -0.6944
 7841TIP3    H145014   4.367   6.014   2.126 -0.4138  0.9835  1.1548
 7841TIP3    H245015   4.293   6.122   2.050  1.0497  0.1000 -1.6915
 7842TIP3   OH245016   2.273   5.906  15.444 -0.0429 -0.3588  0.0547
 7842TIP3    H145017   2.303   5.846  15.512 -0.5298 -1.1794 -0.4334
 7842TIP3    H245018   2.215   5.966  15.490  1.1461  0.3183  0.7180
 7843TIP3   OH245019   5.290   1.956  16.334 -0.7934 -0.2804 -0.0767
 7843TIP3    H145020   5.261   2.039  16.373 -1.2182 -1.1153  1.4639
 7843TIP3    H245021   5.209   1.911  16.311 -0.6203 -0.8699  0.4378
 7844TIP3   OH245022   6.382   1.089  16.342  0.0274 -0.7803  0.1231
 7844TIP3    H145023   6.379   0.994  16.346  1.1721 -0.9215 -1.2615
 7844TIP3    H245024   6.331   1.111  16.264  0.6923 -0.3541 -0.2014
 7845TIP3   OH245025   2.376   1.485   5.532  0.0810  0.2305 -0.3478
 7845TIP3    H145026   2.441   1.420   5.509 -0.6510 -1.4888  1.9865
 7845TIP3    H245027   2.299   1.434   5.559 -0.9217  2.0770  0.5238
 7846TIP3   OH245028   0.803   3.797  15.197  0.1407  0.6045 -0.1543
 7846TIP3    H145029   0.714   3.794  15.233 -0.4041  0.6065 -1.4681
 7846TIP3    H245030   0.842   3.875  15.237  0.4544 -0.7453  2.3906
 7847TIP3   OH245031   1.925   2.546  11.550 -0.3085  0.3551 -0.6567
 7847TIP3    H145032   1.955   2.485  11.483 -0.1796 -0.5883  0.2384
 7847TIP3    H245033   1.831   2.552  11.537 -0.6232 -1.5391  0.4115
 7848TIP3   OH245034   4.568   4.437   0.409 -0.0173 -0.8476 -0.1626
 7848TIP3    H145035   4.616   4.465   0.488 -0.2963  1.4794 -0.7469
 7848TIP3    H245036   4.625   4.463   0.337 -0.8520 -0.7140 -0.7833
 7849TIP3   OH245037   2.992   3.434   5.989 -0.3512 -0.1598 -0.4233
 7849TIP3    H145038   3.039   3.394   6.062  0.0754  1.8993  0.5012
 7849TIP3    H245039   3.060   3.464   5.929 -0.3304  2.7583  0.8800
 7850TIP3   OH245040   1.485   4.187  12.957 -0.4877 -0.4284 -0.3942
 7850TIP3    H145041   1.457   4.135  13.032 -0.8490  0.2377 -0.0548
 7850TIP3    H245042   1.405   4.232  12.928 -0.3608 -0.7116 -1.2037
 7851TIP3   OH245043   4.070   1.663   0.286 -0.0047 -0.8286 -0.0257
 7851TIP3    H145044   4.010   1.589   0.276  0.4610 -0.9310 -3.4444
 7851TIP3    H245045   4.048   1.721   0.213  0.9981  1.4596  1.3729
 7852TIP3   OH245046   1.320   1.571   4.771 -0.0555  0.2623 -0.2416
 7852TIP3    H145047   1.321   1.666   4.771  0.8996  0.2612 -0.8523
 7852TIP3    H245048   1.286   1.547   4.685  0.8544  0.0570 -0.5544
 7853TIP3   OH245049   5.150   2.831   2.290 -0.2961 -0.0429 -0.1274
 7853TIP3    H145050   5.206   2.900   2.254 -0.2122 -0.6267 -1.1484
 7853TIP3    H245051   5.195   2.802   2.369 -0.5784  1.4003  0.6063
 7854TIP3   OH245052   2.171   5.156   2.674  0.1034 -0.0402 -0.1074
 7854TIP3    H145053   2.158   5.178   2.582  1.1692 -0.0334 -0.2659
 7854TIP3    H245054   2.201   5.065   2.673 -1.6074 -0.6530  0.3662
 7855TIP3   OH245055   4.088   5.751  17.001  0.3148 -0.1624 -0.3787
 7855TIP3    H145056   4.057   5.784  16.917 -0.0586  1.4559  0.3624
 7855TIP3    H245057   4.029   5.789  17.066  0.7333 -1.1912  0.6570
 7856TIP3   OH245058   0.002   3.232  12.244 -0.5802  0.3499 -0.2440
 7856TIP3    H145059   0.061   3.186  12.304 -1.0722  0.7668  0.5688
 7856TIP3    H245060   0.046   3.315  12.226  0.5259 -0.5715 -2.0678
 7857TIP3   OH245061   2.150   4.143  11.618  0.5442 -0.0059  0.6122
 7857TIP3    H145062   2.159   4.095  11.535  0.2022 -0.1368  0.6463
 7857TIP3    H245063   2.082   4.208  11.600  1.5233  0.9739  0.3430
 7858TIP3   OH245064   0.287   2.523   2.996 -0.6119 -0.0461 -0.4421
 7858TIP3    H145065   0.357   2.482   2.946 -0.8973 -0.5450 -0.4466
 7858TIP3    H245066   0.308   2.616   2.998  0.0975 -0.2077 -0.3581
 7859TIP3   OH245067   6.853   4.329   1.783  0.7416 -0.4774  0.6492
 7859TIP3    H145068   6.837   4.418   1.814  1.6543 -0.8007  2.1392
 7859TIP3    H245069   6.929   4.337   1.725  1.0592 -0.3451  1.0836
 7860TIP3   OH245070   3.687   5.077   1.096  0.0997 -0.1440  0.2470
 7860TIP3    H145071   3.597   5.072   1.065  0.4996 -0.0584 -0.9978
 7860TIP3    H245072   3.697   5.166   1.130 -0.7826 -0.7043  2.1252
 7861TIP3   OH245073   3.663   2.363  12.967 -0.1406 -0.2760 -0.1666
 7861TIP3    H145074   3.743   2.365  12.914  0.6160 -0.9392  0.9319
 7861TIP3    H245075   3.685   2.311  13.043 -1.3627  0.2752  0.5977
 7862TIP3   OH245076   2.758   4.548  11.303  0.2516  0.0435 -0.0237
 7862TIP3    H145077   2.695   4.546  11.231 -0.9326 -1.7568  0.9909
 7862TIP3    H245078   2.839   4.514  11.264  0.3282  1.3449 -1.0650
 7863TIP3   OH245079   3.551   6.135  13.861 -0.1601 -0.3803  0.1459
 7863TIP3    H145080   3.534   6.151  13.954  0.5172 -1.3578  0.4473
 7863TIP3    H245081   3.646   6.148  13.852 -0.4923  1.8430 -0.8597
 7864TIP3   OH245082   2.718   0.325  14.044 -0.3104  0.1887 -0.3035
 7864TIP3    H145083   2.742   0.363  14.128 -2.5845  1.0344  0.0210
 7864TIP3    H245084   2.710   0.400  13.985  0.9811 -0.3726 -1.2486
 7865TIP3   OH245085   5.115   0.133   6.463 -0.2286 -0.1472  0.3895
 7865TIP3    H145086   5.033   0.170   6.495  0.5246  0.5824  1.5157
 7865TIP3    H245087   5.127   0.053   6.515 -0.0104 -0.0161  0.5448
 7866TIP3   OH245088   1.253   3.096   4.423 -0.5789  0.4604  0.3713
 7866TIP3    H145089   1.317   3.075   4.492  2.4679  0.8774 -2.0806
 7866TIP3    H245090   1.201   3.017   4.414  0.7827 -0.6001  1.3203
 7867TIP3   OH245091   1.250   5.641   3.226  0.3863  0.0616  0.4385
 7867TIP3    H145092   1.335   5.627   3.269  0.2509 -1.2979  0.3117
 7867TIP3    H245093   1.273   5.668   3.137  0.6700  0.8461  0.7392
 7868TIP3   OH245094   4.522   1.829   3.460  0.4464 -0.1678 -0.6614
 7868TIP3    H145095   4.558   1.827   3.549 -2.2154 -3.6155  0.5495
 7868TIP3    H245096   4.583   1.778   3.408  0.3764 -0.9291 -0.0119
 7869TIP3   OH245097   1.398   1.969   5.342 -0.0587  0.0942  0.0522
 7869TIP3    H145098   1.342   2.041   5.370 -0.0123  0.5576 -0.9969
 7869TIP3    H245099   1.399   1.975   5.246  1.4235 -0.1686  0.0214
 7870TIP3   OH245100   4.971   6.775   5.455  0.1556  0.0296 -0.2669
 7870TIP3    H145101   4.917   6.843   5.414  1.6279  1.3414 -0.0854
 7870TIP3    H245102   4.961   6.790   5.549 -1.1020 -1.3108 -0.1497
 7871TIP3   OH245103   2.450   4.805  10.981  0.0217  0.0094 -0.1968
 7871TIP3    H145104   2.467   4.769  11.069  0.4842 -1.9973 -1.0469
 7871TIP3    H245105   2.481   4.737  10.921  0.1920  1.5559 -1.9448
 7872TIP3   OH245106   1.759   3.362  12.992 -0.5351  0.2514  0.5577
 7872TIP3    H145107   1.782   3.270  13.004 -2.8967 -0.6864 -1.1674
 7872TIP3    H245108   1.835   3.411  13.023  0.3908 -2.2211  2.4935
 7873TIP3   OH245109   5.035   1.700   0.880  0.0251 -0.6427  0.6169
 7873TIP3    H145110   5.004   1.610   0.880  2.9054 -1.7795 -1.0989
 7873TIP3    H245111   5.125   1.695   0.913 -0.3824  1.9569  2.4678
 7874TIP3   OH245112   1.884   5.837   5.239 -0.2176  0.6123  0.1800
 7874TIP3    H145113   1.970   5.835   5.280  0.0078  1.0791 -0.2672
 7874TIP3    H245114   1.858   5.929   5.241 -1.6709  0.2255  2.2861
 7875TIP3   OH245115   4.209   5.404   3.301 -0.4336 -0.4064 -0.2833
 7875TIP3    H145116   4.272   5.474   3.312 -1.4590  0.6256 -0.7652
 7875TIP3    H245117   4.155   5.431   3.227 -1.0517 -1.5534 -0.2807
 7876TIP3   OH245118   2.199   5.327   2.922 -0.1099 -0.0003  0.2161
 7876TIP3    H145119   2.128   5.310   2.983 -0.4788  0.8390  0.0335
 7876TIP3    H245120   2.167   5.294   2.838 -0.3668  0.5498  0.0947
 7877TIP3   OH245121   3.415   0.569  12.403  0.2410  0.2435 -0.5395
 7877TIP3    H145122   3.344   0.633  12.388 -0.5303 -0.8309 -1.7141
 7877TIP3    H245123   3.381   0.512  12.472  0.7372  0.7990  0.1791
 7878TIP3   OH245124   0.127   2.059  11.433  0.5003  0.1802 -0.0957
 7878TIP3    H145125   0.045   2.027  11.395  1.7457 -2.0041 -1.1809
 7878TIP3    H245126   0.165   2.114  11.365  0.3460  0.4704  0.0524
 7879TIP3   OH245127   1.010   5.300  14.363 -0.4788 -0.1133  0.0220
 7879TIP3    H145128   0.939   5.361  14.342 -0.1468  1.1341  2.1699
 7879TIP3    H245129   1.090   5.353  14.357  0.0601 -0.9215 -0.1724
 7880TIP3   OH245130   2.187   3.326   2.615  0.1467 -0.5593  0.2242
 7880TIP3    H145131   2.123   3.296   2.550  1.5391 -2.3780 -0.4013
 7880TIP3    H245132   2.235   3.396   2.570  1.7551 -2.4621 -1.1928
 7881TIP3   OH245133   5.923   6.123   2.915 -0.6512 -0.1809  0.2981
 7881TIP3    H145134   5.911   6.126   2.820  0.3569  0.4660  0.1793
 7881TIP3    H245135   5.977   6.046   2.930  0.4037  0.5132  0.1856
 7882TIP3   OH245136   0.097   5.204   0.980  0.5652 -0.3874  0.3292
 7882TIP3    H145137   0.181   5.249   0.975  0.8611 -0.8411  1.0091
 7882TIP3    H245138   0.032   5.271   0.959  1.0940 -0.0186 -0.1374
 7883TIP3   OH245139   3.973   1.924  12.340 -0.4486 -0.3496  0.8595
 7883TIP3    H145140   3.981   1.833  12.311 -1.6306  0.0559 -0.8800
 7883TIP3    H245141   4.050   1.968  12.304 -2.7437  0.5526 -3.6679
 7884TIP3   OH245142   1.829   2.206   6.376  0.1202  0.2865 -0.3029
 7884TIP3    H145143   1.789   2.126   6.342  0.3468  0.7154 -1.6460
 7884TIP3    H245144   1.922   2.197   6.358  0.2778  0.4596  0.3833
 7885TIP3   OH245145   5.547   0.766   4.454 -0.7336 -0.5101 -0.0887
 7885TIP3    H145146   5.560   0.799   4.543 -1.5409 -0.9327  0.1943
 7885TIP3    H245147   5.632   0.731   4.429 -0.3683  0.0537  0.3279
 7886TIP3   OH245148   5.232   5.435  15.389  0.2453  0.1215 -0.3398
 7886TIP3    H145149   5.177   5.496  15.340  0.2502  0.9720  0.6735
 7886TIP3    H245150   5.253   5.481  15.470  0.3936 -1.1667  0.3917
 7887TIP3   OH245151   5.293   1.145  16.731  0.1772 -0.8245  0.1303
 7887TIP3    H145152   5.365   1.208  16.724 -1.3175  0.8511 -1.0239
 7887TIP3    H245153   5.309   1.082  16.661  0.9371 -0.9444  0.3991
 7888TIP3   OH245154   0.379   4.790  10.162  0.1349  0.0093 -0.1943
 7888TIP3    H145155   0.406   4.757  10.248 -0.6256  1.5669  0.6930
 7888TIP3    H245156   0.455   4.776  10.106  1.3652  0.6867  1.2255
 7889TIP3   OH245157   2.243   4.183   0.257 -0.5420 -0.2870  0.6960
 7889TIP3    H145158   2.235   4.162   0.350 -3.1929  1.1790  0.9201
 7889TIP3    H245159   2.235   4.279   0.253 -1.5156 -0.3873 -1.0800
 7890TIP3   OH245160   4.987   2.843   6.799 -0.3129  0.0248 -0.0510
 7890TIP3    H145161   5.007   2.897   6.876 -0.1197  0.2540 -0.2633
 7890TIP3    H245162   4.928   2.775   6.833  1.1198 -0.9125  0.6934
 7891TIP3   OH245163   2.092   6.176  15.876 -0.5630  0.0127  0.2538
 7891TIP3    H145164   2.025   6.241  15.854 -0.3576  0.4064  0.7867
 7891TIP3    H245165   2.133   6.210  15.955  1.9454  1.0704 -1.3542
 7892TIP3   OH245166   1.431   0.766  15.690  0.3245  0.1878 -0.3001
 7892TIP3    H145167   1.483   0.783  15.768 -0.3817  0.6946  0.0670
 7892TIP3    H245168   1.446   0.673  15.671  0.4448  0.0391  0.4836
 7893TIP3   OH245169   5.412   1.402  13.274 -0.2264  0.1992 -0.5054
 7893TIP3    H145170   5.328   1.400  13.319 -0.7189 -0.4095 -1.4088
 7893TIP3    H245171   5.475   1.370  13.338 -0.9206 -0.7353 -0.2685
 7894TIP3   OH245172   5.515   5.224   0.223 -0.1311 -0.1768  0.4177
 7894TIP3    H145173   5.586   5.266   0.174  0.9021 -2.8115 -0.5247
 7894TIP3    H245174   5.507   5.275   0.303  1.2880  1.5281 -0.4568
 7895TIP3   OH245175   1.113   0.247  11.355  0.2734  0.3295  0.7133
 7895TIP3    H145176   1.079   0.158  11.368  0.2895  0.5649  2.6132
 7895TIP3    H245177   1.041   0.293  11.310 -0.5053 -0.1323  1.4588
 7896TIP3   OH245178   5.503   5.738  16.621 -0.0648  0.1899 -0.0600
 7896TIP3    H145179   5.470   5.673  16.684  0.2531  2.2405  2.4040
 7896TIP3    H245180   5.598   5.734  16.631 -0.0989  2.5180  1.8613
 7897TIP3   OH245181   6.386   2.865  12.853 -0.1734  0.8466  0.0910
 7897TIP3    H145182   6.410   2.807  12.925  2.3368  1.2232 -0.3617
 7897TIP3    H245183   6.381   2.809  12.776  1.9211  1.1209 -0.2846
 7898TIP3   OH245184   5.634   5.106   3.966 -0.4301 -0.1354 -0.3514
 7898TIP3    H145185   5.553   5.065   3.998 -0.9161  0.2282 -1.0834
 7898TIP3    H245186   5.605   5.188   3.926  0.6554  1.6273  2.2531
 7899TIP3   OH245187   4.430   2.218   1.899 -0.2697 -0.9614 -0.1908
 7899TIP3    H145188   4.362   2.253   1.842  1.1398 -1.7052 -2.4203
 7899TIP3    H245189   4.461   2.293   1.949 -0.2862  0.1070 -1.7311
 7900TIP3   OH245190   4.067   3.859   5.632 -0.1735  0.5615 -0.5071
 7900TIP3    H145191   4.070   3.824   5.543  0.1069  1.6872 -0.9650
 7900TIP3    H245192   4.158   3.855   5.662 -0.3068 -0.0577 -0.1550
 7901TIP3   OH245193   5.757   0.402   0.145  0.6415 -0.2562 -0.0628
 7901TIP3    H145194   5.832   0.393   0.203  1.2738 -0.7466 -0.9379
 7901TIP3    H245195   5.789   0.455   0.072 -0.0433  0.0657 -0.1450
 7902TIP3   OH245196   1.588   6.388  15.455 -0.3714  0.4414  0.6324
 7902TIP3    H145197   1.564   6.398  15.363  1.9450 -1.6047 -0.3016
 7902TIP3    H245198   1.641   6.465  15.475 -0.6337  0.7429  0.1867
 7903TIP3   OH245199   6.308   3.360  12.963 -0.1356 -0.4332 -0.4357
 7903TIP3    H145200   6.242   3.424  12.987  0.6371 -0.3425  1.6770
 7903TIP3    H245201   6.377   3.412  12.921  0.4087  0.1629  1.1058
 7904TIP3   OH245202   6.442   1.865  12.657 -0.4609 -0.3579 -0.0106
 7904TIP3    H145203   6.500   1.820  12.718  0.1561 -0.4584 -0.6653
 7904TIP3    H245204   6.398   1.795  12.609  0.1947 -0.2825 -0.7429
 7905TIP3   OH245205   5.693   5.786  11.333  0.5073 -0.6712 -0.3078
 7905TIP3    H145206   5.661   5.806  11.245  0.3589 -1.3284 -0.4055
 7905TIP3    H245207   5.681   5.692  11.343 -0.1068 -0.5037  0.6755
 7906TIP3   OH245208   1.577   0.857   3.190 -0.3682 -0.1356 -0.3104
 7906TIP3    H145209   1.649   0.833   3.130  0.0212 -0.1659  0.1679
 7906TIP3    H245210   1.537   0.773   3.213 -1.1158 -0.0558 -1.2595
 7907TIP3   OH245211   6.000   6.806  12.237  0.4228  0.1688 -0.4349
 7907TIP3    H145212   6.021   6.820  12.329  0.7038  0.3079 -0.5217
 7907TIP3    H245213   6.000   6.893  12.198 -0.1632  0.1626 -0.4709
 7908TIP3   OH245214   3.128   2.661  14.680  0.8049  0.1026 -0.0743
 7908TIP3    H145215   3.170   2.607  14.613  0.6721  1.3255 -1.1992
 7908TIP3    H245216   3.067   2.602  14.724 -0.8029 -0.2621 -2.5690
 7909TIP3   OH245217   2.641   2.089  13.336  0.4363 -0.6250 -0.0515
 7909TIP3    H145218   2.734   2.068  13.345  0.6901  0.1469 -0.6895
 7909TIP3    H245219   2.606   2.018  13.283  0.4202 -1.4769  1.0613
 7910TIP3   OH245220   5.959   4.476   4.668  0.2766  0.4656 -0.3609
 7910TIP3    H145221   5.887   4.527   4.705  0.2888 -0.1298  0.5005
 7910TIP3    H245222   6.033   4.537   4.666  0.2008  0.5940  0.3575
 7911TIP3   OH245223   2.070   4.925  17.097  0.4799 -0.1821  0.2577
 7911TIP3    H145224   2.000   4.967  17.046 -1.3664 -1.4863  1.5955
 7911TIP3    H245225   2.076   4.837  17.061  0.9535 -0.3040  0.6208
 7912TIP3   OH245226   1.331   0.263  13.044 -0.2158 -0.1577  0.0722
 7912TIP3    H145227   1.370   0.331  13.099  1.7430 -1.3486  0.2398
 7912TIP3    H245228   1.403   0.230  12.991 -0.9118 -2.6265  0.5298
 7913TIP3   OH245229   5.715   5.018   1.519 -0.1893 -0.5690 -0.5032
 7913TIP3    H145230   5.650   4.966   1.473  1.6806 -2.7799 -0.8141
 7913TIP3    H245231   5.785   5.032   1.455  1.3256 -1.5275  0.8803
 7914TIP3   OH245232   3.927   2.332   4.402  0.2576 -0.2528  1.0857
 7914TIP3    H145233   3.894   2.332   4.312  1.3018 -1.4370  0.6675
 7914TIP3    H245234   3.930   2.424   4.427 -1.6304  0.0038  0.5217
 7915TIP3   OH245235   5.172   0.998  15.865 -0.2837  0.4060  0.1751
 7915TIP3    H145236   5.200   1.085  15.894  0.1010 -0.2236  1.7865
 7915TIP3    H245237   5.196   0.940  15.937  2.1580 -1.5594 -2.0082
 7916TIP3   OH245238   5.692   0.891  12.635  0.2404 -0.0610 -0.2410
 7916TIP3    H145239   5.611   0.915  12.590  1.0290 -0.2246 -1.7895
 7916TIP3    H245240   5.749   0.967  12.624  0.4738 -0.1287  0.4417
 7917TIP3   OH245241   0.973   6.850  14.217 -0.0538  1.3435  0.5166
 7917TIP3    H145242   1.029   6.924  14.242  1.4455  0.2303  0.6048
 7917TIP3    H245243   0.926   6.828  14.298  1.7768  0.3108  1.3677
 7918TIP3   OH245244   6.183   2.317  11.792  0.0231 -0.4959  0.1127
 7918TIP3    H145245   6.149   2.229  11.777  0.7044 -0.6147 -0.9160
 7918TIP3    H245246   6.278   2.308  11.778  0.0017  0.5561 -0.8715
 7919TIP3   OH245247   3.404   4.300  12.514  0.1492 -0.4850 -0.2178
 7919TIP3    H145248   3.370   4.212  12.528 -2.5897  0.5328  0.0518
 7919TIP3    H245249   3.433   4.329  12.600  1.3401 -1.1755 -0.3594
 7920TIP3   OH245250   6.248   3.683   5.365 -0.3166 -0.1238  0.1610
 7920TIP3    H145251   6.326   3.735   5.383  0.3775 -0.4852 -1.5645
 7920TIP3    H245252   6.274   3.592   5.381 -0.2818 -0.2651 -0.6149
 7921TIP3   OH245253   6.599   4.267   2.605  0.7360 -0.5231  0.4261
 7921TIP3    H145254   6.571   4.215   2.530  1.2123 -0.6925  0.3646
 7921TIP3    H245255   6.630   4.349   2.568 -3.0556  1.2759  0.6816
 7922TIP3   OH245256   2.408   0.432   1.777  0.0434  0.2372 -0.6508
 7922TIP3    H145257   2.457   0.496   1.828  0.3654  1.0745 -1.9633
 7922TIP3    H245258   2.463   0.354   1.777  0.5814  0.6161 -0.6969
 7923TIP3   OH245259   0.637   2.331  13.581 -0.3605  0.0856  0.3651
 7923TIP3    H145260   0.729   2.344  13.606  1.0568 -2.3444 -2.8808
 7923TIP3    H245261   0.623   2.392  13.509 -1.0055 -0.2580  0.1916
 7924TIP3   OH245262   0.177   3.127  16.145 -0.3200  0.0040 -0.2978
 7924TIP3    H145263   0.210   3.187  16.212 -0.8171  1.4568 -1.3041
 7924TIP3    H245264   0.210   3.041  16.171 -0.7919  0.4429  2.0142
 7925TIP3   OH245265   0.974   0.338   4.070  0.2064 -0.3485  0.4897
 7925TIP3    H145266   0.934   0.262   4.112  0.7388 -0.5322  0.6701
 7925TIP3    H245267   1.066   0.316   4.062  0.5249  0.6171  1.3035
 7926TIP3   OH245268   1.546   5.373   1.594 -0.0549  0.3281  0.0640
 7926TIP3    H145269   1.475   5.416   1.642 -0.6586  1.7360 -1.9609
 7926TIP3    H245270   1.613   5.441   1.585  1.8441 -1.0778  2.2689
 7927TIP3   OH245271   0.813   6.039   5.881 -0.4302  0.2358 -0.0953
 7927TIP3    H145272   0.843   6.019   5.792 -0.8622  1.1145 -0.4539
 7927TIP3    H245273   0.843   6.128   5.897 -0.1347 -0.0051  0.7486
 7928TIP3   OH245274   0.945   3.892  15.590 -0.2839  0.4451 -0.0004
 7928TIP3    H145275   0.950   3.873  15.684  0.3697  0.9376  0.0740
 7928TIP3    H245276   1.033   3.871  15.557  0.4924  3.1349  0.0705
 7929TIP3   OH245277   1.531   4.292   0.014 -0.1482 -0.4261  0.4090
 7929TIP3    H145278   1.518   4.322   0.104 -0.5862 -1.0504  0.5681
 7929TIP3    H245279   1.450   4.244  -0.006 -0.7903  1.1352 -0.9119
 7930TIP3   OH245280   3.535   3.225   1.246 -0.2779 -0.0021 -0.0734
 7930TIP3    H145281   3.548   3.182   1.162 -1.0717 -0.0167 -0.1924
 7930TIP3    H245282   3.578   3.167   1.309 -0.6955 -0.5945 -0.3231
 7931TIP3   OH245283   0.820   3.360   4.874 -0.1590  0.3178  0.4249
 7931TIP3    H145284   0.769   3.313   4.808 -1.0409 -1.4961  2.2900
 7931TIP3    H245285   0.902   3.310   4.880 -0.6727 -0.4188  1.6739
 7932TIP3   OH245286   0.912   5.979  14.255  0.0271  0.7370 -0.6442
 7932TIP3    H145287   0.915   6.070  14.283 -0.4746  0.8413 -0.9138
 7932TIP3    H245288   0.818   5.958  14.253  0.1606 -0.2244  0.8632
 7933TIP3   OH245289   3.296   6.698   3.458  0.0370 -0.0516  0.2870
 7933TIP3    H145290   3.307   6.612   3.498  0.1333 -0.1575  0.0340
 7933TIP3    H245291   3.361   6.753   3.502 -0.5964  0.1055  1.0499
 7934TIP3   OH245292   6.547   5.613   1.362 -0.0180 -0.5492 -0.5707
 7934TIP3    H145293   6.565   5.686   1.303  1.4678 -0.7288 -0.3944
 7934TIP3    H245294   6.521   5.655   1.444  1.7023 -0.1305 -0.1843
 7935TIP3   OH245295   6.844   2.553  12.423  0.6311 -0.0729  0.1571
 7935TIP3    H145296   6.807   2.479  12.472  0.0440  0.5854  0.7417
 7935TIP3    H245297   6.926   2.520  12.388  1.1632 -0.5378  1.7354
 7936TIP3   OH245298   2.329   5.075  11.229  0.4209  0.5320  0.5492
 7936TIP3    H145299   2.310   5.169  11.224 -3.6795 -0.1944 -1.5461
 7936TIP3    H245300   2.245   5.034  11.252  2.0637 -2.6822  1.4701
 7937TIP3   OH245301   6.603   0.608   4.372  0.1643 -0.4881  0.1723
 7937TIP3    H145302   6.573   0.606   4.463 -0.6020 -0.9102 -0.0792
 7937TIP3    H245303   6.547   0.673   4.329  0.4262 -0.3927 -0.0278
 7938TIP3   OH245304   4.122   2.235  14.705  0.2332 -0.2180  0.1034
 7938TIP3    H145305   4.201   2.195  14.743  1.0148  0.7536 -0.4467
 7938TIP3    H245306   4.152   2.319  14.671 -1.1235  0.3162  0.1652
 7939TIP3   OH245307   3.247   6.316  16.306  0.0859  0.3741 -0.3661
 7939TIP3    H145308   3.224   6.408  16.316  0.6835  0.6036 -1.0288
 7939TIP3    H245309   3.192   6.286  16.234  0.2240  0.3301 -0.4511
 7940TIP3   OH245310   2.763   4.882   4.471 -0.0884 -0.4587 -0.4484
 7940TIP3    H145311   2.678   4.926   4.467  0.5739  0.8064 -1.6592
 7940TIP3    H245312   2.780   4.853   4.382  0.0106 -2.2395  0.1139
 7941TIP3   OH245313   2.890   0.510   5.747 -0.2304  0.1130  0.1033
 7941TIP3    H145314   2.983   0.506   5.768  0.2304 -0.0458 -1.7913
 7941TIP3    H245315   2.852   0.562   5.818  0.8930 -1.5974  2.0883
 7942TIP3   OH245316   1.183   4.614   4.135  0.2368 -0.2788 -0.2198
 7942TIP3    H145317   1.115   4.548   4.124 -0.3496  0.2353  0.2248
 7942TIP3    H245318   1.138   4.687   4.177  1.3225 -0.3865  1.2079
 7943TIP3   OH245319   4.635   3.233   3.746  0.0120  0.0742  0.6735
 7943TIP3    H145320   4.652   3.323   3.772  2.2756 -0.1323  0.0876
 7943TIP3    H245321   4.633   3.235   3.650 -2.5587 -0.1137  0.6579
 7944TIP3   OH245322   4.566   6.745   1.667 -0.2925  0.0737  0.8244
 7944TIP3    H145323   4.505   6.819   1.661 -1.6430 -1.0424  0.5338
 7944TIP3    H245324   4.541   6.700   1.747  1.3398  0.5908  1.6732
 7945TIP3   OH245325   5.762   3.189   4.550 -0.5467  0.6981 -0.3747
 7945TIP3    H145326   5.841   3.240   4.566 -0.1246 -0.5603  2.0135
 7945TIP3    H245327   5.692   3.239   4.593 -0.6698  0.7544 -0.6404
 7946TIP3   OH245328   1.880   6.376   4.100  0.1912  0.3697  0.2062
 7946TIP3    H145329   1.819   6.303   4.107  1.6229 -1.0074 -0.8397
 7946TIP3    H245330   1.857   6.435   4.172 -2.5544  0.0994 -0.3555
 7947TIP3   OH245331   1.609   1.754  10.092 -0.0882  0.4823  0.7154
 7947TIP3    H145332   1.565   1.675  10.060 -1.2412  1.3010  0.2500
 7947TIP3    H245333   1.702   1.729  10.095 -0.2602 -0.4775 -0.7004
 7948TIP3   OH245334   2.393   0.479   4.074  0.1853  0.1804 -0.1520
 7948TIP3    H145335   2.358   0.464   3.986  1.9065 -0.6840 -0.7335
 7948TIP3    H245336   2.395   0.392   4.114  0.2451  0.4448  0.4304
 7949TIP3   OH245337   0.030   5.283   2.926 -0.1968 -0.1624  1.1973
 7949TIP3    H145338   0.028   5.201   2.876 -0.5256  0.4795  0.1159
 7949TIP3    H245339  -0.062   5.302   2.946 -0.3108  0.8196 -0.0941
 7950TIP3   OH245340   3.914   2.996   4.601 -0.1150  0.2857  0.0515
 7950TIP3    H145341   3.956   3.051   4.667  0.3290  0.1209 -0.0947
 7950TIP3    H245342   3.853   2.942   4.652  0.3378  0.0481  0.3543
 7951TIP3   OH245343   2.097   4.330   5.846 -0.0998 -0.5370  0.4366
 7951TIP3    H145344   2.002   4.341   5.849 -0.1723 -1.0203  0.0624
 7951TIP3    H245345   2.120   4.293   5.931 -0.0769  0.7508  1.0168
 7952TIP3   OH245346   1.580   3.568  13.157  0.4625  0.1119 -0.1397
 7952TIP3    H145347   1.530   3.492  13.127 -1.3722  0.4581  1.8483
 7952TIP3    H245348   1.665   3.533  13.182  0.8173 -0.7170 -2.2797
 7953TIP3   OH245349   4.689   1.776  16.776  0.3867 -0.0972  0.1001
 7953TIP3    H145350   4.653   1.821  16.700  1.0976 -0.5568 -0.5278
 7953TIP3    H245351   4.757   1.834  16.808 -0.0400  0.1836  0.5098
 7954TIP3   OH245352   6.389   1.539   0.188 -0.1052  0.2684 -0.1447
 7954TIP3    H145353   6.448   1.560   0.116 -0.4988  1.9511 -0.0240
 7954TIP3    H245354   6.442   1.490   0.250  0.5898 -0.0611 -0.9911
 7955TIP3   OH245355   3.433   2.126  13.509 -0.1985 -0.5007  0.0510
 7955TIP3    H145356   3.424   2.221  13.504  0.4481 -0.4773 -1.1312
 7955TIP3    H245357   3.521   2.108  13.475 -0.4150 -1.5447 -0.0159
 7956TIP3   OH245358   5.048   3.693  14.643 -0.4575  0.2377 -0.3339
 7956TIP3    H145359   4.985   3.759  14.614 -2.2363 -0.5972  1.3889
 7956TIP3    H245360   5.044   3.697  14.739  2.2914  0.2570 -0.1559
 7957TIP3   OH245361   1.515   4.038  15.258  0.0107 -0.4458  0.6388
 7957TIP3    H145362   1.587   4.001  15.205  0.1166 -0.9304  1.1119
 7957TIP3    H245363   1.558   4.100  15.317 -0.2195  0.7959 -0.4492
 7958TIP3   OH245364   1.790   3.537   3.709  0.0085  0.3825 -0.2789
 7958TIP3    H145365   1.871   3.561   3.755 -0.4696 -0.5634  1.1451
 7958TIP3    H245366   1.740   3.619   3.704 -0.4036  0.3484  1.9692
 7959TIP3   OH245367   2.678   3.940  14.428 -0.0670  0.6849  0.0938
 7959TIP3    H145368   2.678   3.860  14.481  0.3869 -0.9789 -2.2200
 7959TIP3    H245369   2.592   3.940  14.385  0.5515  0.4708 -1.1965
 7960TIP3   OH245370   4.839   4.476   4.052  0.0676  0.1128  0.3088
 7960TIP3    H145371   4.792   4.556   4.030  0.3822  0.1518 -0.2591
 7960TIP3    H245372   4.832   4.468   4.147  1.7175  1.8811  0.6281
 7961TIP3   OH245373   0.571   4.147   1.314  0.2670  0.0718  0.0004
 7961TIP3    H145374   0.542   4.152   1.405  1.8436  0.3301  0.5212
 7961TIP3    H245375   0.490   4.137   1.264 -0.6607  0.2261  1.3955
 7962TIP3   OH245376   2.555   6.536   3.150 -0.0184 -0.4728  0.0576
 7962TIP3    H145377   2.633   6.592   3.152 -1.7366  2.1198  2.5618
 7962TIP3    H245378   2.571   6.470   3.218 -0.5085  0.9524  1.6198
 7963TIP3   OH245379   1.835   3.824   5.618 -0.2008  0.1739  0.0646
 7963TIP3    H145380   1.835   3.749   5.558  1.1988 -0.5453  0.9099
 7963TIP3    H245381   1.774   3.800   5.687  0.6666 -0.4680  0.6303
 7964TIP3   OH245382   4.775   0.690  14.972  0.6527  0.0087 -0.1294
 7964TIP3    H145383   4.738   0.640  14.899  0.9842  0.3023 -0.4996
 7964TIP3    H245384   4.740   0.778  14.961  1.3925  0.2700 -0.4369
 7965TIP3   OH245385   5.339   1.487  11.115 -0.1081  0.5238  0.0151
 7965TIP3    H145386   5.247   1.516  11.115  0.5551  3.0261 -1.6619
 7965TIP3    H245387   5.337   1.402  11.071 -1.6271  0.6478 -0.2245
 7966TIP3   OH245388   2.878   4.042  16.127  0.0335  0.5306 -0.6821
 7966TIP3    H145389   2.919   4.065  16.043  0.1069  0.4736 -0.6623
 7966TIP3    H245390   2.810   3.979  16.103 -0.3131  0.9325 -0.7601
 7967TIP3   OH245391   4.481   5.595  10.730 -0.0343 -0.4995 -0.2207
 7967TIP3    H145392   4.461   5.688  10.732 -0.1368 -0.5244  0.0288
 7967TIP3    H245393   4.536   5.583  10.653 -0.3039 -0.2901 -0.4450
 7968TIP3   OH245394   4.038   4.481   3.345  0.0179 -0.4044 -0.4141
 7968TIP3    H145395   4.096   4.542   3.392 -0.5768 -0.2613  0.1364
 7968TIP3    H245396   4.093   4.404   3.330  0.0456 -0.7061  1.0792
 7969TIP3   OH245397   2.507   1.619  14.660  0.0971  0.2458 -0.2446
 7969TIP3    H145398   2.525   1.531  14.693  0.6507  0.8165  1.0292
 7969TIP3    H245399   2.412   1.621  14.649 -0.2280  0.2586  2.0894
 7970TIP3   OH245400   1.654   0.652  14.261  0.0179 -0.1273 -0.4020
 7970TIP3    H145401   1.710   0.576  14.280 -0.2244 -0.1505  0.2593
 7970TIP3    H245402   1.705   0.727  14.292 -0.4373 -0.1765  0.5117
 7971TIP3   OH245403   5.771   6.056   3.728  0.4139  0.1202  0.0068
 7971TIP3    H145404   5.683   6.025   3.705  0.0455  0.3654  1.0254
 7971TIP3    H245405   5.796   6.112   3.655 -1.3402  2.0753  0.8142
 7972TIP3   OH245406   6.643   6.517  14.873  0.1280  0.1506 -0.3988
 7972TIP3    H145407   6.575   6.455  14.900 -0.1973  0.0139 -1.4862
 7972TIP3    H245408   6.605   6.603  14.892 -0.6222  0.0987 -1.5512
 7973TIP3   OH245409   3.584   6.771  11.418 -0.3333 -0.3523 -0.2128
 7973TIP3    H145410   3.518   6.702  11.417 -0.5662 -0.1328 -0.0114
 7973TIP3    H245411   3.534   6.853  11.421 -0.0586 -0.1995  0.7353
 7974TIP3   OH245412   3.120   3.767  10.544 -0.2823  0.4707 -0.1346
 7974TIP3    H145413   3.154   3.680  10.563 -0.8728  0.5067  1.1741
 7974TIP3    H245414   3.174   3.799  10.472  0.5920 -0.5734  0.0455
 7975TIP3   OH245415   1.499   2.220   6.087  0.1287  0.1589 -0.3682
 7975TIP3    H145416   1.500   2.184   5.999  0.2151  0.3506 -0.4456
 7975TIP3    H245417   1.477   2.146   6.143 -0.4674  0.1499 -0.6043
 7976TIP3   OH245418   2.255   3.990  12.850  0.0426  0.2302  0.0860
 7976TIP3    H145419   2.270   3.926  12.781  0.0398 -0.4513  0.7137
 7976TIP3    H245420   2.161   3.985  12.867  0.4542 -1.7069  2.1407
 7977TIP3   OH245421   6.822   2.658   2.919 -0.0314  0.0977 -0.2312
 7977TIP3    H145422   6.827   2.668   3.014  0.2111  1.8362 -0.4032
 7977TIP3    H245423   6.744   2.708   2.895  1.1301  1.5542 -1.1508
 7978TIP3   OH245424   0.573   6.269   3.673  0.7482 -0.1792  0.9715
 7978TIP3    H145425   0.513   6.206   3.635  1.3860 -0.6069  0.6507
 7978TIP3    H245426   0.562   6.260   3.768  0.4875 -0.4273  0.9152
 7979TIP3   OH245427   0.525   4.983   4.495 -0.5001 -0.7210  0.0808
 7979TIP3    H145428   0.532   5.068   4.452  1.1228 -0.6688  0.3940
 7979TIP3    H245429   0.504   4.922   4.424  1.5841 -0.5487 -0.7563
 7980TIP3   OH245430   5.521   0.409  11.754 -0.7812 -0.5426 -0.3366
 7980TIP3    H145431   5.523   0.496  11.715  0.1745 -1.4053 -2.3734
 7980TIP3    H245432   5.520   0.425  11.848  0.0557  1.6651 -0.6356
 7981TIP3   OH245433   3.800   4.307  12.478 -0.2467 -0.1234  0.1421
 7981TIP3    H145434   3.768   4.221  12.505  0.8965 -0.6153  0.0128
 7981TIP3    H245435   3.869   4.327  12.542  0.1227  0.2700 -0.3760
 7982TIP3   OH245436   6.255   2.284  13.953 -0.4090 -0.1656 -0.4604
 7982TIP3    H145437   6.307   2.236  14.018  0.1462  0.6481 -0.2955
 7982TIP3    H245438   6.271   2.376  13.972  0.2913  0.0918 -2.1827
 7983TIP3   OH245439   0.191   4.360   0.884 -0.5365 -0.0320 -0.3767
 7983TIP3    H145440   0.208   4.365   0.790  1.2048 -0.9515 -0.1506
 7983TIP3    H245441   0.276   4.377   0.924 -1.3438  0.7521  1.0632
 7984TIP3   OH245442   5.081   0.505   5.884  0.1624  0.5743 -0.1431
 7984TIP3    H145443   5.072   0.601   5.884 -1.1301  0.4738 -0.1376
 7984TIP3    H245444   5.017   0.475   5.819  0.6047 -0.2907 -0.1942
 7985TIP3   OH245445   4.409   2.658   6.249  0.0438  0.0716  0.3638
 7985TIP3    H145446   4.500   2.665   6.277  0.1782 -0.0621 -0.0285
 7985TIP3    H245447   4.407   2.702   6.164 -0.0508 -0.7480 -0.0730
 7986TIP3   OH245448   2.953   0.766   5.328  0.2260 -0.2989  0.0846
 7986TIP3    H145449   2.965   0.834   5.394 -0.6357  0.1185 -0.1847
 7986TIP3    H245450   2.863   0.736   5.339 -0.3048  0.5470 -1.6137
 7987TIP3   OH245451   5.009   2.167   2.793  0.2222  0.2163 -0.2361
 7987TIP3    H145452   5.052   2.105   2.734 -0.1801 -0.9243  0.6144
 7987TIP3    H245453   4.976   2.112   2.865  1.6868  1.6717  1.6454
 7988TIP3   OH245454   4.322   4.595   4.153 -0.5745 -0.0249  0.2724
 7988TIP3    H145455   4.308   4.582   4.247 -0.6565 -0.2023  0.2369
 7988TIP3    H245456   4.372   4.518   4.125  0.5296  0.6331  0.4063
 7989TIP3   OH245457   0.555   4.749  17.041 -0.4474 -0.4048 -0.0452
 7989TIP3    H145458   0.489   4.712  17.101  0.3410 -0.7663  0.6236
 7989TIP3    H245459   0.553   4.843  17.059 -0.5503 -0.4530  0.2128
 7990TIP3   OH245460   3.929   3.021  16.049  0.4822 -0.2833  0.1390
 7990TIP3    H145461   3.994   3.017  15.978  1.5538 -0.4600  1.0975
 7990TIP3    H245462   3.981   3.038  16.127 -0.7310  0.3115  0.8326
 7991TIP3   OH245463   6.471   5.010   5.610 -0.2985  0.1212  0.2650
 7991TIP3    H145464   6.430   4.940   5.559  1.9124  0.1941 -1.8579
 7991TIP3    H245465   6.549   4.969   5.648  0.6204  1.1967 -0.3956
 7992TIP3   OH245466   1.603   6.180  13.283 -0.0064  0.3733  0.5173
 7992TIP3    H145467   1.680   6.199  13.229  0.0925 -0.5146  0.3413
 7992TIP3    H245468   1.544   6.254  13.267  0.8725  1.1676  0.7926
 7993TIP3   OH245469   4.535   0.682   6.110  0.1579 -0.2381 -0.0459
 7993TIP3    H145470   4.504   0.598   6.146 -0.4544 -0.3453 -0.8112
 7993TIP3    H245471   4.588   0.657   6.035  0.4439  0.0440  0.0598
 7994TIP3   OH245472   2.772   6.043  15.284 -0.6623  0.3388  0.1377
 7994TIP3    H145473   2.782   5.997  15.201 -0.3843  2.1216 -0.8763
 7994TIP3    H245474   2.697   6.102  15.270  0.7894  2.3244  0.2912
 7995TIP3   OH245475   0.405   3.830  13.943 -0.2636 -0.2730 -0.6938
 7995TIP3    H145476   0.354   3.753  13.967 -3.0685  1.3859 -0.8992
 7995TIP3    H245477   0.476   3.833  14.008 -2.8363 -0.4331  2.3672
 7996TIP3   OH245478   6.387   3.987   2.191  0.3785  0.6248  0.1913
 7996TIP3    H145479   6.446   3.943   2.130  0.4182  1.1376 -0.1501
 7996TIP3    H245480   6.445   4.037   2.248  0.3309  0.2833  0.5378
 7997TIP3   OH245481   3.722   6.706   0.754 -0.5637 -0.1473  0.6179
 7997TIP3    H145482   3.659   6.756   0.702  2.1238  2.9263 -0.0468
 7997TIP3    H245483   3.722   6.750   0.839 -1.9080 -2.5186  1.9327
 7998TIP3   OH245484   0.247   3.817   5.405 -0.7684  0.0644  0.4116
 7998TIP3    H145485   0.169   3.826   5.460 -1.5850  1.0086 -0.8337
 7998TIP3    H245486   0.215   3.826   5.315  0.6926 -0.1222 -0.1667
 7999TIP3   OH245487   3.787   1.685   0.177 -0.0871 -0.2644  0.4616
 7999TIP3    H145488   3.760   1.728   0.096  1.4842 -0.2783 -0.1050
 7999TIP3    H245489   3.759   1.745   0.247 -0.1907  0.4420 -0.1787
 8000TIP3   OH245490   3.276   2.987   0.497 -0.0581 -0.0849  0.8618
 8000TIP3    H145491   3.266   3.082   0.491 -0.9697 -0.2551 -2.5377
 8000TIP3    H245492   3.188   2.953   0.482  0.2878 -1.5079  1.8538
 8001TIP3   OH245493   4.666   3.187   1.100 -0.7120  0.2607  0.1206
 8001TIP3    H145494   4.746   3.239   1.099 -0.0750 -0.6836  0.3309
 8001TIP3    H245495   4.597   3.249   1.123 -0.1436  1.2195 -0.6974
 8002TIP3   OH245496   3.694   3.088  15.199 -0.2585  0.0646  0.4514
 8002TIP3    H145497   3.732   3.084  15.287 -1.7047 -2.7571  1.0501
 8002TIP3    H245498   3.763   3.055  15.141 -0.1450 -0.4764  0.8877
 8003TIP3   OH245499   0.914   4.750   2.526  0.1276  0.1135  0.0271
 8003TIP3    H145500   0.984   4.732   2.464 -0.0565  0.7393 -0.3772
 8003TIP3    H245501   0.938   4.703   2.605  1.5921  1.2486  0.2919
 8004TIP3   OH245502   0.324   1.540  12.083  0.0912  1.1124  0.0463
 8004TIP3    H145503   0.288   1.607  12.025 -0.2499 -0.3202 -1.4918
 8004TIP3    H245504   0.252   1.477  12.094 -0.1203  1.7165  2.7222
 8005TIP3   OH245505   4.999   4.045   4.249  0.0949 -0.1620  0.6447
 8005TIP3    H145506   5.076   3.991   4.231 -0.2839 -0.7848  0.8523
 8005TIP3    H245507   4.986   4.095   4.168 -0.5446 -1.6348 -0.1995
 8006TIP3   OH245508   1.944   0.993  16.235 -0.3152 -0.5900  0.9189
 8006TIP3    H145509   1.925   0.978  16.328  1.5476  2.8932  2.0396
 8006TIP3    H245510   2.009   0.926  16.213  0.9055 -0.1354  2.8539
 8007TIP3   OH245511   2.053   0.400  15.198  0.5913  0.3712 -0.3831
 8007TIP3    H145512   2.113   0.351  15.142 -1.8866 -1.8717 -1.2765
 8007TIP3    H245513   2.058   0.358  15.283  1.0145  0.8595 -0.1596
 8008TIP3   OH245514   4.161   4.039  16.417  0.2132  0.1049 -1.2364
 8008TIP3    H145515   4.124   4.020  16.331  2.5821  0.1777 -2.3557
 8008TIP3    H245516   4.250   4.003  16.413  0.8559  1.3542  0.6783
 8009TIP3   OH245517   0.382   0.060  10.976 -0.1912 -0.1180  0.7341
 8009TIP3    H145518   0.385  -0.030  10.945 -0.9840  0.9531 -2.9743
 8009TIP3    H245519   0.470   0.077  11.010  0.1751 -2.0227  0.8397
 8010TIP3   OH245520   5.509   4.058   1.337 -0.0400  0.0895 -0.1575
 8010TIP3    H145521   5.458   4.057   1.419 -0.1677 -2.3979 -0.2105
 8010TIP3    H245522   5.529   4.151   1.324 -0.5438  0.6518  2.3575
 8011TIP3   OH245523   5.652   5.666   0.433  0.3432 -0.7657  0.2684
 8011TIP3    H145524   5.612   5.666   0.520  0.3719  0.5682  0.3003
 8011TIP3    H245525   5.662   5.759   0.411 -0.6800 -1.0716 -1.6458
 8012TIP3   OH245526   2.557   0.178  14.643 -0.0265 -0.7698  0.1323
 8012TIP3    H145527   2.648   0.156  14.661  0.2293  0.1031 -0.0714
 8012TIP3    H245528   2.507   0.124  14.704  0.6799 -0.3032  1.1335
 8013TIP3   OH245529   1.074   4.671   0.328  0.4088  0.3935 -0.2501
 8013TIP3    H145530   1.035   4.584   0.321 -1.3949  1.2257 -1.2584
 8013TIP3    H245531   1.154   4.666   0.275 -0.2798 -0.3532 -1.2650
 8014TIP3   OH245532   3.045   0.485   1.710  0.6252  0.2005  0.4010
 8014TIP3    H145533   3.057   0.516   1.800  1.2631 -0.4129  0.5364
 8014TIP3    H245534   2.985   0.548   1.671  2.4095  2.0106  0.4496
 8015TIP3   OH245535   0.975   6.379  13.988  0.2617  0.0894  0.5954
 8015TIP3    H145536   0.880   6.388  13.983 -0.0284 -1.6996 -5.8060
 8015TIP3    H245537   1.007   6.468  14.001 -2.1159  0.7935  2.4231
 8016TIP3   OH245538   3.661   1.958   4.217  0.3820  0.0527 -0.3805
 8016TIP3    H145539   3.746   1.960   4.173  0.9681 -2.3882  0.4357
 8016TIP3    H245540   3.682   1.936   4.308 -1.1116 -1.0213 -0.2480
 8017TIP3   OH245541   1.022   3.267  14.057  0.3072  0.2303  0.0144
 8017TIP3    H145542   1.106   3.269  14.011  1.0269  3.0225  1.2660
 8017TIP3    H245543   0.961   3.313  13.999 -0.1697 -0.8917 -0.4240
 8018TIP3   OH245544   5.841   0.721  10.698 -0.4249  0.3296  0.0370
 8018TIP3    H145545   5.763   0.673  10.728 -0.0549  0.1676  0.7740
 8018TIP3    H245546   5.812   0.812  10.693 -0.4907  0.3728  0.9703
 8019TIP3   OH245547   4.407   5.583   1.988 -0.4955  0.1701 -0.0033
 8019TIP3    H145548   4.413   5.577   1.892 -2.6231 -1.4380 -0.1116
 8019TIP3    H245549   4.346   5.655   2.004 -2.0392 -1.0986  0.0097
 8020TIP3   OH245550   0.125   0.385  13.915  0.0191 -0.6868 -0.0747
 8020TIP3    H145551   0.160   0.403  13.828 -0.3858 -0.9584 -0.2970
 8020TIP3    H245552   0.153   0.460  13.968 -0.8797  0.1611 -0.7559
 8021TIP3   OH245553   1.737   6.778   6.590 -0.7235  0.1752 -0.8367
 8021TIP3    H145554   1.817   6.741   6.627 -1.1229  0.3647  0.2640
 8021TIP3    H245555   1.763   6.863   6.555 -0.2984 -0.0892 -1.1801
 8022TIP3   OH245556   2.630   2.399  15.587  0.3390  0.0418 -0.2646
 8022TIP3    H145557   2.669   2.319  15.623 -0.1765  0.3035  0.9277
 8022TIP3    H245558   2.628   2.384  15.493 -0.3524 -1.6483 -0.0191
 8023TIP3   OH245559   3.795   1.515  12.668 -0.1231  0.0982 -0.3260
 8023TIP3    H145560   3.870   1.558  12.626  0.3974 -0.7490 -0.2893
 8023TIP3    H245561   3.827   1.493  12.756 -0.2433 -0.6974 -0.4741
 8024TIP3   OH245562   1.919   1.780  12.392 -0.1795  0.9506  0.1335
 8024TIP3    H145563   1.880   1.789  12.480 -0.4581 -1.9012  0.4205
 8024TIP3    H245564   1.845   1.758  12.336  0.4477 -1.0244 -0.0049
 8025TIP3   OH245565   3.724   2.196   3.656  0.2935 -0.4147  0.4153
 8025TIP3    H145566   3.681   2.152   3.729 -0.7359 -0.8452 -0.4350
 8025TIP3    H245567   3.813   2.211   3.687 -0.2675 -0.0972  1.9615
 8026TIP3   OH245568   4.412   3.387   5.997  0.4878 -0.2205  0.0124
 8026TIP3    H145569   4.381   3.297   6.000  2.9412 -1.2626 -2.2677
 8026TIP3    H245570   4.341   3.436   5.956  1.0735 -2.2633 -3.9378
 8027TIP3   OH245571   5.455   2.037   2.276  0.4266 -0.6761  0.3895
 8027TIP3    H145572   5.509   1.959   2.264 -0.1922 -0.7744 -2.3519
 8027TIP3    H245573   5.389   2.011   2.340  0.7537 -2.1052  0.1893
 8028TIP3   OH245574   1.121   1.507   0.696 -0.2532  0.0927 -0.4058
 8028TIP3    H145575   1.093   1.598   0.707 -0.5801  0.2184 -2.0726
 8028TIP3    H245576   1.055   1.456   0.743 -0.8406  0.6327 -0.6396
 8029TIP3   OH245577   2.380   6.840   2.171  0.7729  0.4621 -0.1520
 8029TIP3    H145578   2.409   6.931   2.171  2.7379 -0.1116  0.1783
 8029TIP3    H245579   2.379   6.815   2.078 -1.4496  1.2504 -0.4059
 8030TIP3   OH245580   3.895   4.183   2.183  0.2424  0.0244 -0.1160
 8030TIP3    H145581   3.889   4.093   2.153 -0.0970  0.1281 -0.3629
 8030TIP3    H245582   3.987   4.196   2.204  0.6871  0.2703 -2.0862
 8031TIP3   OH245583   4.214   0.914   4.298 -0.2555  0.3536 -0.2835
 8031TIP3    H145584   4.197   1.002   4.329  0.3148  0.3989 -0.0868
 8031TIP3    H245585   4.309   0.907   4.296 -0.2393  0.4299 -2.2188
 8032TIP3   OH245586   1.568   4.402   0.558 -0.7080 -0.1374  0.1936
 8032TIP3    H145587   1.480   4.368   0.540 -0.8312  1.1021 -1.9437
 8032TIP3    H245588   1.561   4.496   0.544  0.7084  0.1564  1.2160
 8033TIP3   OH245589   4.961   6.554  13.180  0.5143 -0.1213 -0.0800
 8033TIP3    H145590   5.006   6.619  13.127  1.4433 -0.9185 -0.2921
 8033TIP3    H245591   4.871   6.587  13.188  0.0687 -0.4127 -2.9154
 8034TIP3   OH245592   1.791   5.951  13.011  0.0413  0.1244 -0.1046
 8034TIP3    H145593   1.851   6.025  13.005 -0.0161  0.3388  1.5450
 8034TIP3    H245594   1.751   5.945  12.924  1.1565  1.0708 -0.7001
 8035TIP3   OH245595   3.360   1.722  16.940  0.2134 -0.2170 -0.8480
 8035TIP3    H145596   3.393   1.808  16.913  1.4418  0.0728  1.3287
 8035TIP3    H245597   3.294   1.742  17.007  2.2385 -0.9105  1.4808
 8036TIP3   OH245598   6.209   1.264  11.459  1.4091  0.1030 -0.3455
 8036TIP3    H145599   6.239   1.345  11.502 -2.2114  0.9807  0.8277
 8036TIP3    H245600   6.143   1.293  11.396 -0.2838 -1.9304  0.3788
 8037TIP3   OH245601   3.847   5.556   1.237 -0.0614 -0.4885 -0.7097
 8037TIP3    H145602   3.766   5.517   1.204 -2.6323  3.6527  0.0178
 8037TIP3    H245603   3.906   5.557   1.161 -1.4888 -1.5975 -1.8817
 8038TIP3   OH245604   4.993   5.784   0.028  0.8659 -0.1894 -0.1904
 8038TIP3    H145605   4.936   5.757  -0.045  0.9550 -1.8905  0.3200
 8038TIP3    H245606   4.944   5.853   0.072 -0.3462 -0.8990 -0.3751
 8039TIP3   OH245607   5.695   5.948   0.419 -0.0566  0.7777 -0.1858
 8039TIP3    H145608   5.622   5.978   0.474  0.7133 -0.3829  1.5717
 8039TIP3    H245609   5.683   5.993   0.336 -2.6491  0.7984  0.1169
 8040TIP3   OH245610   1.059   0.736  11.597 -0.0027 -0.8391 -0.3716
 8040TIP3    H145611   1.005   0.701  11.527 -1.1951 -0.3215  0.2660
 8040TIP3    H245612   1.127   0.670  11.610  0.0134 -1.1166 -1.7405
 8041TIP3   OH245613   0.332   4.416   0.418 -0.2013 -0.9933  0.1537
 8041TIP3    H145614   0.331   4.438   0.512  2.0601  1.0698 -0.2052
 8041TIP3    H245615   0.265   4.471   0.380  1.7222  1.4696  0.0648
 8042TIP3   OH245616   3.051   3.580   6.446  0.4638 -0.1276  0.0788
 8042TIP3    H145617   3.010   3.603   6.363  1.3811  0.6650 -0.1719
 8042TIP3    H245618   3.051   3.661   6.496  3.3934  0.4656 -0.6677
 8043TIP3   OH245619   3.521   0.317  14.348 -0.3642  0.0568 -0.3805
 8043TIP3    H145620   3.479   0.366  14.418 -0.0142  0.5330 -0.5033
 8043TIP3    H245621   3.604   0.362  14.333 -0.3450 -0.1639 -0.9601
 8044TIP3   OH245622   0.686   2.126  10.818  0.3258 -0.7440  0.3675
 8044TIP3    H145623   0.608   2.179  10.834  0.3156 -0.6528  0.0115
 8044TIP3    H245624   0.758   2.189  10.818  0.3903 -0.8152  0.5934
 8045TIP3   OH245625   4.978   4.457  15.532  0.5636 -0.5247  0.5000
 8045TIP3    H145626   5.026   4.527  15.488  1.9647 -0.5763  1.8538
 8045TIP3    H245627   5.031   4.379  15.517 -2.3145 -2.0630 -3.3528
 8046TIP3   OH245628   2.810   4.997  15.978  0.4223  0.4907 -0.1145
 8046TIP3    H145629   2.876   5.053  15.937  0.1770  0.0338 -1.1802
 8046TIP3    H245630   2.834   4.908  15.951  0.2097  0.1800  0.6984
 8047TIP3   OH245631   5.511   2.865   1.857 -0.0437  0.1922  0.1442
 8047TIP3    H145632   5.515   2.951   1.816 -0.3040 -0.7974 -2.0663
 8047TIP3    H245633   5.582   2.866   1.921 -0.9580  2.5250  1.2259
 8048TIP3   OH245634   2.689   1.568   4.259  0.0254 -0.1346  0.0010
 8048TIP3    H145635   2.720   1.477   4.262 -2.6655 -1.1975 -1.1961
 8048TIP3    H245636   2.624   1.574   4.329 -0.7775  0.4732 -0.7818
 8049TIP3   OH245637   3.043   5.114   2.171  0.3717  0.6265  0.1341
 8049TIP3    H145638   2.971   5.135   2.110 -0.6399  0.3575  1.2032
 8049TIP3    H245639   3.038   5.182   2.238 -1.5069 -1.5764  2.4181
 8050TIP3   OH245640   0.971   3.752  16.302 -0.3333  0.1210  0.2804
 8050TIP3    H145641   0.954   3.658  16.292 -1.1626  0.3545 -0.5664
 8050TIP3    H245642   0.891   3.795  16.273  0.8438  1.1821 -1.6204
 8051TIP3   OH245643   6.415   2.965  13.876  0.1366  0.1969  0.3862
 8051TIP3    H145644   6.477   2.992  13.808 -1.6099  1.2379 -0.8768
 8051TIP3    H245645   6.331   2.997  13.845 -1.0696 -1.2453  1.9998
 8052TIP3   OH245646   1.140   1.695   5.256 -0.1816  0.3557  0.2930
 8052TIP3    H145647   1.075   1.745   5.305 -1.9144 -0.4560 -1.0524
 8052TIP3    H245648   1.137   1.731   5.168  0.8326 -0.0435  0.0828
 8053TIP3   OH245649   0.076   6.569  13.166  0.4574  0.0031 -0.0940
 8053TIP3    H145650   0.160   6.615  13.157  0.9712 -1.1335 -1.4917
 8053TIP3    H245651   0.019   6.610  13.101 -0.4922  1.5445  1.6175
 8054TIP3   OH245652   1.337   6.626  16.903 -1.1286 -0.2714  0.2362
 8054TIP3    H145653   1.310   6.535  16.888 -3.5944  0.3109  0.6287
 8054TIP3    H245654   1.266   6.678  16.865 -0.1602  1.4810  0.7332
 8055TIP3   OH245655   5.144   3.499  12.002 -0.0321 -0.4123 -0.0307
 8055TIP3    H145656   5.108   3.430  12.056 -0.5597 -0.3110 -0.2427
 8055TIP3    H245657   5.238   3.495  12.016 -0.1357 -0.6057  0.6251
 8056TIP3   OH245658   2.667   6.384  13.130 -0.1961  0.1021  0.2539
 8056TIP3    H145659   2.581   6.425  13.143  0.7389  1.6884  1.9018
 8056TIP3    H245660   2.709   6.437  13.063  0.2332  0.5554  0.8777
 8057TIP3   OH245661   2.574   5.838  14.160 -0.4460 -0.9262 -0.0446
 8057TIP3    H145662   2.572   5.909  14.096 -1.0919 -1.2446 -0.3851
 8057TIP3    H245663   2.661   5.798  14.148  0.5788  0.7725  1.2554
 8058TIP3   OH245664   5.377   2.501   0.752 -0.1844 -0.2038 -0.2098
 8058TIP3    H145665   5.346   2.410   0.755  0.8068 -0.5345  0.3161
 8058TIP3    H245666   5.417   2.515   0.838  3.0467 -0.5104 -1.5144
 8059TIP3   OH245667   0.602   3.300   1.784  0.2402 -0.0076 -0.3175
 8059TIP3    H145668   0.513   3.305   1.749 -0.1711  0.3160  0.7551
 8059TIP3    H245669   0.629   3.391   1.797  0.0814 -0.1227  0.9329
 8060TIP3   OH245670   0.004   2.891   1.513  0.2744  0.4155  0.2977
 8060TIP3    H145671  -0.031   2.936   1.436  0.0899 -0.7289 -0.3129
 8060TIP3    H245672  -0.070   2.888   1.574 -0.5138 -1.2760 -0.6686
 8061TIP3   OH245673   6.387   3.173  16.344 -0.0290 -0.0331  0.4770
 8061TIP3    H145674   6.352   3.224  16.416 -0.5535  0.3750 -0.0616
 8061TIP3    H245675   6.401   3.086  16.381  1.0645  0.5294  1.4557
 8062TIP3   OH245676   5.796   3.595   3.089 -0.2384  0.1222 -0.6021
 8062TIP3    H145677   5.738   3.593   3.013  0.1783 -2.0802 -0.9075
 8062TIP3    H245678   5.794   3.506   3.124  0.4303  0.8153  1.3423
 8063TIP3   OH245679   4.818   3.341  14.986 -0.2315 -0.2809  0.0450
 8063TIP3    H145680   4.908   3.331  14.955 -0.0040  2.1347 -0.2408
 8063TIP3    H245681   4.826   3.389  15.069 -1.2699  0.0672 -0.0380
 8064TIP3   OH245682   2.566   6.510  15.373 -0.0069  0.2181 -0.2794
 8064TIP3    H145683   2.579   6.532  15.465  0.6906 -1.2401 -0.0045
 8064TIP3    H245684   2.654   6.501  15.337 -0.2718 -0.4655 -0.7777
 8065TIP3   OH245685   0.498   6.660  15.237  0.0490  0.4414  0.2327
 8065TIP3    H145686   0.522   6.738  15.187  0.3115  1.0426  1.2692
 8065TIP3    H245687   0.469   6.694  15.322 -1.1971 -0.5009  0.2174
 8066TIP3   OH245688   2.081   0.321  14.123 -0.1056  0.1659  0.2507
 8066TIP3    H145689   2.063   0.402  14.172  0.2124 -0.9787  2.3873
 8066TIP3    H245690   2.104   0.257  14.191 -0.1530 -1.6756 -1.3960
 8067TIP3   OH245691   4.013   0.882   2.513  0.1353  0.1090 -0.2412
 8067TIP3    H145692   4.105   0.885   2.490  0.2413  2.0429  0.3101
 8067TIP3    H245693   3.967   0.913   2.435 -0.0597 -0.5948 -0.4214
 8068TIP3   OH245694   1.497   4.588  11.296  0.2610  0.1710  0.0356
 8068TIP3    H145695   1.466   4.546  11.216  0.0021  0.4910 -0.0383
 8068TIP3    H245696   1.591   4.576  11.295  0.0759 -1.7055  0.7711
 8069TIP3   OH245697   5.546   0.573  16.926  0.1305 -0.7891 -0.1825
 8069TIP3    H145698   5.521   0.611  17.011  0.8020 -1.3896  0.3003
 8069TIP3    H245699   5.501   0.628  16.861  0.2333  0.1687  0.5261
 8070TIP3   OH245700   6.581   4.335   5.205  0.5874  0.4107  0.1880
 8070TIP3    H145701   6.669   4.320   5.173  0.3326 -1.8473  0.4069
 8070TIP3    H245702   6.592   4.353   5.298  0.7849 -0.6321  0.3766
 8071TIP3   OH245703   6.113   6.728  15.023 -0.0739 -0.3370 -0.2801
 8071TIP3    H145704   6.139   6.701  14.935  0.4077 -1.2835  0.1416
 8071TIP3    H245705   6.061   6.807  15.009  0.8305  0.0959 -1.3379
 8072TIP3   OH245706   2.110   1.233   1.068  0.1599  0.1036 -0.2103
 8072TIP3    H145707   2.126   1.312   1.119  1.7545 -0.8501  0.8566
 8072TIP3    H245708   2.117   1.162   1.131  1.8834 -1.1076 -1.6654
 8073TIP3   OH245709   6.026   3.560   5.666  0.4334  0.6359 -0.0832
 8073TIP3    H145710   6.041   3.509   5.586 -1.2880  1.7212 -1.1663
 8073TIP3    H245711   6.083   3.637   5.656  2.9765 -0.8953  1.5180
 8074TIP3   OH245712   6.807   3.902  14.361 -0.5245  0.1858 -0.4509
 8074TIP3    H145713   6.901   3.909  14.375 -0.0319 -0.6114 -2.8477
 8074TIP3    H245714   6.790   3.960  14.286 -2.5457  2.7484  1.7778
 8075TIP3   OH245715   1.372   4.324  16.114 -0.2880  0.0213  0.6261
 8075TIP3    H145716   1.330   4.311  16.199 -0.9760  2.8171  0.7984
 8075TIP3    H245717   1.456   4.366  16.134  0.6529 -1.4513  0.0032
 8076TIP3   OH245718   6.540   3.668   6.630  0.7604  0.0971  0.1747
 8076TIP3    H145719   6.485   3.674   6.708  0.4241 -0.9577  0.0366
 8076TIP3    H245720   6.477   3.667   6.557  1.0971  2.4234 -0.2489
 8077TIP3   OH245721   5.130   0.327   2.629 -0.1071 -0.4076 -0.1588
 8077TIP3    H145722   5.167   0.414   2.635 -0.8907 -0.1683  2.0861
 8077TIP3    H245723   5.158   0.295   2.543  1.9436  1.2126 -0.1740
 8078TIP3   OH245724   6.058   3.793   0.036 -0.1590  0.3090  0.4512
 8078TIP3    H145725   5.980   3.825  -0.011 -0.7323 -1.3014  0.2514
 8078TIP3    H245726   6.038   3.809   0.128 -0.7709 -0.1687  0.4085
 8079TIP3   OH245727   5.007   6.079   5.722  0.6252  0.3239 -0.2293
 8079TIP3    H145728   4.936   6.138   5.696 -1.2400 -1.1179  1.3273
 8079TIP3    H245729   4.963   5.998   5.749  2.4899  0.5450  4.2493
 8080TIP3   OH245730   2.224   0.560   2.542 -0.2346 -0.3991 -0.5363
 8080TIP3    H145731   2.318   0.544   2.540  0.0199  1.0181 -0.9281
 8080TIP3    H245732   2.185   0.472   2.542  1.0742 -1.0070 -0.3860
 8081TIP3   OH245733   1.584   6.035   5.578  0.3351 -0.3038  0.8447
 8081TIP3    H145734   1.508   5.978   5.567 -0.3991  0.6589  0.8549
 8081TIP3    H245735   1.561   6.115   5.531  1.4455 -0.0865  0.6462
 8082TIP3   OH245736   5.163   1.468  14.342  0.3094  0.2241 -0.1497
 8082TIP3    H145737   5.198   1.511  14.264 -0.4444 -0.0089 -0.6244
 8082TIP3    H245738   5.150   1.377  14.315  1.0467 -0.1129  0.5790
 8083TIP3   OH245739   3.613   3.432   1.652  0.2730 -0.3899 -0.6131
 8083TIP3    H145740   3.524   3.456   1.626 -0.3578 -0.3558  1.4192
 8083TIP3    H245741   3.669   3.487   1.596 -0.9793  0.1238 -1.4230
 8084TIP3   OH245742   0.771   3.989   1.833 -0.4581  0.3688  0.4241
 8084TIP3    H145743   0.688   4.022   1.867 -1.5726  1.0715 -2.6298
 8084TIP3    H245744   0.750   3.957   1.745  2.1755 -1.1898  0.2597
 8085TIP3   OH245745   1.505   4.376   2.046 -0.1370  0.3507 -0.9735
 8085TIP3    H145746   1.539   4.466   2.046  0.2200  0.2251 -1.4970
 8085TIP3    H245747   1.524   4.344   1.958  0.6121 -0.5577 -0.4978
 8086TIP3   OH245748   4.208   5.368  14.570  0.5255 -0.1135 -0.3364
 8086TIP3    H145749   4.290   5.378  14.521  0.8869 -3.0577 -0.5320
 8086TIP3    H245750   4.234   5.322  14.650 -0.8560 -0.5716 -0.1278
 8087TIP3   OH245751   2.670   6.240  16.937  0.1238  0.4260  0.1379
 8087TIP3    H145752   2.726   6.167  16.913 -2.3550 -0.9868 -1.8871
 8087TIP3    H245753   2.662   6.292  16.856 -1.0251  0.8603  0.4992
 8088TIP3   OH245754   6.651   3.024   6.502 -0.0390 -0.0470  0.2390
 8088TIP3    H145755   6.619   3.104   6.544 -0.8735 -0.2422 -0.0042
 8088TIP3    H245756   6.745   3.039   6.490  0.8057 -0.9715  4.3632
 8089TIP3   OH245757   1.128   3.743   3.412  0.0860  0.3435 -0.1026
 8089TIP3    H145758   1.126   3.710   3.502  1.0187 -1.1482 -0.6086
 8089TIP3    H245759   1.134   3.665   3.358  0.7522  1.2830 -1.4203
 8090TIP3   OH245760   1.071   0.067   1.145  0.2376 -0.0184  0.8396
 8090TIP3    H145761   1.091   0.090   1.235 -0.4850 -0.6726  1.1802
 8090TIP3    H245762   1.013  -0.010   1.152 -0.6132  0.5029 -0.1366
 8091TIP3   OH245763   4.470   5.590  12.509 -0.3739  0.4862  0.7408
 8091TIP3    H145764   4.404   5.591  12.579 -1.2288 -2.3758  0.1271
 8091TIP3    H245765   4.456   5.672  12.462 -0.5494  1.9584  3.1625
 8092TIP3   OH245766   4.131   4.574   3.789 -0.0840  0.1385 -0.2927
 8092TIP3    H145767   4.057   4.532   3.746 -0.8010  0.6931  0.3596
 8092TIP3    H245768   4.194   4.503   3.803  0.5400  0.0865 -2.9251
 8093TIP3   OH245769   2.654   1.383   1.367  0.3342  0.4474 -0.8073
 8093TIP3    H145770   2.623   1.303   1.324  2.3545 -0.1978 -1.2015
 8093TIP3    H245771   2.724   1.415   1.309 -1.0092  3.0369 -1.1217
 8094TIP3   OH245772   2.408   5.804  15.656 -0.1461  0.0302  0.1101
 8094TIP3    H145773   2.436   5.731  15.711  0.2292 -0.0525 -0.1835
 8094TIP3    H245774   2.399   5.878  15.716 -1.0575 -0.3776  0.5019
 8095TIP3   OH245775   2.655   0.355   5.993  0.3842 -0.1602 -0.6894
 8095TIP3    H145776   2.585   0.302   6.032  0.0973 -0.6470 -1.8351
 8095TIP3    H245777   2.731   0.297   5.991  0.6421  0.1432 -0.0936
 8096TIP3   OH245778   5.077   5.702   3.501 -0.4184  0.7470 -0.2291
 8096TIP3    H145779   5.047   5.611   3.509  0.7333  0.3807  0.0870
 8096TIP3    H245780   4.999   5.754   3.519 -0.6774 -0.1725  1.5108
 8097TIP3   OH245781   2.813   4.625   2.351  0.3886 -0.2248  0.4419
 8097TIP3    H145782   2.846   4.714   2.355 -0.3414  0.0495  0.5275
 8097TIP3    H245783   2.738   4.624   2.412  0.0326 -0.7355  0.0073
 8098TIP3   OH245784   3.085   1.441  11.303  0.3951 -0.6290  0.0078
 8098TIP3    H145785   3.120   1.366  11.256 -0.2413 -1.4875  0.8397
 8098TIP3    H245786   3.009   1.406  11.350 -2.9005  1.4464 -3.1594
 8099TIP3   OH245787   5.577   2.131  12.846  0.4817 -0.1042  0.5010
 8099TIP3    H145788   5.529   2.067  12.793  0.9694 -2.2095  2.4846
 8099TIP3    H245789   5.564   2.214  12.799 -3.0407 -0.9675 -0.4005
 8100TIP3   OH245790   2.095   1.907   3.330 -0.3187 -0.0555 -0.6309
 8100TIP3    H145791   2.178   1.871   3.297  0.8869  0.6556  1.4214
 8100TIP3    H245792   2.108   2.002   3.327 -0.5710  0.0409  0.8195
 8101TIP3   OH245793   6.090   6.496  15.695  0.1544  0.0626  0.2079
 8101TIP3    H145794   6.083   6.567  15.759 -0.7646  0.4373 -0.2944
 8101TIP3    H245795   6.000   6.483  15.664  0.1646 -1.8053  0.8076
 8102TIP3   OH245796   0.073   1.478  15.903  0.1894 -0.3767  0.0247
 8102TIP3    H145797   0.125   1.460  15.824 -2.1837  1.3051 -2.0880
 8102TIP3    H245798   0.076   1.397  15.952  0.4490 -2.1023 -2.6261
 8103TIP3   OH245799   5.546   1.970  15.864 -0.5509 -0.0222 -0.1734
 8103TIP3    H145800   5.551   1.923  15.780 -0.0339  1.7184 -1.1767
 8103TIP3    H245801   5.622   1.939  15.913 -1.0928 -1.3830 -0.1279
 8104TIP3   OH245802   6.457   5.387  14.015 -0.5074 -0.0255  0.4931
 8104TIP3    H145803   6.431   5.460  13.959  1.0397  0.4806  0.3855
 8104TIP3    H245804   6.491   5.428  14.095 -0.1845 -0.6524  0.6892
 8105TIP3   OH245805   2.197   5.476  14.299 -0.2925  0.3994  0.1208
 8105TIP3    H145806   2.230   5.557  14.260 -1.6416  0.7749 -0.3249
 8105TIP3    H245807   2.136   5.506  14.366 -1.0969 -0.2318 -0.3104
 8106TIP3   OH245808   0.548   3.256  14.646  0.3973 -0.2165  0.2610
 8106TIP3    H145809   0.500   3.252  14.729  1.6566  1.2087  1.1029
 8106TIP3    H245810   0.618   3.191  14.656  0.5187 -0.0797  0.3157
 8107TIP3   OH245811   3.574   5.647   1.842 -0.5257  0.9225  0.1495
 8107TIP3    H145812   3.543   5.593   1.915 -1.1228  1.3359  0.2028
 8107TIP3    H245813   3.497   5.661   1.787  0.0051  0.2798 -0.7840
 8108TIP3   OH245814   0.728   4.034  10.708 -0.1086 -0.2485  0.0416
 8108TIP3    H145815   0.633   4.051  10.709 -0.0664  0.0016  0.7656
 8108TIP3    H245816   0.765   4.109  10.662 -0.1546  0.3841  0.9913
 8109TIP3   OH245817   0.588   5.967   0.707  0.2245 -0.0486  0.2684
 8109TIP3    H145818   0.530   5.971   0.783  1.5229  0.8448  1.2703
 8109TIP3    H245819   0.618   6.058   0.695  1.1197 -0.4186 -0.4299
 8110TIP3   OH245820   5.762   5.341   1.741  0.8625 -0.0040  0.2459
 8110TIP3    H145821   5.792   5.330   1.651 -2.1711  1.7627 -1.1507
 8110TIP3    H245822   5.721   5.257   1.763 -1.9266  0.7088 -1.6668
 8111TIP3   OH245823   3.442   0.946   2.405 -0.1971  0.0180  0.0216
 8111TIP3    H145824   3.406   0.867   2.444 -2.0637  0.4883 -0.6689
 8111TIP3    H245825   3.369   1.008   2.401  1.0623  1.5987  0.0138
 8112TIP3   OH245826   4.419   0.888   0.472 -0.0740 -0.7316 -0.2343
 8112TIP3    H145827   4.331   0.850   0.474 -0.7046  0.7066  0.8308
 8112TIP3    H245828   4.451   0.881   0.561 -0.2249  1.1661  0.0234
 8113TIP3   OH245829   1.998   4.972  14.785 -0.0853  0.1493 -0.9419
 8113TIP3    H145830   1.943   4.940  14.713 -1.6918  0.0848  0.2657
 8113TIP3    H245831   2.084   4.984  14.745 -0.4394 -1.7076 -2.4267
 8114TIP3   OH245832   0.962   6.830   4.493  0.2927 -0.1591  0.3076
 8114TIP3    H145833   0.917   6.745   4.493  0.7984 -0.4436  0.9688
 8114TIP3    H245834   0.948   6.864   4.581  0.3347  0.3193  0.1315
 8115TIP3   OH245835   0.017   6.110   0.317 -0.9160  0.0730 -0.6627
 8115TIP3    H145836  -0.067   6.134   0.279 -0.1926  2.3836 -0.9485
 8115TIP3    H245837  -0.000   6.103   0.411 -1.3450  0.9281 -0.6736
 8116TIP3   OH245838   4.241   4.318   3.828 -0.5213 -0.3554  0.4894
 8116TIP3    H145839   4.300   4.263   3.880  0.4509  0.7157  0.5584
 8116TIP3    H245840   4.229   4.270   3.747  3.7731  1.1278 -1.2750
 8117TIP3   OH245841   1.863   1.876  15.714  0.0143  0.7123 -0.7261
 8117TIP3    H145842   1.913   1.938  15.661 -0.9100  3.2256  1.1495
 8117TIP3    H245843   1.927   1.811  15.742  1.4796  1.9162 -1.1408
 8118TIP3   OH245844   1.968   4.038  11.221 -0.4356  0.4916  0.5874
 8118TIP3    H145845   2.027   4.001  11.156  1.0070  1.0336  1.5228
 8118TIP3    H245846   1.913   4.099  11.172 -0.0704  0.1269 -0.2845
 8119TIP3   OH245847   3.771   4.614  11.794 -0.2738 -0.3732 -0.0832
 8119TIP3    H145848   3.766   4.571  11.709 -0.5168  0.3772 -0.4494
 8119TIP3    H245849   3.744   4.705  11.778  1.8113  0.3718  0.3643
 8120TIP3   OH245850   5.595   5.095  11.347  0.4063  0.6471 -0.1488
 8120TIP3    H145851   5.588   5.168  11.408  1.8785 -0.1919  1.0769
 8120TIP3    H245852   5.587   5.017  11.401 -3.2238 -0.2277 -1.6756
 8121TIP3   OH245853   0.322   2.374  15.845  0.1210 -0.4042 -0.2716
 8121TIP3    H145854   0.264   2.411  15.912 -0.4775  1.0044 -1.4988
 8121TIP3    H245855   0.392   2.438  15.838 -0.1829 -0.1846 -1.4500
 8122TIP3   OH245856   3.781   5.647   1.660 -0.2743  0.1909  0.2569
 8122TIP3    H145857   3.697   5.646   1.707 -0.8277  0.3956 -0.6883
 8122TIP3    H245858   3.778   5.568   1.605 -0.2283  0.6406 -0.4061
 8123TIP3   OH245859   3.150   3.869   3.260 -0.6058  0.3545 -0.1573
 8123TIP3    H145860   3.120   3.858   3.350 -0.1590 -1.6926 -0.2103
 8123TIP3    H245861   3.070   3.882   3.209 -0.7673  3.0673  0.6709
 8124TIP3   OH245862   2.206   6.554  11.853 -0.3934 -0.4333  0.5525
 8124TIP3    H145863   2.155   6.597  11.922 -0.3715  0.2916  0.1313
 8124TIP3    H245864   2.295   6.552  11.887 -0.1553  0.9826  0.0915
 8125TIP3   OH245865   2.783   1.769   0.886 -0.6828  0.3813  0.2559
 8125TIP3    H145866   2.855   1.708   0.872 -1.2451 -0.0093 -1.0841
 8125TIP3    H245867   2.825   1.853   0.906  0.1156 -0.0669  0.4666
 8126TIP3   OH245868   1.078   3.683  16.705 -0.2262  0.1934  0.0516
 8126TIP3    H145869   1.154   3.628  16.685  0.1876  0.7673  0.0345
 8126TIP3    H245870   1.112   3.772  16.703 -0.9086  0.4550  0.0275
 8127TIP3   OH245871   1.471   5.744  10.753 -0.4477  0.7316 -0.4926
 8127TIP3    H145872   1.463   5.676  10.685 -0.4627  0.6850 -0.4438
 8127TIP3    H245873   1.491   5.824  10.704 -3.0445  1.2824 -0.8241
 8128TIP3   OH245874   1.954   1.142  16.517 -0.2696 -0.0537  0.3346
 8128TIP3    H145875   1.883   1.101  16.567 -0.5402 -0.2641 -0.2046
 8128TIP3    H245876   1.910   1.209  16.464 -0.3953 -1.4370 -1.4120
 8129TIP3   OH245877   0.138   1.555  17.004  0.6754 -0.2138 -0.3527
 8129TIP3    H145878   0.106   1.548  16.914  2.1801  0.3858 -0.9662
 8129TIP3    H245879   0.202   1.485  17.013 -0.2586 -0.9814  0.6430
 8130TIP3   OH245880   6.227   5.214   1.419  0.0990  0.1675  0.2436
 8130TIP3    H145881   6.238   5.119   1.418 -3.0728 -0.3535  1.5809
 8130TIP3    H245882   6.215   5.235   1.512 -2.2719  1.3417 -0.2348
 8131TIP3   OH245883   2.045   1.074  16.867 -0.5946  0.3583  0.2955
 8131TIP3    H145884   2.045   1.156  16.818  0.2050 -0.6630 -1.5148
 8131TIP3    H245885   2.002   1.011  16.810 -1.4110 -0.4629  1.7499
 8132TIP3   OH245886   3.776   2.122   1.435 -0.3315  0.0954 -0.0419
 8132TIP3    H145887   3.869   2.128   1.416 -0.2160 -1.3848 -0.0155
 8132TIP3    H245888   3.734   2.171   1.365  0.3514 -1.1700 -1.3717
 8133TIP3   OH245889   6.107   5.912   4.222 -0.1029  0.0161 -0.2900
 8133TIP3    H145890   6.114   5.884   4.131 -0.3715  0.9797 -0.6229
 8133TIP3    H245891   6.188   5.882   4.264 -0.7478 -1.9710 -0.4005
 8134TIP3   OH245892   6.601   1.046   5.487  0.6479 -0.1854  0.1869
 8134TIP3    H145893   6.677   1.057   5.545  1.3563 -0.5597 -0.6495
 8134TIP3    H245894   6.542   0.990   5.538  0.5985  0.7086  1.1427
 8135TIP3   OH245895   1.251   2.279   2.905  0.4355  0.3345 -0.0073
 8135TIP3    H145896   1.267   2.225   2.828 -0.5302  0.1938 -0.1227
 8135TIP3    H245897   1.166   2.319   2.889 -0.3348 -0.5919  1.4795
 8136TIP3   OH245898   5.190   6.805   5.299 -0.3616  0.5620  0.2036
 8136TIP3    H145899   5.241   6.734   5.336  0.3349  1.7550  1.6269
 8136TIP3    H245900   5.101   6.789   5.331 -0.0002  0.9089  1.4194
 8137TIP3   OH245901   4.352   2.743  13.137 -1.0510  0.2472  0.0444
 8137TIP3    H145902   4.270   2.758  13.090 -1.4524  1.4362  1.0567
 8137TIP3    H245903   4.360   2.818  13.196  0.0252 -0.5823  1.0131
 8138TIP3   OH245904   6.551   2.103   2.254  0.3184 -0.1214  0.1853
 8138TIP3    H145905   6.644   2.126   2.259  0.5084 -0.5468 -0.9352
 8138TIP3    H245906   6.507   2.169   2.308  1.0427  1.6181 -1.2142
 8139TIP3   OH245907   5.686   2.758  13.684 -0.1220  0.4840 -0.1355
 8139TIP3    H145908   5.688   2.805  13.768  2.2666  1.4155 -0.6556
 8139TIP3    H245909   5.747   2.686  13.696 -0.9378 -0.3136 -0.6114
 8140TIP3   OH245910   3.744   0.924   4.071  0.1346 -0.3515  0.0880
 8140TIP3    H145911   3.664   0.878   4.046  1.2849 -1.4717 -1.7499
 8140TIP3    H245912   3.811   0.892   4.011  1.6259  1.7772  0.4750
 8141TIP3   OH245913   1.137   4.639  13.993 -0.3081 -0.4570 -0.8750
 8141TIP3    H145914   1.214   4.692  14.014  0.1915 -1.6935  0.6311
 8141TIP3    H245915   1.156   4.553  14.032 -1.5994 -1.3924 -2.1906
 8142TIP3   OH245916   4.752   4.011  11.955  0.2684 -0.1435  0.4244
 8142TIP3    H145917   4.669   3.989  11.997  0.4346 -0.9895  0.3392
 8142TIP3    H245918   4.731   4.079  11.892 -0.4736 -0.7682 -0.0157
 8143TIP3   OH245919   6.066   4.294   1.739 -0.4666  0.3426 -0.0315
 8143TIP3    H145920   6.012   4.344   1.801  1.9778 -0.0934  2.6831
 8143TIP3    H245921   6.081   4.211   1.783  0.4072 -0.4741 -1.8023
 8144TIP3   OH245922   2.110   0.434  13.641  0.2711 -0.6743 -0.2631
 8144TIP3    H145923   2.025   0.477  13.641  0.2192 -0.7636 -1.1157
 8144TIP3    H245924   2.092   0.343  13.616  0.6385 -0.6357 -0.6844
 8145TIP3   OH245925   5.762   2.306  13.361 -0.2243 -0.1024  0.1446
 8145TIP3    H145926   5.710   2.367  13.308  0.9737  1.1566  0.3661
 8145TIP3    H245927   5.840   2.355  13.385  0.7836 -1.7258  0.3743
 8146TIP3   OH245928   3.328   2.889  15.074 -0.1164 -0.5318 -0.5975
 8146TIP3    H145929   3.278   2.815  15.039 -2.9932  0.7597  0.4675
 8146TIP3    H245930   3.318   2.958  15.008 -1.6342  0.4060  0.5350
 8147TIP3   OH245931   5.594   3.293  15.553 -0.3599 -0.0834 -0.5364
 8147TIP3    H145932   5.568   3.208  15.588 -1.0331  1.1068  2.0889
 8147TIP3    H245933   5.688   3.298  15.569 -0.2728 -0.4073 -0.9237
 8148TIP3   OH245934   1.951   6.625  11.705  0.3638 -0.8348  0.0484
 8148TIP3    H145935   2.027   6.618  11.763  1.3290 -1.6537 -1.2517
 8148TIP3    H245936   1.953   6.715  11.674 -0.1935 -0.3695  1.2867
 8149TIP3   OH245937   3.553   6.436  14.863 -0.2770  0.0045 -0.1357
 8149TIP3    H145938   3.643   6.424  14.833 -0.8666 -0.6115 -1.8325
 8149TIP3    H245939   3.516   6.499  14.801 -0.5919  1.5393  1.5286
 8150TIP3   OH245940   1.622   5.117   1.670  0.2887  0.2152  0.1764
 8150TIP3    H145941   1.573   5.050   1.622  0.6952  0.3000 -0.3725
 8150TIP3    H245942   1.586   5.200   1.636  1.6178  0.2980 -1.1310
 8151TIP3   OH245943   1.605   5.569   1.251 -0.0851 -0.0440 -0.3552
 8151TIP3    H145944   1.698   5.580   1.273  1.0749 -1.4010 -3.8064
 8151TIP3    H245945   1.576   5.657   1.228  0.1430  0.4887  1.2816
 8152TIP3   OH245946   6.779   4.370  16.249 -0.1632  0.0592 -0.4531
 8152TIP3    H145947   6.781   4.453  16.295 -2.5629 -0.7407  1.3131
 8152TIP3    H245948   6.686   4.351  16.237  0.1435 -3.3947  1.3176
 8153TIP3   OH245949   3.892   5.752   0.216 -0.1720  0.4035 -0.1583
 8153TIP3    H145950   3.974   5.800   0.206 -1.6486  3.0631 -0.4431
 8153TIP3    H245951   3.857   5.746   0.127 -1.1547  1.0048  0.1708
 8154TIP3   OH245952   4.112   0.544  14.791 -0.0515 -0.2355  0.0053
 8154TIP3    H145953   4.192   0.537  14.844 -0.5082 -1.9035  0.5375
 8154TIP3    H245954   4.041   0.543  14.855 -0.6576 -3.1471 -0.5775
 8155TIP3   OH245955   3.539   0.612   4.565  0.4928  0.4952  0.1886
 8155TIP3    H145956   3.549   0.579   4.476  0.9886 -0.7178  0.6668
 8155TIP3    H245957   3.532   0.707   4.555  0.1102  0.3470 -1.1632
 8156TIP3   OH245958   3.524   6.091  15.526  0.2874  0.4760 -0.1441
 8156TIP3    H145959   3.583   6.022  15.497  0.8889 -0.0524  2.1149
 8156TIP3    H245960   3.565   6.172  15.497  1.0232  0.0111 -0.4170
 8157TIP3   OH245961   0.827   2.401   0.155 -0.5064  0.7821  0.4754
 8157TIP3    H145962   0.898   2.337   0.143  0.0297  1.4871 -0.2224
 8157TIP3    H245963   0.747   2.351   0.135 -0.2392 -0.0686  1.4512
 8158TIP3   OH245964   0.939   3.382  10.983  0.4784  0.4213 -0.0146
 8158TIP3    H145965   1.021   3.344  10.953  0.2267 -0.3032  0.1969
 8158TIP3    H245966   0.914   3.443  10.914  1.2519  0.7470 -0.0222
 8159TIP3   OH245967   3.204   6.418   6.628  0.0540 -0.4360  0.0774
 8159TIP3    H145968   3.270   6.350   6.644 -0.8761 -1.8301 -1.6205
 8159TIP3    H245969   3.126   6.384   6.671  0.1362  0.7010  1.1675
 8160TIP3   OH245970   6.217   5.956  10.673 -0.5065 -0.1738 -0.4859
 8160TIP3    H145971   6.313   5.955  10.664 -0.2868  0.1073  1.4034
 8160TIP3    H245972   6.185   5.970  10.584  1.1742 -1.2532 -1.3121
 8161TIP3   OH245973   3.870   0.493   0.225  0.2535  0.4848 -0.4937
 8161TIP3    H145974   3.886   0.409   0.181  0.6169  0.5294 -0.4435
 8161TIP3    H245975   3.796   0.474   0.284  2.3033 -0.6905  1.9093
 8162TIP3   OH245976   0.136   3.720  12.861 -0.2927 -0.5123 -0.0293
 8162TIP3    H145977   0.223   3.701  12.826 -0.0303  0.8268 -0.1617
 8162TIP3    H245978   0.150   3.735  12.954  0.4098  3.7014 -0.6042
 8163TIP3   OH245979   5.380   4.242   3.646  0.6300 -0.1457 -0.3127
 8163TIP3    H145980   5.455   4.297   3.667 -0.9466  1.7159  0.7435
 8163TIP3    H245981   5.398   4.159   3.690  1.5107  0.6946  0.9720
 8164TIP3   OH245982   6.114   0.697  14.961  0.1964 -0.5603  0.5080
 8164TIP3    H145983   6.143   0.701  14.870 -1.1983 -1.7922 -0.0297
 8164TIP3    H245984   6.022   0.720  14.958 -0.1112 -1.5664  1.4498
 8165TIP3   OH245985   4.845   3.473  16.407 -0.0588 -0.0078  0.2400
 8165TIP3    H145986   4.779   3.419  16.364  0.9331  0.1027 -1.5176
 8165TIP3    H245987   4.919   3.415  16.420  1.3272  1.0016 -2.4209
 8166TIP3   OH245988   5.777   0.986   6.082 -0.2246  0.0878  0.3548
 8166TIP3    H145989   5.802   1.058   6.024 -1.2271  0.2932  0.1591
 8166TIP3    H245990   5.820   0.909   6.045 -1.0714  0.1683 -0.8308
 8167TIP3   OH245991   0.815   4.769  16.982 -0.1037  0.3728  0.8422
 8167TIP3    H145992   0.839   4.854  17.020  0.2879 -0.1999  1.9209
 8167TIP3    H245993   0.723   4.758  17.006 -0.0718  0.3611  0.9600
 8168TIP3   OH245994   2.256   2.040  13.406  0.0378 -0.0202 -0.2277
 8168TIP3    H145995   2.180   1.985  13.424  0.5459 -0.8359 -0.5199
 8168TIP3    H245996   2.220   2.126  13.388 -0.7852 -0.2947  0.0819
 8169TIP3   OH245997   6.526   1.541   2.144  0.4196  0.0556  0.4129
 8169TIP3    H145998   6.546   1.466   2.200  0.2223  1.2096  2.1245
 8169TIP3    H245999   6.603   1.598   2.152 -0.5722  1.3177  1.4491
 8170TIP3   OH246000   6.405   1.404  14.343 -0.1648  0.1908  0.0769
 8170TIP3    H146001   6.475   1.378  14.283 -0.9136 -0.2299 -0.6335
 8170TIP3    H246002   6.406   1.336  14.410 -0.9689 -0.7602 -0.8338
 8171TIP3   OH246003   3.576   6.232   5.147  0.0173 -0.3199  0.1623
 8171TIP3    H146004   3.529   6.199   5.071 -0.7804 -1.4023  1.0939
 8171TIP3    H246005   3.667   6.237   5.119 -0.3970  0.1995 -1.1428
 8172TIP3   OH246006   3.477   1.406   3.376 -0.0100 -0.4203  0.2230
 8172TIP3    H146007   3.498   1.389   3.284 -0.8109  1.7174 -0.4346
 8172TIP3    H246008   3.401   1.465   3.372  0.1865  0.0429  2.2427
 8173TIP3   OH246009   3.898   0.351  11.770  0.1438  0.0452  1.1954
 8173TIP3    H146010   3.949   0.419  11.725  0.2914 -1.7055 -1.5028
 8173TIP3    H246011   3.950   0.331  11.848  1.3075  1.3689  0.8150
 8174TIP3   OH246012   2.022   0.533   0.864  0.4278  0.1418 -0.4309
 8174TIP3    H146013   2.091   0.528   0.930 -0.3565 -1.3630  0.3304
 8174TIP3    H246014   2.045   0.466   0.801 -0.3250 -0.3706 -0.1696
 8175TIP3   OH246015   1.611   2.439  15.590 -0.0132  0.4877 -0.5498
 8175TIP3    H146016   1.661   2.371  15.545  0.4682  1.7531 -2.0288
 8175TIP3    H246017   1.534   2.453  15.535 -2.4092 -1.7908  1.9628
 8176TIP3   OH246018   0.290   6.192   4.941  0.3317  0.2573 -0.0451
 8176TIP3    H146019   0.217   6.130   4.934  1.5565 -1.2838  0.2751
 8176TIP3    H246020   0.337   6.183   4.858  1.1259 -0.0677  0.4296
 8177TIP3   OH246021   4.018   2.648  11.081 -0.4198 -0.9383  0.2306
 8177TIP3    H146022   3.976   2.697  11.152  2.1812  1.9052 -0.0048
 8177TIP3    H246023   3.975   2.679  11.002  1.1709  1.1383  0.0878
 8178TIP3   OH246024   2.249   1.387   0.286 -0.1572  0.6006 -0.2486
 8178TIP3    H146025   2.204   1.401   0.369 -1.6844  1.9979 -1.2338
 8178TIP3    H246026   2.329   1.341   0.309 -2.1913 -2.3996  1.6255
 8179TIP3   OH246027   2.055   1.384  15.814  0.1268 -0.6607 -0.6778
 8179TIP3    H146028   2.087   1.416  15.730  0.8404  0.3732 -0.0391
 8179TIP3    H246029   2.128   1.399  15.874 -0.7758 -0.3342  0.3632
 8180TIP3   OH246030   1.886   6.009   2.103  0.0662 -0.0444 -0.4732
 8180TIP3    H146031   1.835   6.031   2.181 -0.1674 -0.8725 -0.3908
 8180TIP3    H246032   1.977   6.023   2.129 -0.0905  1.3992 -0.6050
 8181TIP3   OH246033   6.575   5.879   1.262 -0.7551 -0.2282 -0.0627
 8181TIP3    H146034   6.669   5.899   1.262  0.0951 -3.6068 -0.9962
 8181TIP3    H246035   6.546   5.902   1.173 -0.7494  0.4363  0.0999
 8182TIP3   OH246036   0.272   6.223  15.814 -0.2061  0.2747 -0.0014
 8182TIP3    H146037   0.255   6.133  15.785 -1.1285  0.3246  0.3358
 8182TIP3    H246038   0.184   6.260  15.829  0.1874  0.9252  0.7712
 8183TIP3   OH246039   0.847   6.008  16.672 -0.2221 -0.1454 -0.1904
 8183TIP3    H146040   0.806   5.993  16.587  0.8669 -4.2796 -0.2027
 8183TIP3    H246041   0.784   5.972  16.735  0.6240 -0.7351  0.3383
 8184TIP3   OH246042   6.573   6.265  12.957 -0.1549 -0.0465 -0.2559
 8184TIP3    H146043   6.552   6.223  12.874 -0.2031  1.2251 -0.9046
 8184TIP3    H246044   6.641   6.209  12.996 -1.6328 -1.8278 -0.1247
 8185TIP3   OH246045   4.695   2.677   6.042  0.3178  0.2469 -0.2786
 8185TIP3    H146046   4.681   2.667   6.136 -0.5110 -0.0847 -0.4255
 8185TIP3    H246047   4.714   2.771   6.031  0.6741  0.2404  0.2407
 8186TIP3   OH246048   2.836   6.257   5.152 -0.2747  0.1240 -0.0441
 8186TIP3    H146049   2.917   6.295   5.186 -0.0232 -0.2469 -0.2102
 8186TIP3    H246050   2.767   6.289   5.210 -0.0498  0.6881 -0.0837
 8187TIP3   OH246051   6.837   4.311   5.144 -0.3194  0.2492  0.3255
 8187TIP3    H146052   6.869   4.394   5.180  0.5840  0.8449 -1.6882
 8187TIP3    H246053   6.899   4.246   5.176  1.1344  0.9310 -0.9787
 8188TIP3   OH246054   3.588   1.090   5.078  0.2401  0.1587 -0.2138
 8188TIP3    H146055   3.593   1.007   5.032 -1.6145  0.2073 -0.5661
 8188TIP3    H246056   3.615   1.155   5.014  3.8802 -0.2536  0.6753
 8189TIP3   OH246057   0.661   5.437  16.829 -0.2652 -0.2880  0.0854
 8189TIP3    H146058   0.619   5.352  16.814  1.6952 -1.2838 -0.0797
 8189TIP3    H246059   0.631   5.492  16.756 -2.3624 -0.4448  0.7424
 8190TIP3   OH246060   6.194   2.458  14.709  0.2802 -0.4472 -0.1037
 8190TIP3    H146061   6.287   2.461  14.687  0.9121 -1.5963  2.1411
 8190TIP3    H246062   6.192   2.442  14.803 -2.2099 -0.7262 -0.1355
 8191TIP3   OH246063   2.393   0.252   5.408 -0.4497  0.2056 -0.1833
 8191TIP3    H146064   2.452   0.288   5.474 -1.1357 -0.1902  0.6627
 8191TIP3    H246065   2.429   0.165   5.388 -1.4844 -0.6225  1.3642
 8192TIP3   OH246066   0.130   5.602  10.868  0.1745  0.0753 -0.8702
 8192TIP3    H146067   0.138   5.529  10.929 -0.6621  0.3777 -0.3852
 8192TIP3    H246068   0.149   5.680  10.921 -4.1692  0.7529  0.0972
 8193TIP3   OH246069   5.478   3.908  15.349 -0.6474  0.1863 -0.0947
 8193TIP3    H146070   5.417   3.843  15.314 -1.6181  0.8082  0.3726
 8193TIP3    H246071   5.564   3.867  15.343 -1.2450 -1.2022  0.3426
 8194TIP3   OH246072   2.129   3.108   5.354  0.2762  0.3994 -0.1977
 8194TIP3    H146073   2.100   3.187   5.399  0.3267  1.1587 -1.4531
 8194TIP3    H246074   2.049   3.057   5.342  0.2519  0.2110  0.6677
 8195TIP3   OH246075   6.042   5.957   2.663  0.1069  0.1575 -0.0376
 8195TIP3    H146076   6.017   5.896   2.733  0.3142 -1.6157 -1.4391
 8195TIP3    H246077   6.095   5.905   2.603  0.5228  1.8036 -1.1723
 8196TIP3   OH246078   1.568   0.954  11.751 -0.6472  0.3477 -0.8369
 8196TIP3    H146079   1.648   0.935  11.702 -0.6182  0.7399 -0.9406
 8196TIP3    H246080   1.502   0.969  11.683 -1.0751 -1.0172 -0.7691
 8197TIP3   OH246081   2.790   2.117  15.235 -0.5721 -0.2499  0.9014
 8197TIP3    H146082   2.713   2.074  15.271 -1.0647 -0.1832 -0.0566
 8197TIP3    H246083   2.807   2.072  15.152 -0.4115  0.6433  0.4335
 8198TIP3   OH246084   5.245   1.888   2.858  0.2129 -0.1121 -0.4413
 8198TIP3    H146085   5.208   1.958   2.912 -0.9385  0.6127 -2.0601
 8198TIP3    H246086   5.339   1.894   2.871  0.1173  1.5625 -0.3027
 8199TIP3   OH246087   0.367   0.149   2.538  0.0547  0.0734  0.1208
 8199TIP3    H146088   0.412   0.207   2.476  2.0650 -0.4392  1.0216
 8199TIP3    H246089   0.407   0.169   2.623 -1.0449 -0.8280  0.8779
 8200TIP3   OH246090   2.592   5.621   0.097 -0.2073  0.2447 -0.2211
 8200TIP3    H146091   2.543   5.604   0.017  0.3175  1.1241 -0.7487
 8200TIP3    H246092   2.642   5.701   0.078  0.0507  0.3749  0.9229
 8201TIP3   OH246093   2.766   5.923  13.535  0.0210 -0.5012  0.4313
 8201TIP3    H146094   2.736   6.011  13.556 -1.2588 -0.8657  0.2207
 8201TIP3    H246095   2.805   5.930  13.448 -1.2557 -0.3830 -0.1414
 8202TIP3   OH246096   5.841   4.921  14.247  0.5828 -0.3324 -0.0406
 8202TIP3    H146097   5.893   4.990  14.208 -0.7848  1.6259  1.3462
 8202TIP3    H246098   5.766   4.967  14.286 -0.2002 -2.5579  1.2957
 8203TIP3   OH246099   0.519   4.335   3.476 -0.4658 -0.1211 -0.1950
 8203TIP3    H146100   0.553   4.246   3.488  0.1357  0.0832 -0.3808
 8203TIP3    H246101   0.585   4.380   3.424 -0.5522  0.5735  0.2744
 8204TIP3   OH246102   5.275   3.203  16.272 -0.2724  0.2883  0.1999
 8204TIP3    H146103   5.281   3.240  16.184 -1.6503  1.6024  0.6199
 8204TIP3    H246104   5.213   3.130  16.263 -1.0025  0.8995  0.2166
 8205TIP3   OH246105   6.074   2.592   3.436  0.1780  0.2270 -0.1796
 8205TIP3    H146106   6.092   2.564   3.525 -0.3716  0.2464 -0.0604
 8205TIP3    H246107   5.986   2.631   3.440  0.6352  1.3242 -0.4787
 8206TIP3   OH246108   0.749   1.986  16.639 -0.1644 -0.6701  0.1552
 8206TIP3    H146109   0.727   2.056  16.578  0.0024 -0.9183 -0.1920
 8206TIP3    H246110   0.733   2.024  16.725  0.1490 -0.1233 -0.0195
 8207TIP3   OH246111   5.272   3.257   4.762  0.3577 -0.0950 -0.1959
 8207TIP3    H146112   5.333   3.247   4.836 -0.9722 -0.5326  0.8908
 8207TIP3    H246113   5.297   3.189   4.701  0.7191 -0.5388  0.4319
 8208TIP3   OH246114   2.444   4.269   0.913  0.3170 -0.3034 -0.1663
 8208TIP3    H146115   2.500   4.330   0.960  0.4336 -1.3864  1.1367
 8208TIP3    H246116   2.504   4.209   0.869  0.1836 -0.0799 -0.6744
 8209TIP3   OH246117   4.391   5.732   0.267  0.3849 -0.4938  0.0181
 8209TIP3    H146118   4.352   5.680   0.338 -2.0431  0.1157 -0.7740
 8209TIP3    H246119   4.351   5.697   0.188 -1.6202  2.6575 -0.5442
 8210TIP3   OH246120   5.640   0.224   2.224  0.7420  0.2129  0.2211
 8210TIP3    H146121   5.565   0.260   2.176  0.1679 -1.4998 -0.2291
 8210TIP3    H246122   5.706   0.208   2.157  0.3021 -1.2671  0.1165
 8211TIP3   OH246123   2.732   5.908   2.621  0.5769 -0.0691 -0.2957
 8211TIP3    H146124   2.661   5.950   2.670 -0.1145  0.4231 -1.6430
 8211TIP3    H246125   2.712   5.815   2.624 -0.1986  0.0708 -0.7140
 8212TIP3   OH246126   6.359   1.196   1.507 -0.0651 -0.2606  0.2606
 8212TIP3    H146127   6.334   1.194   1.599  1.4703  0.0636  0.7050
 8212TIP3    H246128   6.307   1.267   1.469  0.3784  0.5972  1.2145
 8213TIP3   OH246129   1.603   1.631  12.458  0.2255  0.4686  0.0369
 8213TIP3    H146130   1.619   1.636  12.364 -0.3856 -0.5692 -0.1291
 8213TIP3    H246131   1.539   1.561  12.469 -0.4533  1.2183  1.1428
 8214TIP3   OH246132   2.490   3.817  15.251  0.2451  0.0291 -0.1437
 8214TIP3    H146133   2.394   3.817  15.253  0.0976  3.2195 -1.3354
 8214TIP3    H246134   2.515   3.882  15.316  1.5210  0.2835 -0.8693
 8215TIP3   OH246135   6.282   6.152   1.820  0.1920 -0.2321 -0.6514
 8215TIP3    H146136   6.367   6.195   1.823  1.2397 -2.1353 -0.9951
 8215TIP3    H246137   6.272   6.125   1.729 -0.4547 -0.6317 -0.4705
 8216TIP3   OH246138   5.275   0.390  14.004 -0.2480  0.1802  0.0054
 8216TIP3    H146139   5.202   0.362  13.948 -2.6991  0.3187  2.8614
 8216TIP3    H246140   5.247   0.475  14.039  0.3056 -0.6538  2.6947
 8217TIP3   OH246141   6.315   0.093  12.204  0.0571  0.5578 -0.7856
 8217TIP3    H146142   6.232   0.133  12.176  0.2417  1.3021 -0.2677
 8217TIP3    H246143   6.379   0.124  12.140  0.1971  1.0713 -0.3941
 8218TIP3   OH246144   1.855   0.373   4.166  0.2956 -0.2633  0.1768
 8218TIP3    H146145   1.888   0.284   4.177  1.5112  0.3394  1.8326
 8218TIP3    H246146   1.872   0.394   4.074 -0.4365 -1.8657 -0.3604
 8219TIP3   OH246147   5.815   0.631  13.016  0.2089 -0.1975  0.0935
 8219TIP3    H146148   5.893   0.584  12.985  2.4870  2.6393  1.1324
 8219TIP3    H246149   5.848   0.689  13.085 -2.5598  2.1410 -0.3866
 8220TIP3   OH246150   4.593   4.100   5.392 -0.6358  0.3312  0.0010
 8220TIP3    H146151   4.538   4.161   5.342  1.3164  1.3111 -1.0874
 8220TIP3    H246152   4.556   4.014   5.374 -2.4959  1.0054  0.2847
 8221TIP3   OH246153   0.965   5.220  11.725 -0.0257 -0.3540  0.3503
 8221TIP3    H146154   1.056   5.246  11.706  0.6405 -0.8049  2.6184
 8221TIP3    H246155   0.922   5.302  11.751 -0.2031 -0.1960 -0.4108
 8222TIP3   OH246156   1.948   2.645   2.657  0.0057 -0.4013  0.4682
 8222TIP3    H146157   1.949   2.708   2.730  0.8375  0.7365 -0.4887
 8222TIP3    H246158   2.033   2.601   2.662  0.9470  1.1267 -0.9746
 8223TIP3   OH246159   0.089   0.499   1.606 -0.0422  0.3537 -0.0253
 8223TIP3    H146160   0.075   0.567   1.540 -2.4784 -0.1277 -0.1000
 8223TIP3    H246161   0.155   0.442   1.567  0.2187  1.3071 -1.0464
 8224TIP3   OH246162   1.025   5.760   0.974  0.4775  0.0220 -0.0107
 8224TIP3    H146163   0.981   5.845   0.984  3.9015  1.9070  0.6047
 8224TIP3    H246164   1.054   5.737   1.062  0.1633 -1.4968 -0.2796
 8225TIP3   OH246165   2.505   1.682   0.476  0.3752  0.0881  0.2597
 8225TIP3    H146166   2.453   1.699   0.398  1.5718  2.4487 -0.0945
 8225TIP3    H246167   2.586   1.644   0.443  0.7339  0.7441  0.3819
 8226TIP3   OH246168   4.326   3.862   5.702  0.1661 -0.0811 -0.5856
 8226TIP3    H146169   4.417   3.893   5.698  0.5330 -0.5979  1.9904
 8226TIP3    H246170   4.334   3.770   5.728 -1.1009 -0.0475 -0.0130
 8227TIP3   OH246171   2.136   6.633  15.654 -0.2078 -0.0133  1.0549
 8227TIP3    H146172   2.159   6.718  15.617 -0.6814 -0.2961  0.0815
 8227TIP3    H246173   2.048   6.614  15.619  0.6219 -1.7177 -0.2339
 8228TIP3   OH246174   4.086   4.736  11.925  0.3300 -0.3672  0.2407
 8228TIP3    H146175   4.131   4.781  11.853 -0.0819  0.6609  0.6048
 8228TIP3    H246176   4.001   4.780  11.931 -0.4881 -1.8585 -0.0183
 8229TIP3   OH246177   1.815   2.608   6.498  0.5003  0.1610 -0.0046
 8229TIP3    H146178   1.733   2.656   6.485 -0.7658 -1.8888 -0.0337
 8229TIP3    H246179   1.883   2.676   6.500 -1.2101  1.9446  0.2897
 8230TIP3   OH246180   0.689   3.529  15.443 -0.1073 -0.2385 -0.0345
 8230TIP3    H146181   0.624   3.551  15.376  0.5135 -1.6840 -1.1800
 8230TIP3    H246182   0.724   3.613  15.472 -1.2577  0.4717 -0.6547
 8231TIP3   OH246183   5.068   6.713  12.992  0.5117 -0.0281 -0.0649
 8231TIP3    H146184   4.997   6.724  12.929  1.6751 -1.3230 -1.6957
 8231TIP3    H246185   5.121   6.792  12.983  0.8027 -0.3073 -0.9423
 8232TIP3   OH246186   0.675   1.682   3.762  1.2021 -0.0898 -0.3977
 8232TIP3    H146187   0.709   1.695   3.851  0.8321 -0.7142 -0.1614
 8232TIP3    H246188   0.645   1.591   3.761  0.9868 -0.0140 -1.0907
 8233TIP3   OH246189   3.578   5.034   2.408 -0.0901 -0.3210 -0.5941
 8233TIP3    H146190   3.614   4.947   2.422  1.0063  0.2704  0.4171
 8233TIP3    H246191   3.540   5.058   2.493  0.4741  0.5648 -0.5838
 8234TIP3   OH246192   4.640   1.069   5.958 -0.0075  0.0873  0.1098
 8234TIP3    H146193   4.596   1.099   6.038  0.8651  0.3417  0.5118
 8234TIP3    H246194   4.570   1.058   5.895 -0.7812 -0.6575  1.0736
 8235TIP3   OH246195   4.094   0.252   4.055  0.3135 -0.1002  0.3059
 8235TIP3    H146196   4.101   0.308   4.133 -0.3218 -0.7023  0.8088
 8235TIP3    H246197   4.174   0.200   4.055  0.6240  0.3753  0.1787
 8236TIP3   OH246198   6.315   6.596   1.360 -0.3029  0.5711 -0.0543
 8236TIP3    H146199   6.351   6.543   1.289 -1.5219 -2.6585  1.5415
 8236TIP3    H246200   6.388   6.652   1.387  1.7914 -1.7056 -0.6008
 8237TIP3   OH246201   0.443   5.420  15.770 -0.3201 -0.4492 -0.2533
 8237TIP3    H146202   0.388   5.433  15.693 -1.4403  0.6267  0.7066
 8237TIP3    H246203   0.396   5.463  15.841  0.3869 -1.9676  1.1801
 8238TIP3   OH246204   5.664   0.707   5.977  0.0482 -0.6563 -0.5707
 8238TIP3    H146205   5.755   0.731   5.959 -0.1875 -1.0038 -2.3749
 8238TIP3    H246206   5.667   0.613   5.992 -0.1967 -0.9662 -2.2652
 8239TIP3   OH246207   1.433   1.290  12.188 -0.4742 -0.5436  0.0972
 8239TIP3    H146208   1.348   1.331  12.173  0.1889  0.2792 -1.8223
 8239TIP3    H246209   1.466   1.330  12.269 -1.2021  0.3697 -0.0443
 8240TIP3   OH246210   6.629   4.539   2.522 -0.1584  0.3078  0.0315
 8240TIP3    H146211   6.534   4.532   2.514 -0.1015  0.2620 -0.6618
 8240TIP3    H246212   6.643   4.615   2.579 -0.6099  0.3532  0.0812
 8241TIP3   OH246213   0.454   4.457  16.516 -0.3103  0.6453  0.2342
 8241TIP3    H146214   0.418   4.478  16.602  1.2572 -1.6833  1.5764
 8241TIP3    H246215   0.549   4.469  16.526  0.2365 -2.4853 -0.1586
 8242TIP3   OH246216   5.467   0.961  13.789 -0.0150  0.3746  0.0606
 8242TIP3    H146217   5.543   0.968  13.847 -0.2152 -1.1599  0.5749
 8242TIP3    H246218   5.505   0.954  13.702  0.5850 -1.9748  0.4396
 8243TIP3   OH246219   0.299   3.060   6.008 -0.1323 -0.0690  0.1988
 8243TIP3    H146220   0.235   3.132   6.005  1.1060  1.2714  2.6186
 8243TIP3    H246221   0.382   3.100   5.982  0.2590 -1.0806 -0.1445
 8244TIP3   OH246222   6.459   5.367   5.808  0.0610  0.8363  0.2713
 8244TIP3    H146223   6.530   5.361   5.744  0.4765 -2.0886  0.8525
 8244TIP3    H246224   6.503   5.377   5.892 -0.3018  0.7268  0.4733
 8245TIP3   OH246225   3.804   0.398   2.795  0.4827 -0.1216  0.0758
 8245TIP3    H146226   3.802   0.307   2.825  0.1507  0.4577  1.8853
 8245TIP3    H246227   3.873   0.440   2.847  0.4901  0.7280 -0.5856
 8246TIP3   OH246228   1.659   3.749   5.898  0.4920 -0.1366  0.2220
 8246TIP3    H146229   1.620   3.825   5.942 -0.3329  0.1173 -0.9021
 8246TIP3    H246230   1.742   3.736   5.943 -0.4911 -0.1614  2.1110
 8247TIP3   OH246231   4.317   0.388  11.850 -0.6012 -0.9468  0.9265
 8247TIP3    H146232   4.328   0.379  11.945  2.6182  1.4079  0.9277
 8247TIP3    H246233   4.279   0.474  11.838 -2.1604 -1.7209  0.0484
 8248TIP3   OH246234   2.692   3.189   5.909 -0.1220 -0.2871 -0.3398
 8248TIP3    H146235   2.697   3.282   5.931  0.8501 -0.7195  1.4531
 8248TIP3    H246236   2.599   3.166   5.920  0.1584 -0.2714  2.7281
 8249TIP3   OH246237   6.435   0.940   3.803  0.0973 -0.0386  0.2426
 8249TIP3    H146238   6.397   0.962   3.718 -1.0940 -0.0014  0.7651
 8249TIP3    H246239   6.517   0.989   3.806 -0.4598  0.9636 -0.3621
 8250TIP3   OH246240   2.936   0.961   0.034  0.0874  0.0650 -0.2052
 8250TIP3    H146241   2.865   0.920   0.082  0.9593  1.4757  2.4702
 8250TIP3    H246242   2.927   0.928  -0.055 -3.4951 -0.2938  0.1556
 8251TIP3   OH246243   4.606   1.352   2.015  0.1852 -0.1503  0.1924
 8251TIP3    H146244   4.578   1.440   1.990  0.1164 -0.3134 -0.3102
 8251TIP3    H246245   4.526   1.309   2.048 -0.5985 -1.1713 -2.7711
 8252TIP3   OH246246   5.815   1.217   4.523 -0.4351 -0.3616 -0.2920
 8252TIP3    H146247   5.787   1.133   4.559  1.1743 -0.3457  1.0928
 8252TIP3    H246248   5.733   1.261   4.500 -1.4124 -1.4393  0.9492
 8253TIP3   OH246249   2.065   2.820   2.442 -0.3088  0.5537  0.1039
 8253TIP3    H146250   2.030   2.760   2.509  1.7475 -0.7068  0.1239
 8253TIP3    H246251   2.056   2.772   2.360 -0.7623  1.1924 -0.2305
 8254TIP3   OH246252   6.543   0.352  12.697 -0.1941 -0.3252 -0.4150
 8254TIP3    H146253   6.454   0.337  12.729  0.1117  0.2947  0.8023
 8254TIP3    H246254   6.599   0.310  12.763  0.4526  0.6511 -0.3170
 8255TIP3   OH246255   3.273   3.932  15.319  0.1667 -0.3940  0.4760
 8255TIP3    H146256   3.183   3.960  15.338  0.9132  2.3578  0.3879
 8255TIP3    H246257   3.264   3.840  15.293 -2.8361  0.1953 -1.0959
 8256TIP3   OH246258   6.122   6.385  13.655  0.0640 -0.2675 -0.2084
 8256TIP3    H146259   6.064   6.437  13.711 -0.2424 -1.5340  0.6848
 8256TIP3    H246260   6.081   6.389  13.569 -1.1156 -0.7446  0.3036
 8257TIP3   OH246261   4.401   1.401  12.927  0.3108 -0.6632 -0.0672
 8257TIP3    H146262   4.458   1.458  12.979 -0.7987  0.8785 -0.4704
 8257TIP3    H246263   4.439   1.314  12.937  0.7123 -0.2828  2.5263
 8258TIP3   OH246264   5.836   0.945  13.764  0.1422  0.5043 -0.5447
 8258TIP3    H146265   5.780   1.019  13.787 -0.5516 -0.1224 -0.1709
 8258TIP3    H246266   5.793   0.905  13.688  0.3739  0.3375 -0.5911
 8259TIP3   OH246267   2.162   6.505  13.113 -0.0884  0.4170 -0.0378
 8259TIP3    H146268   2.180   6.419  13.075 -2.2906  0.8769 -2.4367
 8259TIP3    H246269   2.136   6.487  13.203 -0.6118 -1.4814 -0.5282
 8260TIP3   OH246270   6.431   4.915   0.312 -0.0374 -0.5792  0.3385
 8260TIP3    H146271   6.462   4.934   0.401 -0.6777  1.0116  0.2705
 8260TIP3    H246272   6.498   4.953   0.255  1.5162 -3.5115  0.0294
 8261TIP3   OH246273   3.616   4.104  11.879  0.6494  0.2346 -0.0004
 8261TIP3    H146274   3.702   4.127  11.913  0.0597  1.9603  0.4509
 8261TIP3    H246275   3.598   4.170  11.813 -1.3363  1.4848  1.6624
 8262TIP3   OH246276   6.526   0.148   2.986  0.3641  0.3384 -0.2819
 8262TIP3    H146277   6.540   0.186   2.899 -1.0555 -1.5746 -1.4122
 8262TIP3    H246278   6.514   0.054   2.971  0.6447 -0.1519  2.0568
 8263TIP3   OH246279   5.146   5.666   4.027  0.2739 -0.1566 -0.0780
 8263TIP3    H146280   5.229   5.666   3.980  1.1497  0.3974  1.4142
 8263TIP3    H246281   5.138   5.577   4.062  0.4631 -0.0705  0.1796
 8264TIP3   OH246282   4.376   0.283   2.158 -0.3569  0.9184 -0.2689
 8264TIP3    H146283   4.370   0.189   2.174  1.3130  0.7767 -0.2987
 8264TIP3    H246284   4.377   0.292   2.063 -0.8493  1.0096 -0.2705
 8265TIP3   OH246285   3.883   1.275  16.067 -0.2766 -0.2768  0.1058
 8265TIP3    H146286   3.960   1.245  16.115 -0.8521 -0.2312  1.0769
 8265TIP3    H246287   3.813   1.277  16.132 -0.7544  1.1518 -0.3983
 8266TIP3   OH246288   2.827   2.737   0.982  0.1010  0.1429  0.5545
 8266TIP3    H146289   2.800   2.784   1.061 -0.4923 -1.7295  1.5373
 8266TIP3    H246290   2.763   2.763   0.916  0.5539  1.6674  0.6800
 8267TIP3   OH246291   1.661   6.356  13.610 -0.0119  0.1389 -0.0129
 8267TIP3    H146292   1.657   6.422  13.541 -0.6525  0.4286  0.2872
 8267TIP3    H246293   1.569   6.333  13.627  0.0967  0.4577  1.1029
 8268TIP3   OH246294   4.967   6.519   6.228  0.1776  0.4188  0.9897
 8268TIP3    H146295   5.042   6.579   6.222  1.3395 -0.9828  0.8101
 8268TIP3    H246296   4.921   6.529   6.145  1.5483 -0.3810  0.0891
 8269TIP3   OH246297   2.238   2.909   5.551  0.6751 -0.0290 -0.6215
 8269TIP3    H146298   2.179   2.978   5.523 -0.6972 -0.6136  0.7132
 8269TIP3    H246299   2.252   2.856   5.472 -1.3514 -0.4114 -0.7644
 8270TIP3   OH246300   2.747   3.445  14.016 -0.3990  0.1226  0.9128
 8270TIP3    H146301   2.660   3.433  13.979 -0.5362 -2.2768  1.8782
 8270TIP3    H246302   2.732   3.498  14.095 -0.9062  0.2105  0.7592
 8271TIP3   OH246303   5.286   3.978  13.022  0.0168  0.7193 -0.3581
 8271TIP3    H146304   5.368   3.971  13.070  0.3591  1.5472 -0.7859
 8271TIP3    H246305   5.305   3.943  12.935 -0.4366 -0.2377 -0.0820
 8272TIP3   OH246306   4.270   2.855  13.495 -0.0955 -0.0501 -0.2732
 8272TIP3    H146307   4.190   2.822  13.454  0.0506  0.6447 -1.1641
 8272TIP3    H246308   4.314   2.904  13.425  1.8240 -1.5870 -0.2116
 8273TIP3   OH246309   4.774   6.210  10.450 -0.3252 -0.6771 -0.0941
 8273TIP3    H146310   4.840   6.248  10.508 -0.2236  0.5336 -0.9619
 8273TIP3    H246311   4.698   6.266  10.460 -0.0906 -0.0377 -1.5856
 8274TIP3   OH246312   2.836   5.073   1.598 -0.2723  0.2655 -0.8744
 8274TIP3    H146313   2.898   5.052   1.668  0.0341  0.5695 -1.0522
 8274TIP3    H246314   2.871   5.028   1.521 -0.7592 -0.2990 -0.7744
 8275TIP3   OH246315   2.882   5.388   2.715 -0.4328 -0.1200  0.4771
 8275TIP3    H146316   2.924   5.322   2.770  0.9337 -1.2934 -1.8312
 8275TIP3    H246317   2.791   5.391   2.746 -0.1939 -2.1053  1.5327
 8276TIP3   OH246318   4.437   6.478  14.948  0.1309 -0.0250  0.8010
 8276TIP3    H146319   4.347   6.476  14.917  0.3444 -0.2103  0.1561
 8276TIP3    H246320   4.476   6.398  14.912  1.3534  1.4899 -1.5259
 8277TIP3   OH246321   1.138   2.914   1.795  0.2017 -0.6602  0.0084
 8277TIP3    H146322   1.188   2.923   1.714 -1.2458 -0.5037 -0.8878
 8277TIP3    H246323   1.104   2.824   1.792 -1.8009  0.0630 -0.7518
 8278TIP3   OH246324   1.686   0.878   4.393  0.2611  0.1263 -0.0885
 8278TIP3    H146325   1.775   0.908   4.408  0.8718 -1.0478 -1.1056
 8278TIP3    H246326   1.673   0.809   4.458 -0.8323  1.9083  1.6879
 8279TIP3   OH246327   6.748   4.057  11.172 -0.2161  0.2294  0.4412
 8279TIP3    H146328   6.713   3.983  11.221  0.4578 -0.1782  0.3179
 8279TIP3    H246329   6.708   4.051  11.086 -1.4810  1.0011  0.9345
 8280TIP3   OH246330   2.224   4.121  14.961  0.1007  0.0706 -0.2733
 8280TIP3    H146331   2.224   4.084  15.050  0.6485  1.5496  0.3859
 8280TIP3    H246332   2.183   4.207  14.971 -0.0019  0.1795 -1.5011
 8281TIP3   OH246333   5.582   4.238   4.056 -0.9404  0.7552  0.9649
 8281TIP3    H146334   5.659   4.187   4.030 -0.3569  1.1371  1.8986
 8281TIP3    H246335   5.617   4.325   4.077 -1.7416  1.1664  0.6358
 8282TIP3   OH246336   2.469   3.176  15.766  0.0329 -0.2656 -0.0842
 8282TIP3    H146337   2.447   3.268  15.758 -1.0976 -0.6628 -2.2339
 8282TIP3    H246338   2.551   3.175  15.816 -0.5705  1.7787  1.0634
 8283TIP3   OH246339   2.551   6.192  11.648 -0.0574  0.5762 -0.1459
 8283TIP3    H146340   2.504   6.242  11.714 -0.1825  0.0757  0.1505
 8283TIP3    H246341   2.519   6.102  11.658  1.7448 -0.0184  0.8347
 8284TIP3   OH246342   0.710   0.409  11.560 -0.5103 -0.6519  0.1790
 8284TIP3    H146343   0.768   0.352  11.611 -1.7324 -2.2783 -0.1652
 8284TIP3    H246344   0.701   0.488  11.613  0.5677 -1.1072  1.0824
 8285TIP3   OH246345   0.295   2.462  14.023  0.0093  0.1532 -0.1332
 8285TIP3    H146346   0.244   2.383  14.040  0.8112 -0.2667  0.3800
 8285TIP3    H246347   0.373   2.453  14.078  0.7666  0.6544 -1.0819
 8286TIP3   OH246348   1.195   4.770   5.142 -0.0803  0.6279 -0.4005
 8286TIP3    H146349   1.115   4.809   5.106 -1.1750 -0.0637  1.2186
 8286TIP3    H246350   1.202   4.685   5.099 -0.8752  0.1925  0.3219
 8287TIP3   OH246351   2.586   2.564  13.508 -0.2282 -0.7475 -0.6785
 8287TIP3    H146352   2.610   2.490  13.564 -1.2282 -0.2886  0.3881
 8287TIP3    H246353   2.657   2.568  13.443  0.2786 -2.1054 -0.2508
 8288TIP3   OH246354   0.811   3.100   1.795  1.0878  0.6142  0.2237
 8288TIP3    H146355   0.878   3.109   1.727  2.1952  1.9845  1.3923
 8288TIP3    H246356   0.757   3.179   1.786  1.3687  0.9122  1.0081
 8289TIP3   OH246357   6.069   4.249   2.613 -0.5831  0.2229  0.1019
 8289TIP3    H146358   6.058   4.343   2.597 -1.5093  0.4424  1.8111
 8289TIP3    H246359   6.139   4.223   2.553 -1.9667  1.4549 -2.2319
 8290TIP3   OH246360   0.197   5.846   3.722 -0.8493 -0.4348  0.1151
 8290TIP3    H146361   0.261   5.842   3.651 -0.4976 -0.0988  0.4113
 8290TIP3    H246362   0.154   5.760   3.720 -0.1260 -0.8072  0.1559
 8291TIP3   OH246363   0.248   6.852  14.281 -0.7072 -0.5365 -0.1897
 8291TIP3    H146364   0.293   6.851  14.196 -0.5431 -0.3944 -0.1041
 8291TIP3    H246365   0.181   6.784  14.273  1.8761 -3.4180  0.9627
 8292TIP3   OH246366   0.370   4.591  12.430  0.5376 -0.4382  0.0165
 8292TIP3    H146367   0.414   4.574  12.347  0.4712  1.8310 -0.5600
 8292TIP3    H246368   0.278   4.569  12.414  0.7830 -1.4479 -0.0209
 8293TIP3   OH246369   1.493   5.260  14.399  0.3035 -0.4815  0.0688
 8293TIP3    H146370   1.558   5.286  14.465 -0.0775  1.0388 -0.1402
 8293TIP3    H246371   1.491   5.333  14.337 -1.5496 -0.5437  0.0251
 8294TIP3   OH246372   0.563   4.189   5.308 -0.7241 -0.1691 -0.4695
 8294TIP3    H146373   0.563   4.227   5.396  1.8982  0.6395 -0.7391
 8294TIP3    H246374   0.636   4.231   5.263 -0.5460 -2.2316 -2.2959
 8295TIP3   OH246375   5.840   1.117   3.850 -0.1523 -0.3008 -0.2151
 8295TIP3    H146376   5.799   1.140   3.933 -1.7642  1.1980 -1.3416
 8295TIP3    H246377   5.884   1.197   3.822 -1.2243 -0.1788 -1.6569
 8296TIP3   OH246378   3.203   4.927  14.047 -0.3114  0.3886  0.1825
 8296TIP3    H146379   3.258   4.920  14.125 -0.3661  0.9936  0.2849
 8296TIP3    H246380   3.265   4.926  13.974 -0.2415  0.0826  0.2458
 8297TIP3   OH246381   5.351   5.535   3.157  0.1586  0.1953 -0.8801
 8297TIP3    H146382   5.368   5.447   3.191  0.2617  0.5810  0.0992
 8297TIP3    H246383   5.256   5.539   3.146 -0.2558  0.9882  2.1256
 8298TIP3   OH246384   0.825   1.724  11.256  0.4310 -0.0640  0.1583
 8298TIP3    H146385   0.807   1.672  11.178  1.3851 -0.7810  0.3910
 8298TIP3    H246386   0.791   1.671  11.329 -0.6312  0.6880  0.2340
 8299TIP3   OH246387   0.091   2.677  15.535  0.0170 -0.1470  0.0673
 8299TIP3    H146388   0.081   2.658  15.441  0.4671  0.2238 -0.0556
 8299TIP3    H246389   0.112   2.592  15.574 -2.8151 -0.8871  0.2457
 8300TIP3   OH246390   2.255   5.996   6.035 -0.3460 -0.2551 -0.3830
 8300TIP3    H146391   2.252   6.077   5.984  2.6147  0.0165 -0.2974
 8300TIP3    H246392   2.238   5.926   5.971 -2.0160  0.3318 -0.6277
 8301TIP3   OH246393   6.405   1.194  15.516 -0.1017  0.2457  0.0012
 8301TIP3    H146394   6.479   1.136  15.497 -0.3941 -0.4262  0.8673
 8301TIP3    H246395   6.441   1.282  15.505  0.2921 -0.0859 -1.5295
 8302TIP3   OH246396   3.446   0.009   2.910 -1.1006  0.1365 -0.3501
 8302TIP3    H146397   3.385   0.024   2.982  0.2208 -1.6432  1.2353
 8302TIP3    H246398   3.507   0.083   2.914 -1.9161  0.8367 -0.6368
 8303TIP3   OH246399   3.117   6.529  15.062 -0.2416 -0.3407 -0.7502
 8303TIP3    H146400   3.187   6.588  15.090 -1.4087 -0.2442  2.3861
 8303TIP3    H246401   3.092   6.560  14.975 -0.9679  4.0709  0.7668
 8304TIP3   OH246402   2.569   2.317  14.119 -0.4842 -0.4083  0.6691
 8304TIP3    H146403   2.553   2.269  14.037  2.1441  1.7548 -1.2691
 8304TIP3    H246404   2.575   2.248  14.185 -3.7547 -2.1815 -0.6272
 8305TIP3   OH246405   5.887   5.514  14.156 -0.3116 -0.1995 -0.0887
 8305TIP3    H146406   5.866   5.537  14.246 -0.4303  1.6380 -0.5537
 8305TIP3    H246407   5.868   5.593  14.105 -0.2267 -1.1781 -1.7335
 8306TIP3   OH246408   1.207   2.184   6.254 -0.5676  0.3537  0.5063
 8306TIP3    H146409   1.152   2.106   6.262  0.2930 -0.2083  1.1813
 8306TIP3    H246410   1.293   2.156   6.285 -0.0657  1.3931  0.1105
 8307TIP3   OH246411   2.156   2.079   5.658 -0.4112  0.2103 -0.3256
 8307TIP3    H146412   2.251   2.071   5.662 -0.5164 -1.0312  2.1961
 8307TIP3    H246413   2.129   2.080   5.750 -2.8055  1.0961 -0.9772
 8308TIP3   OH246414   0.806   6.219   2.455 -0.1566  0.1483 -0.3416
 8308TIP3    H146415   0.888   6.181   2.425 -0.2423 -0.2133 -0.1234
 8308TIP3    H246416   0.783   6.169   2.533 -1.4897 -0.9512 -1.3883
 8309TIP3   OH246417   5.179   3.214   3.539  0.1045  0.5336  0.0778
 8309TIP3    H146418   5.184   3.119   3.525 -0.2001  0.2688  1.5505
 8309TIP3    H246419   5.270   3.241   3.550  0.1028  0.0648  1.5100
 8310TIP3   OH246420   1.256   4.310  14.001 -0.1544  0.5362  0.2034
 8310TIP3    H146421   1.336   4.364  14.001 -1.2964  2.3134  0.7989
 8310TIP3    H246422   1.191   4.365  13.958 -1.2981 -0.5166  0.5534
 8311TIP3   OH246423   1.116   4.250   3.303 -0.0387 -0.3370 -0.0509
 8311TIP3    H146424   1.050   4.204   3.354 -1.4758  1.4806 -0.1528
 8311TIP3    H246425   1.074   4.265   3.218  0.1454  1.5851  0.1621
 8312TIP3   OH246426   4.320   1.576  11.080  1.1100  0.0889 -0.1091
 8312TIP3    H146427   4.250   1.587  11.145 -0.4847  2.5608 -2.0532
 8312TIP3    H246428   4.303   1.490  11.042  1.0202 -0.6505  1.4927
 8313TIP3   OH246429   3.009   1.867   1.386 -0.0884  0.0580 -0.0145
 8313TIP3    H146430   2.930   1.894   1.339  0.5179  0.0527 -1.0848
 8313TIP3    H246431   3.075   1.932   1.361  0.4633 -0.4194  0.1765
 8314TIP3   OH246432   6.127   2.269   1.908  0.2087  0.1946 -0.4339
 8314TIP3    H146433   6.190   2.246   1.976  0.1961  0.9839 -0.1462
 8314TIP3    H246434   6.157   2.221   1.830  0.2812 -0.6301  0.0878
 8315TIP3   OH246435   1.777   3.920  15.161  0.3709  0.2824  0.1993
 8315TIP3    H146436   1.808   3.922  15.252 -0.4348  0.4470  0.4796
 8315TIP3    H246437   1.831   3.853  15.119 -0.5046 -1.1856  1.2947
 8316TIP3   OH246438   4.820   3.190  14.351 -0.0148  0.0273  0.3885
 8316TIP3    H146439   4.809   3.231  14.265  0.3959 -0.5796  0.0376
 8316TIP3    H246440   4.872   3.252  14.402 -1.0800  0.8288  0.5307
 8317TIP3   OH246441   1.703   0.689  14.708  0.1682 -0.0925  0.0767
 8317TIP3    H146442   1.693   0.697  14.803  2.7534  0.9354  0.3315
 8317TIP3    H246443   1.760   0.614  14.695  0.1804  0.0351 -0.6550
 8318TIP3   OH246444   2.684   1.355  14.349  0.2524 -0.2069 -0.4254
 8318TIP3    H146445   2.704   1.428  14.292 -0.5984  2.5246  2.4996
 8318TIP3    H246446   2.588   1.356  14.356 -0.1149 -3.5451 -2.4890
 8319TIP3   OH246447   0.106   2.292  11.793  0.4813  0.4368 -0.1027
 8319TIP3    H146448   0.047   2.354  11.836 -0.4341 -1.0410  0.8236
 8319TIP3    H246449   0.187   2.342  11.781 -0.8104  2.4414 -1.1932
 8320TIP3   OH246450   5.593   3.907   5.455  0.0262 -0.2438  0.2038
 8320TIP3    H146451   5.555   3.930   5.539  0.1561 -1.6937  0.6896
 8320TIP3    H246452   5.665   3.847   5.476 -1.0022 -2.0056 -0.9821
 8321TIP3   OH246453   6.669   3.301   5.417 -0.0071  0.0821  0.1238
 8321TIP3    H146454   6.630   3.242   5.353 -0.6055  1.1026 -0.4734
 8321TIP3    H246455   6.672   3.250   5.498 -0.9195 -0.6127 -0.2681
 8322TIP3   OH246456   0.783   3.638   2.732  0.0750  0.2587  0.3889
 8322TIP3    H146457   0.878   3.636   2.730  0.0939 -2.1467 -2.3269
 8322TIP3    H246458   0.757   3.670   2.646 -1.6052  0.7516  1.0347
 8323TIP3   OH246459   4.137   3.232  13.527  0.0400  0.2839 -0.8024
 8323TIP3    H146460   4.198   3.273  13.465  0.2170  0.8766 -0.2425
 8323TIP3    H246461   4.193   3.204  13.600 -0.3981  1.1526 -0.1194
 8324TIP3   OH246462   1.992   6.072   3.551 -0.1862  0.0755 -0.4473
 8324TIP3    H146463   1.994   5.976   3.552 -0.0403  0.0734  0.8239
 8324TIP3    H246464   1.899   6.094   3.561  0.0622  0.0013  3.6925
 8325TIP3   OH246465   4.742   6.391  16.702 -0.3266 -0.1256 -0.1190
 8325TIP3    H146466   4.766   6.481  16.681 -1.4214  0.5374  1.2527
 8325TIP3    H246467   4.653   6.382  16.670  0.0870 -1.0294 -1.0447
 8326TIP3   OH246468   3.272   4.081  13.753  0.0991  0.1528  0.3629
 8326TIP3    H146469   3.264   3.998  13.800 -0.5544 -0.1764 -0.3094
 8326TIP3    H246470   3.332   4.062  13.680 -1.2628 -0.1738 -0.7141
 8327TIP3   OH246471   3.406   0.794  14.490 -0.1378  0.3371  0.2977
 8327TIP3    H146472   3.367   0.754  14.412 -0.5936  3.6595 -1.3822
 8327TIP3    H246473   3.384   0.735  14.561 -1.8608 -1.6466 -1.7314
 8328TIP3   OH246474   0.359   0.292   3.183  0.7152  0.0375 -0.2801
 8328TIP3    H146475   0.308   0.359   3.229  2.1170  1.9972 -1.4113
 8328TIP3    H246476   0.397   0.238   3.253 -2.8073 -1.5794  0.6102
 8329TIP3   OH246477   0.425   1.035   3.896  0.0645  0.0286  0.2844
 8329TIP3    H146478   0.427   1.032   3.992 -0.5268  0.3889  0.3135
 8329TIP3    H246479   0.513   1.063   3.871  0.8886 -2.1156  0.6180
 8330TIP3   OH246480   0.740   2.736  12.402 -0.2361  0.0892 -0.1859
 8330TIP3    H146481   0.796   2.744  12.324  0.2969 -0.8519  0.0938
 8330TIP3    H246482   0.670   2.677  12.374 -0.0423 -0.2518  0.0388
 8331TIP3   OH246483   2.000   4.104  16.269  0.2047  0.0916 -0.0034
 8331TIP3    H146484   1.971   4.125  16.181  2.3306  2.9523 -0.1250
 8331TIP3    H246485   2.090   4.074  16.259 -0.0302 -1.0981  1.0938
 8332TIP3   OH246486   2.617   3.015   3.787 -0.3807  0.0185  0.8038
 8332TIP3    H146487   2.681   2.946   3.773 -0.6970  0.1225 -1.7522
 8332TIP3    H246488   2.659   3.095   3.755 -1.3225  0.3099  0.2248
 8333TIP3   OH246489   0.073   3.469  13.090  0.1035 -0.4334  0.4957
 8333TIP3    H146490   0.104   3.458  13.180  2.2287  1.7384  0.1187
 8333TIP3    H246491   0.140   3.428  13.036  0.1555  0.5294 -0.1876
 8334TIP3   OH246492   2.195   0.796   4.805  0.0118 -0.2555  0.3715
 8334TIP3    H146493   2.247   0.722   4.774 -0.3678  0.2148 -1.5270
 8334TIP3    H246494   2.176   0.775   4.896  0.1616 -2.3534 -0.0180
 8335TIP3   OH246495   2.877   4.247  11.783 -0.2526  0.1290 -0.5869
 8335TIP3    H146496   2.890   4.342  11.775 -0.1709  0.1920  0.2324
 8335TIP3    H246497   2.908   4.226  11.871  0.0624 -0.7192 -0.8876
 8336TIP3   OH246498   1.189   2.889   4.084  0.0489  0.0612 -0.4631
 8336TIP3    H146499   1.264   2.854   4.034  1.0547  0.4610  0.7074
 8336TIP3    H246500   1.203   2.857   4.173 -1.4279 -0.2024 -0.3073
 8337TIP3   OH246501   1.057   0.646  13.708  0.4731 -0.1579 -1.4439
 8337TIP3    H146502   0.989   0.599  13.658 -1.6160  0.3741  0.7135
 8337TIP3    H246503   1.072   0.591  13.784 -0.0410  1.3126 -0.2279
 8338TIP3   OH246504   4.863   2.538   5.087 -0.1296 -0.0260 -0.4438
 8338TIP3    H146505   4.891   2.550   4.996 -0.5966  0.2504 -0.5565
 8338TIP3    H246506   4.810   2.459   5.086  0.7100 -0.6019 -0.2125
 8339TIP3   OH246507   1.597   2.812  14.704 -0.0011 -1.2881  0.2293
 8339TIP3    H146508   1.509   2.836  14.674  1.0180  1.1402 -1.0780
 8339TIP3    H246509   1.627   2.746  14.640  0.1974  0.0636 -1.1325
 8340TIP3   OH246510   3.787   2.515   0.434  0.4462 -1.3004 -0.5361
 8340TIP3    H146511   3.701   2.556   0.441  0.8983 -0.4334  0.1813
 8340TIP3    H246512   3.842   2.581   0.391  1.2389 -1.0143  0.8420
 8341TIP3   OH246513   4.676   0.914  16.225  0.6179  0.0950  0.4604
 8341TIP3    H146514   4.756   0.912  16.276  1.8382 -1.5013 -1.3737
 8341TIP3    H246515   4.682   0.837  16.168 -2.4730 -0.4050  0.6207
 8342TIP3   OH246516   0.876   4.607  14.385 -0.1949  0.6624  0.6166
 8342TIP3    H146517   0.899   4.700  14.391  1.0548  0.3944  0.2087
 8342TIP3    H246518   0.940   4.570  14.324 -0.6178 -0.4879  0.8416
 8343TIP3   OH246519   4.659   6.802   0.445 -0.5170  0.3052  0.6246
 8343TIP3    H146520   4.636   6.813   0.537  0.6488  0.3883  0.9266
 8343TIP3    H246521   4.592   6.743   0.410 -0.7362 -0.0690  1.6311
 8344TIP3   OH246522   4.202   1.706   1.589  0.4363  0.7962 -0.4185
 8344TIP3    H146523   4.170   1.628   1.635  1.8147  1.0688  1.1000
 8344TIP3    H246524   4.156   1.779   1.630 -1.2205  0.8004 -2.1709
 8345TIP3   OH246525   1.416   5.136   0.213  0.0813  0.1425  0.1620
 8345TIP3    H146526   1.362   5.071   0.169 -1.0454 -0.6273  2.5269
 8345TIP3    H246527   1.450   5.091   0.290  2.2989  1.3061 -0.0432
 8346TIP3   OH246528   4.105   5.831   6.049  0.0881  0.3827  0.1533
 8346TIP3    H146529   4.045   5.814   6.122  0.1448  1.3630  0.4505
 8346TIP3    H246530   4.186   5.788   6.075 -0.3111 -0.4798  0.0027
 8347TIP3   OH246531   0.058   3.799   5.613 -0.5153 -0.1905 -0.2617
 8347TIP3    H146532   0.028   3.874   5.664 -0.8007 -1.3936  1.4418
 8347TIP3    H246533   0.098   3.741   5.678 -1.2282 -1.9748 -1.3431
 8348TIP3   OH246534   5.296   5.951  11.302 -0.6443  0.0697  0.0039
 8348TIP3    H146535   5.276   5.954  11.395 -0.7866  0.5147 -0.0374
 8348TIP3    H246536   5.211   5.956  11.259 -0.4760  2.5001 -0.1798
 8349TIP3   OH246537   6.426   6.016   3.746  0.0143 -0.3027  0.0796
 8349TIP3    H146538   6.419   5.999   3.840 -1.5380 -2.9220 -0.4065
 8349TIP3    H246539   6.519   6.005   3.727  0.3685  0.3347  1.2873
 8350TIP3   OH246540   2.043   5.189  12.213  0.3646 -0.5072 -0.1829
 8350TIP3    H146541   2.122   5.231  12.248  1.7517 -2.2971 -1.0016
 8350TIP3    H246542   2.040   5.104  12.256 -0.9637 -0.5897 -0.4045
 8351TIP3   OH246543   4.247   2.280   0.075 -0.2261 -0.0268 -0.1592
 8351TIP3    H146544   4.342   2.287   0.067 -0.3701  2.2695 -0.5121
 8351TIP3    H246545   4.231   2.187   0.087  1.9771 -0.6223 -1.2921
 8352TIP3   OH246546   1.912   5.802   0.376 -0.0533 -0.2890 -0.5691
 8352TIP3    H146547   1.844   5.747   0.417 -0.0636  0.7004  0.7919
 8352TIP3    H246548   1.959   5.742   0.318 -1.0304 -1.3796 -0.2783
 8353TIP3   OH246549   4.362   2.729  14.010  0.4029 -0.2278 -0.5159
 8353TIP3    H146550   4.423   2.803  14.013 -0.5654  0.5708  0.3902
 8353TIP3    H246551   4.287   2.758  14.062 -0.7518 -1.1819 -1.5771
 8354TIP3   OH246552   6.107   1.201  16.753  0.4232 -0.4419 -0.1177
 8354TIP3    H146553   6.099   1.234  16.663 -1.7418  1.0926  0.5439
 8354TIP3    H246554   6.098   1.106  16.744 -0.0909 -0.2881 -1.5030
 8355TIP3   OH246555   6.571   5.731  12.919 -0.4389  0.0340 -0.0690
 8355TIP3    H146556   6.552   5.683  12.999 -3.1172  0.6730 -0.2378
 8355TIP3    H246557   6.494   5.716  12.863  1.1287 -0.0005 -2.3513
 8356TIP3   OH246558   1.108   3.694   1.406 -0.4249 -0.3660  0.0004
 8356TIP3    H146559   1.169   3.702   1.480  0.9343 -0.1827 -1.0996
 8356TIP3    H246560   1.097   3.599   1.394  0.5043 -0.4391 -0.4336
 8357TIP3   OH246561   4.954   3.485  14.467  0.1293  0.2024 -0.4380
 8357TIP3    H146562   5.009   3.545  14.516 -2.5369  0.7825  2.1525
 8357TIP3    H246563   4.864   3.514  14.485 -1.1483 -1.8702 -2.7410
 8358TIP3   OH246564   1.961   4.829  16.628 -0.1223 -0.1731  0.2707
 8358TIP3    H146565   1.995   4.913  16.659 -0.7878  0.8400 -1.5326
 8358TIP3    H246566   1.967   4.835  16.532 -0.7634 -1.9309  0.0855
 8359TIP3   OH246567   2.690   3.519  12.322 -0.6311  0.1112 -0.5167
 8359TIP3    H146568   2.629   3.458  12.364 -0.7434  0.4379 -0.2083
 8359TIP3    H246569   2.634   3.573  12.266 -0.7388  0.9341  0.3640
 8360TIP3   OH246570   1.628   2.014   4.357  0.7483  0.4434  0.2352
 8360TIP3    H146571   1.648   1.944   4.295  2.8432  2.1774 -1.1987
 8360TIP3    H246572   1.542   2.047   4.330  1.5414  1.0415 -1.7193
 8361TIP3   OH246573   6.203   5.017   3.046 -0.1125  0.0019 -0.4267
 8361TIP3    H146574   6.237   4.963   3.118 -0.3019  0.9318  0.3878
 8361TIP3    H246575   6.237   4.976   2.967  0.1161 -1.0382  0.1962
 8362TIP3   OH246576   1.675   0.693  13.977  0.3286  0.1454 -0.1378
 8362TIP3    H146577   1.669   0.607  13.936 -0.8295  0.1081  0.0710
 8362TIP3    H246578   1.626   0.684  14.059 -1.0525  1.3654 -0.7734
 8363TIP3   OH246579   3.432   3.646   5.969 -0.2980  0.0687  0.1535
 8363TIP3    H146580   3.450   3.583   6.038 -0.0398 -0.7383 -0.6323
 8363TIP3    H246581   3.484   3.723   5.992  0.8510 -0.6819  0.1559
 8364TIP3   OH246582   4.997   2.482   4.488  0.2993  0.1834  0.1096
 8364TIP3    H146583   4.948   2.402   4.507 -0.6927  0.1272 -2.3522
 8364TIP3    H246584   4.940   2.552   4.519 -1.5624  0.1184 -2.7695
 8365TIP3   OH246585   4.842   1.429  13.305 -0.1670 -0.0639  0.7026
 8365TIP3    H146586   4.842   1.342  13.265 -0.9987  0.4345 -0.4311
 8365TIP3    H246587   4.761   1.470  13.275  1.0252  1.7576 -0.2990
 8366TIP3   OH246588   6.708   3.092  10.910  0.1205 -0.2056  0.5190
 8366TIP3    H146589   6.676   3.031  10.844  2.0618  0.6192 -1.3025
 8366TIP3    H246590   6.630   3.143  10.936 -0.6750 -0.4474 -1.2566
 8367TIP3   OH246591   6.498   3.869  12.690  0.2406 -0.5174  0.3749
 8367TIP3    H146592   6.473   3.818  12.613 -1.5713 -0.3631  0.8055
 8367TIP3    H246593   6.590   3.847  12.705  0.2927 -1.4587 -1.1163
 8368TIP3   OH246594   3.434   3.528  11.575  0.4781 -0.1473 -0.0908
 8368TIP3    H146595   3.376   3.457  11.604 -1.4765  1.5951  0.5060
 8368TIP3    H246596   3.477   3.558  11.655  1.2630 -0.6089 -0.3337
 8369TIP3   OH246597   4.011   4.771  11.297  0.6589 -0.0538  0.4421
 8369TIP3    H146598   4.009   4.731  11.385 -1.7156  0.7472  0.8470
 8369TIP3    H246599   4.042   4.860  11.312  1.6194 -0.3477  0.2341
 8370TIP3   OH246600   2.163   2.696  12.798  0.0296 -0.7997  0.1238
 8370TIP3    H146601   2.129   2.708  12.709  0.6522 -0.9711 -0.1438
 8370TIP3    H246602   2.129   2.611  12.825 -2.6863  0.5250  1.2338
 8371TIP3   OH246603   4.045   2.515  15.815  0.1192  0.3704 -0.2052
 8371TIP3    H146604   4.050   2.509  15.910 -0.1189  2.3662 -0.0356
 8371TIP3    H246605   3.984   2.445  15.791  0.0714 -0.0755  1.1064
 8372TIP3   OH246606   3.606   2.331   5.823 -0.2910 -0.0249 -0.3370
 8372TIP3    H146607   3.679   2.271   5.813  0.9605  1.5892 -1.2127
 8372TIP3    H246608   3.564   2.333   5.737 -0.5983  0.0183 -0.1871
 8373TIP3   OH246609   6.068   5.507  15.411  0.4779 -0.3932 -0.6269
 8373TIP3    H146610   5.993   5.535  15.462  0.1929 -0.3212 -1.0806
 8373TIP3    H246611   6.130   5.580  15.417 -0.4759  0.6048 -2.2525
 8374TIP3   OH246612   2.372   1.059   0.044 -0.2478  0.4458 -0.0358
 8374TIP3    H146613   2.313   1.133   0.033  0.6103  1.8715  3.4153
 8374TIP3    H246614   2.458   1.093   0.017 -0.4345 -0.6226 -2.1209
 8375TIP3   OH246615   2.408   0.084   3.576 -0.4225  0.6739  0.3754
 8375TIP3    H146616   2.333   0.026   3.589 -0.1304 -0.1549 -1.2756
 8375TIP3    H246617   2.400   0.113   3.485  1.8587 -0.4116 -0.2524
 8376TIP3   OH246618   4.977   5.686  16.750 -0.2797 -0.0035 -0.0766
 8376TIP3    H146619   5.044   5.693  16.683  0.5405  2.1268  0.8478
 8376TIP3    H246620   4.897   5.720  16.709  0.4169  2.1202  0.1852
 8377TIP3   OH246621   4.515   4.036  10.887  0.1521  0.7796 -0.0345
 8377TIP3    H146622   4.538   3.999  10.972 -1.2962 -0.6308 -0.1983
 8377TIP3    H246623   4.471   4.119  10.908  0.0851  0.5933  0.5795
 8378TIP3   OH246624   3.604   4.293  16.740 -0.4039  0.3056  0.1336
 8378TIP3    H146625   3.583   4.294  16.646  0.9929 -1.2945 -0.2292
 8378TIP3    H246626   3.696   4.268  16.744 -0.7192 -0.7131  1.9920
 8379TIP3   OH246627   2.803   1.127   4.605 -0.8714  0.3707  0.3604
 8379TIP3    H146628   2.846   1.151   4.687 -0.5141 -1.8708  0.9015
 8379TIP3    H246629   2.739   1.061   4.631 -0.0033 -1.1836 -1.2699
 8380TIP3   OH246630   5.123   3.344   5.063  0.5313 -0.1233  0.0319
 8380TIP3    H146631   5.210   3.325   5.027  1.2197  2.4106  0.2358
 8380TIP3    H246632   5.130   3.324   5.156  0.1517 -2.1228 -0.3182
 8381TIP3   OH246633   3.119   1.274  14.066 -0.4367 -0.0427 -0.2125
 8381TIP3    H146634   3.197   1.222  14.085  0.0688  1.0956  1.0368
 8381TIP3    H246635   3.056   1.249  14.134  0.5410  2.3468  1.7581
 8382TIP3   OH246636   0.821   3.699   3.636  0.3590 -0.2225 -0.3339
 8382TIP3    H146637   0.806   3.791   3.660 -0.9368 -0.8922  1.5827
 8382TIP3    H246638   0.741   3.673   3.590  0.6971 -0.4295 -0.8144
 8383TIP3   OH246639   1.532   3.284   3.854  0.0007  0.0940  0.6156
 8383TIP3    H146640   1.445   3.287   3.816  0.4590  0.1571 -0.4642
 8383TIP3    H246641   1.552   3.375   3.876 -1.5678 -0.2673  4.1735
 8384TIP3   OH246642   5.276   2.457  15.584  0.2055 -0.0501  0.1260
 8384TIP3    H146643   5.207   2.475  15.520  0.3709  4.8129  0.9099
 8384TIP3    H246644   5.357   2.474  15.536  0.6401 -1.2862  0.3932
 8385TIP3   OH246645   4.234   5.581  13.413 -0.2531  0.0529  0.3544
 8385TIP3    H146646   4.320   5.571  13.452  0.3146 -1.2728 -1.1332
 8385TIP3    H246647   4.203   5.492  13.399 -0.4895  0.4443 -2.0117
 8386TIP3   OH246648   6.180   6.430   1.146  0.1161 -0.2726  0.2887
 8386TIP3    H146649   6.092   6.393   1.145  0.3525 -0.8551 -0.7051
 8386TIP3    H246650   6.166   6.525   1.147 -0.4992 -0.3491  2.2433
 8387TIP3   OH246651   2.581   6.311   0.907 -0.1687 -0.9648 -0.9385
 8387TIP3    H146652   2.583   6.301   1.002  0.8983 -3.2732 -1.1562
 8387TIP3    H246653   2.620   6.397   0.891 -1.5711  0.0522  0.7276
 8388TIP3   OH246654   2.668   6.348   2.803  0.2941 -0.0108 -0.4495
 8388TIP3    H146655   2.584   6.364   2.760  0.6989  2.1083 -0.5955
 8388TIP3    H246656   2.649   6.283   2.870 -1.4712  0.3863 -0.5220
 8389TIP3   OH246657   5.493   5.641   5.767  0.0299 -0.6814 -0.6810
 8389TIP3    H146658   5.524   5.611   5.853 -1.0530  1.3928  0.5160
 8389TIP3    H246659   5.399   5.656   5.780  0.1821  1.4160 -1.6647
 8390TIP3   OH246660   4.300   3.893   0.387 -0.2486 -0.0031 -0.5389
 8390TIP3    H146661   4.298   3.874   0.481 -0.8521  1.7918 -0.1664
 8390TIP3    H246662   4.391   3.874   0.361  0.3455  0.9402  0.7401
 8391TIP3   OH246663   0.374   2.976  15.939  0.4172 -0.3187  0.0058
 8391TIP3    H146664   0.343   3.013  15.856 -0.4776 -1.8141 -0.3569
 8391TIP3    H246665   0.456   3.023  15.956  0.8469 -0.2581 -1.9284
 8392TIP3   OH246666   0.537   2.707   1.714 -0.2165  0.0023 -0.0566
 8392TIP3    H146667   0.589   2.668   1.644  0.9913 -1.2801  1.4690
 8392TIP3    H246668   0.599   2.760   1.764  0.7739 -4.0338  3.7106
 8393TIP3   OH246669   5.204   6.277   3.047 -0.0005  0.4878  0.6193
 8393TIP3    H146670   5.297   6.274   3.070  0.2174 -1.1401 -0.2694
 8393TIP3    H246671   5.168   6.348   3.100  2.1694  2.7173 -0.6950
 8394TIP3   OH246672   3.302   4.524  11.770  0.9700 -0.2278 -1.1586
 8394TIP3    H146673   3.313   4.537  11.676  0.8896  0.7741 -1.0381
 8394TIP3    H246674   3.259   4.604  11.801  0.0700 -0.9677 -0.4298
 8395TIP3   OH246675   5.394   3.603  15.286 -0.3673  0.3606 -0.0338
 8395TIP3    H146676   5.459   3.590  15.355  0.5384 -0.2882 -0.9743
 8395TIP3    H246677   5.445   3.602  15.205 -1.6999 -1.7958 -0.9326
 8396TIP3   OH246678   5.354   0.893   1.464  0.3125 -0.5716  0.1872
 8396TIP3    H146679   5.377   0.940   1.544 -1.6083  0.3833  0.2430
 8396TIP3    H246680   5.433   0.846   1.440  0.9388 -0.8961  2.6445
 8397TIP3   OH246681   6.633   5.104  16.773 -0.0242 -0.3307 -0.4672
 8397TIP3    H146682   6.580   5.046  16.828 -1.8198 -0.1887 -1.9453
 8397TIP3    H246683   6.687   5.045  16.721 -0.3509 -0.5938 -0.5107
 8398TIP3   OH246684   4.778   2.299   4.552 -0.3326  0.0054  0.5589
 8398TIP3    H146685   4.685   2.290   4.574 -0.8423  1.7550 -0.6919
 8398TIP3    H246686   4.785   2.263   4.464 -0.0166  0.7427  0.2783
 8399TIP3   OH246687   1.261   2.924  11.852  0.2072 -0.6302  0.5632
 8399TIP3    H146688   1.245   2.980  11.776  0.3260  1.2835  1.8944
 8399TIP3    H246689   1.175   2.890  11.876  0.0409 -0.5321  0.1034
 8400TIP3   OH246690   3.905   4.996   0.674  0.0105  0.1712  0.2102
 8400TIP3    H146691   3.988   4.986   0.719  0.0896 -0.5257 -0.0706
 8400TIP3    H246692   3.926   4.985   0.581 -0.5973 -1.5932  0.2381
 8401TIP3   OH246693   6.658   1.128  14.177  0.1109  0.3320  0.2996
 8401TIP3    H146694   6.690   1.204  14.128  0.4094  1.2465  1.8372
 8401TIP3    H246695   6.596   1.085  14.118  1.6390  0.4471 -1.4711
 8402TIP3   OH246696   3.547   0.995  14.116  0.1614 -0.1475  0.1586
 8402TIP3    H146697   3.636   1.029  14.110  0.1241  0.6971  3.0456
 8402TIP3    H246698   3.555   0.902  14.092  1.4239  0.3172 -1.3892
 8403TIP3   OH246699   3.746   2.989   6.542 -0.2482  0.3719 -0.3721
 8403TIP3    H146700   3.785   2.932   6.475  1.2939  1.9036 -0.8412
 8403TIP3    H246701   3.817   3.005   6.604 -0.8180  1.3377  0.0428
 8404TIP3   OH246702   1.416   1.642  10.871  0.1382  0.6966  0.1335
 8404TIP3    H146703   1.463   1.718  10.905  1.7193 -0.6337  1.0475
 8404TIP3    H246704   1.343   1.630  10.932  1.1353  0.2252  1.2863
 8405TIP3   OH246705   5.357   4.071  16.955 -0.1328 -0.4256  0.3484
 8405TIP3    H146706   5.404   4.085  17.037  1.5250 -0.3424 -0.5729
 8405TIP3    H246707   5.280   4.126  16.962  0.7904  0.8118  1.2117
 8406TIP3   OH246708   2.744   6.832  17.024 -0.2873 -0.1869 -0.0457
 8406TIP3    H146709   2.755   6.895  17.095  0.0628 -0.0948 -0.1761
 8406TIP3    H246710   2.813   6.855  16.962 -0.7719 -0.0857 -0.5528
 8407TIP3   OH246711   6.692   4.844   0.420  0.0784  0.1898  0.3388
 8407TIP3    H146712   6.756   4.843   0.491 -1.6456  1.6303  2.0304
 8407TIP3    H246713   6.659   4.755   0.415  1.2384 -0.2583  0.3338
 8408TIP3   OH246714   5.833   2.326   1.840 -0.1023  0.4419 -0.7173
 8408TIP3    H146715   5.910   2.299   1.890 -1.3950  0.9074  1.6628
 8408TIP3    H246716   5.825   2.260   1.770  1.7490 -0.2764 -0.3055
 8409TIP3   OH246717   1.476   4.409  11.838  0.1662 -0.2639  0.3451
 8409TIP3    H146718   1.478   4.485  11.780 -0.9966  0.4210  1.1697
 8409TIP3    H246719   1.471   4.447  11.926 -1.9040 -1.2677  0.7143
 8410TIP3   OH246720   1.981   3.949   4.315 -0.3174  0.4191  0.3242
 8410TIP3    H146721   1.911   4.013   4.318 -0.0925  0.6280  2.0357
 8410TIP3    H246722   2.054   3.995   4.274 -1.1561  0.1566 -1.5920
 8411TIP3   OH246723   5.213   0.195   4.610  0.7278 -0.7733  0.0715
 8411TIP3    H146724   5.293   0.239   4.581 -0.1173  0.4402 -0.5537
 8411TIP3    H246725   5.155   0.198   4.534 -0.5368 -0.0243  1.0042
 8412TIP3   OH246726   0.243   6.235   2.914 -0.5429  0.4864 -0.1879
 8412TIP3    H146727   0.296   6.242   2.994 -1.8355 -0.6435  0.7990
 8412TIP3    H246728   0.287   6.167   2.862 -0.1526  0.6615 -0.0928
 8413TIP3   OH246729   3.205   1.426  15.193  0.3458 -0.8025  0.3132
 8413TIP3    H146730   3.222   1.489  15.264 -0.1547 -0.8771  0.5052
 8413TIP3    H246731   3.114   1.444  15.167  1.0713  0.4589 -1.5635
 8414TIP3   OH246732   0.075   6.753   2.000  0.2007  0.1232  0.4920
 8414TIP3    H146733   0.040   6.698   2.070 -0.9969 -0.5726 -0.5928
 8414TIP3    H246734   0.012   6.825   1.991  0.6334  0.5046  0.5007
 8415TIP3   OH246735   4.910   3.382   5.764  0.0224 -0.4711  0.0282
 8415TIP3    H146736   4.962   3.317   5.811  3.8884  1.7905 -0.7089
 8415TIP3    H246737   4.894   3.451   5.827  0.9092  0.3263 -0.5814
 8416TIP3   OH246738   6.415   5.270   0.129 -0.5272 -0.0717  0.1296
 8416TIP3    H146739   6.345   5.226   0.177 -1.3344  0.7575 -0.2534
 8416TIP3    H246740   6.370   5.316   0.058  0.4759 -0.0159 -0.4913
 8417TIP3   OH246741   4.385   4.776   2.987 -0.1945  0.2119  0.5458
 8417TIP3    H146742   4.345   4.856   3.022 -0.0026  0.9240 -0.8190
 8417TIP3    H246743   4.344   4.706   3.038 -2.5709  0.9561 -0.1759
 8418TIP3   OH246744   4.887   1.700  12.420  0.5400  0.6975  0.0715
 8418TIP3    H146745   4.908   1.606  12.425 -0.1356  0.5670  0.5582
 8418TIP3    H246746   4.960   1.738  12.371  1.6855  0.1871  1.3272
 8419TIP3   OH246747   5.526   4.466   2.994 -0.1410 -0.0992 -0.2686
 8419TIP3    H146748   5.476   4.470   2.912  1.7223 -0.2851 -1.4719
 8419TIP3    H246749   5.522   4.555   3.028  0.4725  0.4216 -1.4810
 8420TIP3   OH246750   5.918   4.987  15.317 -0.0761 -0.5472 -0.2524
 8420TIP3    H146751   5.837   5.011  15.273  0.3036  0.7501 -0.2775
 8420TIP3    H246752   5.957   4.920  15.260 -0.5590 -0.3375 -0.8391
 8421TIP3   OH246753   4.167   1.756   2.916  0.3543  0.0836  0.8165
 8421TIP3    H146754   4.211   1.742   2.832 -1.6671 -2.7617  0.0844
 8421TIP3    H246755   4.226   1.717   2.980  0.7508 -0.0043  0.4082
 8422TIP3   OH246756   2.868   0.142   6.010  0.0160  0.3798  0.8981
 8422TIP3    H146757   2.856   0.177   5.921 -0.5922  0.1014  0.8661
 8422TIP3    H246758   2.876   0.048   5.997  0.1600  0.3607  1.1201
 8423TIP3   OH246759   1.629   3.503   1.542  0.5522 -0.6313 -0.0625
 8423TIP3    H146760   1.538   3.506   1.513  1.0480 -0.7705 -1.6960
 8423TIP3    H246761   1.644   3.587   1.586 -1.2228 -1.7828  3.0801
 8424TIP3   OH246762   1.591   5.216  11.855  0.6210  0.1580  0.5079
 8424TIP3    H146763   1.536   5.137  11.856  1.4571 -0.4461 -0.0243
 8424TIP3    H246764   1.661   5.196  11.792  0.7833  1.3738  0.2785
 8425TIP3   OH246765   4.652   0.756  13.627 -0.5301  0.5784  0.9445
 8425TIP3    H146766   4.605   0.837  13.644 -0.2280  1.3102 -1.3859
 8425TIP3    H246767   4.740   0.784  13.601  0.6437 -0.6739  3.2275
 8426TIP3   OH246768   2.091   2.696  13.307 -0.3699  0.0651 -0.6263
 8426TIP3    H146769   2.156   2.626  13.299 -0.7265 -0.2610 -0.6743
 8426TIP3    H246770   2.039   2.689  13.227 -1.3077 -0.5350  0.0139
 8427TIP3   OH246771   3.367   0.886  12.299  0.0675  0.0484 -0.4492
 8427TIP3    H146772   3.293   0.830  12.326  1.5277 -0.6108  2.6510
 8427TIP3    H246773   3.372   0.953  12.367  3.4027 -1.0326  0.5365
 8428TIP3   OH246774   4.990   0.495  17.019  0.0515  0.5074 -0.7521
 8428TIP3    H146775   5.023   0.548  17.091 -0.6329  2.7165 -1.9803
 8428TIP3    H246776   5.045   0.417  17.019  0.8362  1.0145  1.3827
 8429TIP3   OH246777   4.126   3.354   1.702  0.3985  0.2797 -0.1683
 8429TIP3    H146778   4.083   3.354   1.788  0.3587  1.7205 -0.1634
 8429TIP3    H246779   4.190   3.283   1.707  1.5324  1.3479  1.6496
 8430TIP3   OH246780   5.552   0.872   3.607  1.3436  0.3914  0.4652
 8430TIP3    H146781   5.581   0.788   3.642 -0.7790 -2.7804 -4.3950
 8430TIP3    H246782   5.622   0.900   3.549 -0.0475 -0.9860 -2.0194
 8431TIP3   OH246783   2.692   2.584  16.445 -1.2276 -0.8404 -0.1974
 8431TIP3    H146784   2.630   2.552  16.511  0.0858 -3.6986 -0.1905
 8431TIP3    H246785   2.754   2.512  16.434  2.2204  1.8667 -0.1120
 8432TIP3   OH246786   6.654   6.744   1.930  0.4532 -0.4318  0.3824
 8432TIP3    H146787   6.674   6.755   1.837 -2.5834 -0.4058 -0.3660
 8432TIP3    H246788   6.648   6.649   1.941 -1.8256 -0.4108 -0.1772
 8433TIP3   OH246789   4.757   5.543   1.371 -0.0810  0.4847  0.1122
 8433TIP3    H146790   4.714   5.464   1.338 -0.1295  1.2249 -1.6836
 8433TIP3    H246791   4.827   5.510   1.428 -0.2464 -0.8407 -0.4127
 8434TIP3   OH246792   6.687   1.086  13.884  0.1236 -0.4572  0.1949
 8434TIP3    H146793   6.641   1.002  13.888 -0.0582 -0.7537 -3.6877
 8434TIP3    H246794   6.622   1.148  13.852  1.3709 -0.0139 -1.6766
 8435TIP3   OH246795   3.324   1.315  14.344  0.1055  0.2256  0.8757
 8435TIP3    H146796   3.305   1.222  14.357  0.8666 -0.2812 -1.2212
 8435TIP3    H246797   3.240   1.358  14.355 -0.3844 -0.7824  1.2604
 8436TIP3   OH246798   3.575   2.353  12.540  0.1757 -0.9000  0.1566
 8436TIP3    H146799   3.516   2.406  12.485  1.9122 -0.0708 -1.0007
 8436TIP3    H246800   3.568   2.265  12.503  1.6177 -0.2797 -1.7545
 8437TIP3   OH246801   5.433   2.030  15.244  0.2247 -0.6062  0.0876
 8437TIP3    H146802   5.390   2.047  15.328 -0.7191  1.0825 -0.6808
 8437TIP3    H246803   5.362   2.029  15.180  1.2164  2.0577 -1.2032
 8438TIP3   OH246804   0.599   4.711   2.213 -0.6174  0.0024 -0.2735
 8438TIP3    H146805   0.615   4.726   2.119 -0.5303  0.8474 -0.1364
 8438TIP3    H246806   0.646   4.630   2.233 -2.5618 -1.5066 -1.4477
 8439TIP3   OH246807   4.450   1.243   1.467 -0.7140 -0.5153  0.3896
 8439TIP3    H146808   4.530   1.282   1.432 -1.1048 -0.9481 -1.0536
 8439TIP3    H246809   4.418   1.307   1.530  1.2715 -0.7719  1.7448
 8440TIP3   OH246810   3.740   5.512  13.126  0.1139 -0.1513  0.4448
 8440TIP3    H146811   3.676   5.524  13.197  1.1287  0.0625  1.3459
 8440TIP3    H246812   3.761   5.601  13.097  0.7021 -0.1708  0.7991
 8441TIP3   OH246813   1.038   1.369  15.040  0.5565 -0.2238 -0.1535
 8441TIP3    H146814   1.039   1.336  15.129  0.8488 -1.8214 -0.7199
 8441TIP3    H246815   1.056   1.292  14.985  0.1353  0.6638 -1.5994
 8442TIP3   OH246816   1.056   1.370  10.003  0.5406 -0.5068 -0.0253
 8442TIP3    H146817   1.021   1.340   9.919  0.2597 -0.9097  0.2350
 8442TIP3    H246818   0.997   1.440  10.030 -1.0397 -2.2186  1.1699
 8443TIP3   OH246819   4.335   1.644   2.434 -0.8536  0.1105  0.2917
 8443TIP3    H146820   4.264   1.670   2.377 -0.1687  1.7613  0.1463
 8443TIP3    H246821   4.368   1.726   2.471  1.5743 -0.4909 -0.3759
 8444TIP3   OH246822   6.090   4.664   6.382  0.2972 -0.1166  0.6654
 8444TIP3    H146823   6.111   4.717   6.459 -0.7010  0.5199  0.5097
 8444TIP3    H246824   6.070   4.577   6.417  2.1987 -0.5181  0.8996
 8445TIP3   OH246825   1.777   1.676  12.886 -1.0163  0.7212  0.1149
 8445TIP3    H146826   1.767   1.763  12.847  0.4246  0.4658 -0.9188
 8445TIP3    H246827   1.854   1.639  12.842 -1.6956 -1.1440  0.4274
 8446TIP3   OH246828   2.436   6.108   6.270  0.2503  0.1798  0.1009
 8446TIP3    H146829   2.482   6.191   6.280  0.8787 -0.0289 -0.8397
 8446TIP3    H246830   2.392   6.114   6.186 -0.7874  0.0488  0.6166
 8447TIP3   OH246831   5.107   3.744   4.941 -0.1033  0.5322  0.2609
 8447TIP3    H146832   5.163   3.708   5.009  1.2636 -0.4425 -1.3119
 8447TIP3    H246833   5.132   3.836   4.936  1.4368  0.0961 -0.4547
 8448TIP3   OH246834   0.773   3.755  15.966 -0.4706 -0.4720  0.7012
 8448TIP3    H146835   0.756   3.717  15.880  0.6812  1.4787 -0.4586
 8448TIP3    H246836   0.689   3.792  15.994 -0.5534  0.0266 -0.1968
 8449TIP3   OH246837   4.958   0.439  13.790 -0.0070 -0.4279 -0.0860
 8449TIP3    H146838   5.025   0.497  13.754  1.6780 -1.6790  0.9159
 8449TIP3    H246839   4.938   0.378  13.719 -0.7279  0.4460 -0.6578
 8450TIP3   OH246840   5.881   0.577   3.736  0.1365  0.1434  0.1159
 8450TIP3    H146841   5.954   0.570   3.797  1.5047 -2.0572 -1.6100
 8450TIP3    H246842   5.905   0.649   3.678  1.6718 -1.3310 -1.2028
 8451TIP3   OH246843   1.584   6.101  15.255  0.2858 -0.0106 -0.2539
 8451TIP3    H146844   1.552   6.191  15.257  1.2156  0.3220  0.9295
 8451TIP3    H246845   1.677   6.109  15.235 -0.0503 -0.8934 -2.5110
 8452TIP3   OH246846   3.304   1.068  10.431 -0.5910 -0.1409  0.0163
 8452TIP3    H146847   3.363   1.050  10.504 -0.3405 -2.4417 -0.6501
 8452TIP3    H246848   3.301   1.163  10.424  1.4641  0.0697  1.3346
 8453TIP3   OH246849   0.960   5.152   1.282  0.0503  0.8544  0.0103
 8453TIP3    H146850   0.935   5.142   1.374  1.6579 -0.6046  0.3468
 8453TIP3    H246851   0.882   5.125   1.234 -0.4150  0.4419  0.9639
 8454TIP3   OH246852   1.250   5.560  16.144 -0.0144 -0.0814 -0.4168
 8454TIP3    H146853   1.261   5.465  16.149 -1.4627 -0.2218  1.0565
 8454TIP3    H246854   1.250   5.579  16.050  1.3074 -1.3773 -0.7175
 8455TIP3   OH246855   2.578   1.017  14.865  0.2444  0.4428  0.2009
 8455TIP3    H146856   2.601   1.099  14.908 -0.0823  1.0910 -0.8093
 8455TIP3    H246857   2.567   1.041  14.773 -5.0692  0.4096  0.5620
 8456TIP3   OH246858   3.325   2.813   2.212  0.1884  0.5625  0.2518
 8456TIP3    H146859   3.342   2.770   2.129 -0.1526 -0.9427  0.9122
 8456TIP3    H246860   3.406   2.804   2.261 -0.6287 -1.8060  1.3749
 8457TIP3   OH246861   6.362   5.849  14.483 -0.4183  0.3633 -0.6589
 8457TIP3    H146862   6.456   5.830  14.488 -0.7865 -1.2477  1.6533
 8457TIP3    H246863   6.357   5.943  14.497  0.8472  0.5081 -0.9715
 8458TIP3   OH246864   0.491   2.288   5.075  0.2825 -0.7259 -0.3291
 8458TIP3    H146865   0.430   2.338   5.021  0.6504  1.5529  1.1933
 8458TIP3    H246866   0.561   2.350   5.094  0.6280 -1.7178  1.9337
 8459TIP3   OH246867   4.684   6.463   3.944 -0.0925 -0.3597 -0.1818
 8459TIP3    H146868   4.768   6.418   3.932 -0.4338 -0.8208 -0.8896
 8459TIP3    H246869   4.621   6.411   3.894 -1.1222 -0.9387  1.6220
 8460TIP3   OH246870   0.548   0.544   3.439 -0.6963  0.0464 -0.7519
 8460TIP3    H146871   0.602   0.622   3.424  0.7948 -1.2167 -2.2183
 8460TIP3    H246872   0.569   0.517   3.529  2.5759 -1.4186 -1.8341
 8461TIP3   OH246873   3.769   2.809  16.147 -0.0522  0.3097 -0.4883
 8461TIP3    H146874   3.826   2.868  16.098 -0.5902 -0.5337 -2.2129
 8461TIP3    H246875   3.804   2.810  16.236  0.6795  2.2693 -0.7464
 8462TIP3   OH246876   2.636   6.300   5.337  0.4324 -0.3266  0.5293
 8462TIP3    H146877   2.634   6.383   5.385 -1.1060 -0.7698  1.3029
 8462TIP3    H246878   2.589   6.238   5.394  0.0080 -1.2847 -0.8044
 8463TIP3   OH246879   6.839   2.026   3.385  0.3263 -0.3374  0.2770
 8463TIP3    H146880   6.859   2.062   3.298  0.4012  1.6531  1.0705
 8463TIP3    H246881   6.925   2.003   3.421  0.3456 -0.6482  0.0329
 8464TIP3   OH246882   2.594   5.799  16.054  0.3692  0.0693 -0.3143
 8464TIP3    H146883   2.516   5.825  16.004  0.7468  0.9775 -0.4600
 8464TIP3    H246884   2.561   5.744  16.124 -0.1156 -1.8552 -1.9782
 8465TIP3   OH246885   0.324   2.341  16.696 -0.2856  0.0363  0.6539
 8465TIP3    H146886   0.309   2.419  16.642  0.0816 -0.6383 -0.4586
 8465TIP3    H246887   0.294   2.366  16.783 -1.3841  1.0003  0.0323
 8466TIP3   OH246888   0.619   2.429  17.065 -0.1114 -0.2362  0.8495
 8466TIP3    H146889   0.532   2.401  17.036  0.5504 -0.5807 -0.9353
 8466TIP3    H246890   0.660   2.349  17.097  0.5910 -0.7375 -1.1537
 8467TIP3   OH246891   4.060   0.212  14.705 -0.4449  0.2504  0.3222
 8467TIP3    H146892   3.987   0.275  14.697 -0.4413  0.3147  0.7555
 8467TIP3    H246893   4.023   0.130  14.673 -0.9538  0.1036  1.2562
 8468TIP3   OH246894   4.795   1.495   0.734  0.1767  0.4065  0.6221
 8468TIP3    H146895   4.760   1.490   0.822 -2.5582 -2.3005 -0.4373
 8468TIP3    H246896   4.718   1.500   0.677  1.7832  0.8717 -1.7043
 8469TIP3   OH246897   0.092   0.692   2.311  0.5509  0.2300  0.7428
 8469TIP3    H146898   0.107   0.630   2.383  1.9174 -1.5102 -0.9473
 8469TIP3    H246899   0.172   0.689   2.259 -0.3625  1.4786 -0.8439
 8470TIP3   OH246900   3.915   1.037  14.976 -0.2857  0.2444  0.0886
 8470TIP3    H146901   4.006   1.029  15.003  0.4188 -0.8275 -2.3300
 8470TIP3    H246902   3.903   1.130  14.958  0.3074  0.3982  0.4649
 8471TIP3   OH246903   4.979   0.182   3.723  0.0853  0.1738 -0.2026
 8471TIP3    H146904   4.957   0.242   3.652  0.7166 -2.2856 -2.6290
 8471TIP3    H246905   5.072   0.198   3.740 -0.3998  1.8022  1.2303
 8472TIP3   OH246906   1.268   2.213  12.256 -0.2582 -0.3310 -0.5936
 8472TIP3    H146907   1.185   2.172  12.229 -0.0878 -0.2615 -1.2512
 8472TIP3    H246908   1.334   2.168  12.204  0.1250 -0.4350 -0.0142
 8473TIP3   OH246909   4.881   1.630   4.112 -0.5263  0.2250 -0.3154
 8473TIP3    H146910   4.926   1.593   4.036 -1.1244  0.9564 -1.0414
 8473TIP3    H246911   4.893   1.564   4.180  1.5330  0.3238 -0.5016
 8474TIP3   OH246912   6.164   6.400   6.327 -0.2336 -0.0617  0.7273
 8474TIP3    H146913   6.190   6.453   6.252  0.7561  0.0390  1.1178
 8474TIP3    H246914   6.246   6.361   6.358 -0.7415 -0.7138  1.2902
 8475TIP3   OH246915   1.695   5.783   2.839 -0.2018  0.3906  0.7188
 8475TIP3    H146916   1.704   5.738   2.923  0.9830  1.4238  1.1671
 8475TIP3    H246917   1.763   5.850   2.840  0.3408 -0.0645 -1.3781
 8476TIP3   OH246918   0.377   1.022  13.984 -0.0261  0.0957  0.0851
 8476TIP3    H146919   0.380   1.072  13.902  1.1282 -1.6574 -1.0313
 8476TIP3    H246920   0.284   1.013  14.003 -0.2775  2.8597  0.5313
 8477TIP3   OH246921   5.856   0.654   5.113 -0.0227  0.1810 -0.0962
 8477TIP3    H146922   5.886   0.572   5.073 -0.3896  0.1601 -0.3317
 8477TIP3    H246923   5.889   0.723   5.055 -0.0940  0.1779 -0.1404
 8478TIP3   OH246924   0.903   4.203   0.684  0.0530  0.3294  0.3379
 8478TIP3    H146925   0.871   4.144   0.617  1.6954 -0.0054 -0.2040
 8478TIP3    H246926   0.896   4.290   0.645  1.5283  0.0887 -0.5360
 8479TIP3   OH246927   1.443   4.964  11.887  0.2208 -0.2664 -0.0958
 8479TIP3    H146928   1.507   4.894  11.878 -1.1579 -1.4362 -1.1257
 8479TIP3    H246929   1.381   4.932  11.952 -0.8566 -0.3747 -1.1501
 8480TIP3   OH246930   5.131   1.193  11.158 -0.3886 -0.1025 -0.1838
 8480TIP3    H146931   5.091   1.156  11.237 -0.3052 -2.5972 -1.2060
 8480TIP3    H246932   5.064   1.250  11.121  0.2747  2.8472  2.6594
 8481TIP3   OH246933   4.262   6.407  16.765  0.0402  0.4515  0.0012
 8481TIP3    H146934   4.231   6.482  16.814  0.5429  1.7277 -1.5690
 8481TIP3    H246935   4.192   6.387  16.703 -0.2779 -0.6863  0.6852
 8482TIP3   OH246936   1.221   3.239   1.549  0.2626  0.2241  0.2256
 8482TIP3    H146937   1.168   3.160   1.536 -0.5569  0.4491  1.8985
 8482TIP3    H246938   1.282   3.239   1.475  0.7822 -2.3607  0.5253
 8483TIP3   OH246939   6.185   4.423  12.093 -0.1534  0.1658  0.3654
 8483TIP3    H146940   6.147   4.511  12.092 -1.5452 -0.3436  2.2917
 8483TIP3    H246941   6.220   4.412  12.181  1.2636 -0.7273 -0.2730
 8484TIP3   OH246942   0.975   5.263  15.845 -0.2802 -0.0361 -0.1379
 8484TIP3    H146943   0.924   5.201  15.793  0.7014  0.9646 -2.4269
 8484TIP3    H246944   0.917   5.339  15.854  0.2211  0.5303 -1.4744
 8485TIP3   OH246945   1.280   0.822   3.767 -0.1454  0.4213 -0.3439
 8485TIP3    H146946   1.248   0.906   3.800 -2.4659 -0.7718  0.6163
 8485TIP3    H246947   1.221   0.801   3.694 -0.2568 -0.8757  0.1087
 8486TIP3   OH246948   5.608   2.888  16.488 -0.1836  0.0876  0.0972
 8486TIP3    H146949   5.613   2.831  16.411 -2.0646  0.5750 -0.4346
 8486TIP3    H246950   5.583   2.973  16.453  1.6925  1.0540  0.9840
 8487TIP3   OH246951   6.673   0.497   2.799 -0.4176  0.5563 -0.5170
 8487TIP3    H146952   6.703   0.501   2.890 -1.6929  0.1722 -0.0732
 8487TIP3    H246953   6.676   0.404   2.776  1.7461  0.7988 -1.5372
 8488TIP3   OH246954   2.998   5.153  15.856  0.0370  0.0142 -0.7628
 8488TIP3    H146955   3.000   5.238  15.900  0.7649 -1.2828  1.9514
 8488TIP3    H246956   3.085   5.144  15.817  1.1468 -0.7128  1.6917
 8489TIP3   OH246957   1.742   0.982  13.248  0.0822  0.8047 -0.1050
 8489TIP3    H146958   1.711   0.925  13.318 -1.4209  1.6264 -0.0593
 8489TIP3    H246959   1.675   0.975  13.180  2.2619 -1.2460 -2.2644
 8490TIP3   OH246960   1.427   6.296  15.671  0.5729 -0.1450 -0.5659
 8490TIP3    H146961   1.471   6.365  15.621 -0.7352 -0.4546 -2.2166
 8490TIP3    H246962   1.385   6.241  15.605 -0.4735 -1.1095  0.8384
 8491TIP3   OH246963   4.159   1.496  11.810  0.3192 -0.1338  0.0567
 8491TIP3    H146964   4.247   1.525  11.833  0.5220 -0.3903 -0.3682
 8491TIP3    H246965   4.156   1.502  11.714  0.3215 -1.3223 -0.0424
 8492TIP3   OH246966   6.124   6.356  15.963  0.1314  0.0543 -0.2247
 8492TIP3    H146967   6.091   6.391  16.045 -1.4297 -0.1978 -0.7196
 8492TIP3    H246968   6.217   6.341  15.979 -0.3689 -1.1103  1.9035
 8493TIP3   OH246969   2.263   4.735  14.384 -0.5932  0.4036  1.0008
 8493TIP3    H146970   2.267   4.803  14.317 -0.4754  1.8001  2.3619
 8493TIP3    H246971   2.355   4.711  14.400 -0.6632 -0.4298  0.1905
 8494TIP3   OH246972   5.750   4.726  13.233 -0.5136 -0.6161  0.0509
 8494TIP3    H146973   5.695   4.685  13.300 -2.3937 -0.2554 -1.1832
 8494TIP3    H246974   5.840   4.701  13.257 -1.0204  0.0890  3.0556
 8495TIP3   OH246975   3.587   2.775   1.217  0.2355  0.2317  0.1260
 8495TIP3    H146976   3.595   2.718   1.294 -0.9019 -0.0061  0.0959
 8495TIP3    H246977   3.635   2.854   1.240  1.1419 -0.4148  0.5015
 8496TIP3   OH246978   1.660   4.217  12.396  0.0613 -0.4423 -0.7117
 8496TIP3    H146979   1.676   4.235  12.304  2.4107  0.3580 -0.2078
 8496TIP3    H246980   1.614   4.294  12.428 -1.4201 -1.0305 -1.3156
 8497TIP3   OH246981   3.100   3.311  15.578  0.0068  0.2675  0.3364
 8497TIP3    H146982   3.170   3.376  15.583 -1.4422  1.8977  0.2546
 8497TIP3    H246983   3.144   3.230  15.552  1.7178  1.4644 -0.6832
 8498TIP3   OH246984   3.585   1.659  14.524 -0.0860  0.1680 -0.3209
 8498TIP3    H146985   3.506   1.695  14.483  0.4965  1.4271 -0.3699
 8498TIP3    H246986   3.555   1.627  14.609 -0.8191 -0.2332 -0.7107
 8499TIP3   OH246987   1.477   3.270   5.198  0.0341 -0.1457 -0.7705
 8499TIP3    H146988   1.539   3.333   5.162 -0.4789  1.2709  0.7176
 8499TIP3    H246989   1.392   3.314   5.194 -0.8006 -1.7799 -2.1109
 8500TIP3   OH246990   4.071   0.237  14.988  0.1724  0.3138 -0.5815
 8500TIP3    H146991   4.144   0.190  15.029  0.0753 -0.4274 -1.2373
 8500TIP3    H246992   4.037   0.176  14.922 -2.2368 -0.1100  0.9336
 8501TIP3   OH246993   1.939   6.511   2.597 -0.0233 -0.3114 -0.3705
 8501TIP3    H146994   1.915   6.466   2.678  0.3588  0.1549  0.0052
 8501TIP3    H246995   1.945   6.441   2.532  0.6371 -0.8216  0.2185
 8502TIP3   OH246996   2.485   2.932   1.231 -0.1659  0.0748  0.2978
 8502TIP3    H146997   2.454   2.991   1.300  2.0661  0.8415  0.7366
 8502TIP3    H246998   2.486   2.846   1.272  0.9850  0.4967  1.2330
 8503TIP3   OH246999   5.554   3.377  10.678 -0.3123  0.7786 -0.1562
 8503TIP3    H147000   5.534   3.320  10.604  0.0534 -0.1704  0.4535
 8503TIP3    H247001   5.547   3.320  10.755 -2.2216  2.1054  0.7175
 8504TIP3   OH247002   2.864   1.200  11.307  0.5416 -0.0241  0.0858
 8504TIP3    H147003   2.854   1.223  11.215  2.6731  2.5877  0.3717
 8504TIP3    H247004   2.941   1.144  11.311  1.7839  1.6548  0.4418
 8505TIP3   OH247005   5.069   3.888   0.301  0.7005  0.3933 -0.1384
 8505TIP3    H147006   5.110   3.933   0.374  2.5151 -1.6526  0.2168
 8505TIP3    H247007   5.111   3.924   0.223  1.1227  0.3063  0.0475
 8506TIP3   OH247008   2.497   2.549  17.054  0.2162 -0.0702 -0.3270
 8506TIP3    H147009   2.539   2.630  17.027 -1.2293  0.7815 -0.1315
 8506TIP3    H247010   2.413   2.577  17.090  0.3448 -1.5161  1.2155
 8507TIP3   OH247011   5.122   3.208   0.109 -0.0231 -0.0835  0.2383
 8507TIP3    H147012   5.072   3.126   0.117  0.3851 -0.6855 -2.4125
 8507TIP3    H247013   5.057   3.277   0.124 -0.9383 -0.8884  0.0675
 8508TIP3   OH247014   2.437   1.800  12.245  0.4828  0.0359  0.2159
 8508TIP3    H147015   2.412   1.829  12.158 -1.2993  1.5591  1.1638
 8508TIP3    H247016   2.469   1.879  12.289 -0.4228 -0.2923  1.5272
 8509TIP3   OH247017   4.151   1.871  15.018  0.1568  0.5041  0.1869
 8509TIP3    H147018   4.104   1.915  14.947  1.7642  0.9935 -0.6252
 8509TIP3    H247019   4.086   1.862  15.088 -1.1427  1.0855 -0.8947
 8510TIP3   OH247020   4.489   3.373  11.069 -0.3090  0.3205 -0.3059
 8510TIP3    H147021   4.495   3.391  10.975 -1.8530 -1.1559 -0.7465
 8510TIP3    H247022   4.523   3.284  11.079 -0.1139  0.4836  0.5299
 8511TIP3   OH247023   3.696   0.160   1.906 -0.4738  0.2359  0.7043
 8511TIP3    H147024   3.728   0.151   1.816 -1.9423  0.8293  0.0903
 8511TIP3    H247025   3.765   0.121   1.960  0.7447  0.4800 -0.6168
 8512TIP3   OH247026   2.403   2.791   5.322 -0.4104  0.8889 -0.2027
 8512TIP3    H147027   2.353   2.779   5.241 -0.5012 -1.4250  0.1415
 8512TIP3    H247028   2.493   2.771   5.298 -0.6291 -1.1293  0.5015
 8513TIP3   OH247029   0.048   0.259   1.757  0.0694 -0.4444 -0.1603
 8513TIP3    H147030   0.058   0.343   1.711 -1.1743  0.2600  0.7977
 8513TIP3    H247031   0.086   0.195   1.697  0.9050  0.7729 -0.9887
 8514TIP3   OH247032   3.353   3.890   4.602  0.0915  0.3802 -0.1900
 8514TIP3    H147033   3.263   3.918   4.587  0.1589 -0.4128 -2.5547
 8514TIP3    H247034   3.407   3.961   4.567  0.3685  0.2420 -0.0524
 8515TIP3   OH247035   5.701   1.404   5.305  0.0115  0.0989  0.4309
 8515TIP3    H147036   5.676   1.313   5.290  1.4876 -0.2473 -0.0994
 8515TIP3    H247037   5.619   1.449   5.325 -0.9049 -1.1060 -0.5067
 8516TIP3   OH247038   0.395   2.527   5.802 -0.1228  0.1272  0.2007
 8516TIP3    H147039   0.473   2.474   5.818  0.6323  1.5778  1.5115
 8516TIP3    H247040   0.427   2.615   5.788 -1.5778  1.3093  3.3305
 8517TIP3   OH247041   6.609   5.446   5.584 -0.1192  0.4274 -0.1315
 8517TIP3    H147042   6.537   5.393   5.552  0.9761 -2.3134  1.5862
 8517TIP3    H247043   6.664   5.462   5.508  0.1098 -1.9998 -0.5506
 8518TIP3   OH247044   2.848   2.718   5.410 -0.2429 -0.4473  0.9575
 8518TIP3    H147045   2.925   2.748   5.362 -1.2495 -0.2791 -0.6355
 8518TIP3    H247046   2.774   2.763   5.368 -1.3726 -1.8889  1.2924
 8519TIP3   OH247047   4.919   1.875   3.611  0.4358 -0.0472  0.2167
 8519TIP3    H147048   4.959   1.910   3.532 -0.1642 -0.8126 -0.4322
 8519TIP3    H247049   4.983   1.812   3.644  0.9087  0.6302  0.6375
 8520TIP3   OH247050   4.953   1.280   5.032  0.2686 -0.1066  0.1830
 8520TIP3    H147051   4.893   1.287   4.958  1.8099 -0.8568 -1.2116
 8520TIP3    H247052   5.012   1.355   5.022  0.4221 -0.1546  0.7045
 8521TIP3   OH247053   1.518   4.180   1.389  0.1959 -0.3456 -0.1911
 8521TIP3    H147054   1.449   4.117   1.411  0.7342 -0.3297  1.8053
 8521TIP3    H247055   1.476   4.265   1.396 -0.3144 -0.4098 -2.0347
 8522TIP3   OH247056   2.049   2.498   3.088 -0.2545  0.0266  0.4643
 8522TIP3    H147057   1.962   2.513   3.052  0.2071  2.0335  0.0777
 8522TIP3    H247058   2.098   2.459   3.015  0.3941  3.1529 -0.9687
 8523TIP3   OH247059   3.720   4.591  17.106  0.0871 -0.1287  0.8266
 8523TIP3    H147060   3.713   4.686  17.118  1.5150 -0.0380  1.1354
 8523TIP3    H247061   3.674   4.573  17.024  1.3812  1.1054 -0.2216
 8524TIP3   OH247062   4.585   3.561   0.939 -0.2483  0.0131  0.7018
 8524TIP3    H147063   4.665   3.577   0.990 -0.1374  0.4576  0.3947
 8524TIP3    H247064   4.617   3.544   0.850 -0.5022  0.2801  0.5609
 8525TIP3   OH247065   5.412   0.813  10.799 -0.3352  0.5131  0.1708
 8525TIP3    H147066   5.371   0.831  10.715 -0.0751 -0.9205 -0.3011
 8525TIP3    H247067   5.342   0.823  10.863 -0.9174  0.1282 -0.3894
 8526TIP3   OH247068   0.798   2.368   2.380 -0.2263  0.9295 -0.3108
 8526TIP3    H147069   0.790   2.455   2.342 -2.7546  0.6833 -0.5673
 8526TIP3    H247070   0.807   2.383   2.474 -1.0390  1.4968 -0.3104
 8527TIP3   OH247071   2.537   5.974   0.197 -0.0795 -0.1555  0.0698
 8527TIP3    H147072   2.540   6.056   0.147  0.0568  0.1597  0.5877
 8527TIP3    H247073   2.597   5.916   0.150 -0.3246 -0.0263 -0.4150
 8528TIP3   OH247074   3.652   5.653   3.864 -0.1089  0.0723  0.9144
 8528TIP3    H147075   3.685   5.682   3.780 -0.7409 -1.3211  0.1448
 8528TIP3    H247076   3.659   5.557   3.861 -1.0010 -0.0584  2.0781
 8529TIP3   OH247077   3.064   6.214  16.879 -0.1037  0.3817 -0.0458
 8529TIP3    H147078   3.142   6.270  16.880 -0.0814  0.3516 -0.1382
 8529TIP3    H247079   3.039   6.206  16.971 -0.1977  0.6694 -0.0453
 8530TIP3   OH247080   3.889   2.474  11.630 -0.1608 -0.2112 -0.4317
 8530TIP3    H147081   3.849   2.406  11.685  1.0266 -1.3065 -0.8902
 8530TIP3    H247082   3.831   2.549  11.641 -1.6791 -1.3627 -0.1187
 8531TIP3   OH247083   3.262   1.042  14.416 -0.0667  0.0651  0.2612
 8531TIP3    H147084   3.179   1.026  14.462 -0.0081  0.3636  0.4713
 8531TIP3    H247085   3.329   1.013  14.477 -0.0553 -2.0052 -0.6417
 8532TIP3   OH247086   3.550   3.340   4.020 -0.1313  0.3926  0.3369
 8532TIP3    H147087   3.489   3.271   3.994  1.0046 -0.6187  0.2389
 8532TIP3    H247088   3.623   3.331   3.958 -0.3146  2.2185 -0.1751
 8533TIP3   OH247089   6.017   3.263  16.010  0.0356 -0.1882 -0.1314
 8533TIP3    H147090   6.008   3.244  15.917 -0.0173 -0.6574 -0.0307
 8533TIP3    H247091   6.084   3.332  16.015 -1.0946  0.9981 -0.6417
 8534TIP3   OH247092   4.475   1.151  13.007 -0.2514 -0.0141 -0.0191
 8534TIP3    H147093   4.440   1.062  13.011  2.2774 -1.0640  0.8482
 8534TIP3    H247094   4.487   1.177  13.098  2.2174 -0.2324 -0.2005
 8535TIP3   OH247095   5.495   0.942   2.939  0.3713  0.0279  0.4780
 8535TIP3    H147096   5.422   0.962   2.998 -0.8882  1.5793 -1.4481
 8535TIP3    H247097   5.525   1.027   2.908  1.1102 -0.7068 -0.9432
 8536TIP3   OH247098   0.867   5.736   5.452 -0.0507 -0.3166 -0.9059
 8536TIP3    H147099   0.835   5.695   5.532  0.5724  0.5779 -0.1725
 8536TIP3    H247100   0.935   5.676   5.420 -0.4973 -0.8149 -0.9184
 8537TIP3   OH247101   5.115   4.174   4.741  0.7508  0.0837  0.6971
 8537TIP3    H147102   5.190   4.233   4.731  0.2610  0.7835  1.0460
 8537TIP3    H247103   5.127   4.108   4.673  0.2206  1.7815 -1.1356
 8538TIP3   OH247104   6.713   1.031   3.859  0.4531  0.0541 -1.2103
 8538TIP3    H147105   6.684   1.099   3.798  0.3680  2.6202  1.4213
 8538TIP3    H247106   6.740   1.079   3.937 -1.6298 -2.9961  1.6986
 8539TIP3   OH247107   4.661   2.487   5.414 -0.5359 -0.4336 -0.2105
 8539TIP3    H147108   4.641   2.476   5.507  0.9685  1.8091  0.4890
 8539TIP3    H247109   4.651   2.581   5.399  0.4335 -0.5744 -2.0141
 8540TIP3   OH247110   3.195   5.711   1.293  0.1296 -0.8036  0.0231
 8540TIP3    H147111   3.137   5.683   1.222  0.7424  0.2270 -0.9405
 8540TIP3    H247112   3.282   5.711   1.253  0.6318 -1.1677  1.0880
 8541TIP3   OH247113   0.712   2.047   6.064  0.0001 -0.2727 -0.1983
 8541TIP3    H147114   0.760   1.964   6.075  0.1205 -0.1225  0.4697
 8541TIP3    H247115   0.633   2.036   6.116 -1.6979 -1.2412 -2.7794
 8542TIP3   OH247116   5.740   3.749  16.197 -0.1564 -0.3504  0.2091
 8542TIP3    H147117   5.713   3.774  16.286 -2.1036 -2.0738  0.1652
 8542TIP3    H247118   5.827   3.710  16.208  0.8393  1.8734  0.9170
 8543TIP3   OH247119   5.476   6.581  13.088 -0.0150 -0.9878 -0.7642
 8543TIP3    H147120   5.421   6.509  13.117  0.0487  0.1999  2.8204
 8543TIP3    H247121   5.548   6.583  13.152  0.1845  1.9482 -0.9623
 8544TIP3   OH247122   5.067   1.002   5.431  0.5795 -0.0078 -0.3306
 8544TIP3    H147123   4.999   1.035   5.373  0.2637 -3.1423 -1.9566
 8544TIP3    H247124   5.133   0.964   5.373  0.6366 -2.6200  1.2393
 8545TIP3   OH247125   4.795   0.772  15.299 -0.2120  0.1860 -0.3728
 8545TIP3    H147126   4.783   0.867  15.293 -0.3453  0.3227  1.4973
 8545TIP3    H247127   4.837   0.759  15.385 -2.2286 -1.6138  0.4093
 8546TIP3   OH247128   4.836   3.451   2.357  0.8012  0.1812  0.2616
 8546TIP3    H147129   4.898   3.457   2.430  0.5398  0.8263  0.4462
 8546TIP3    H247130   4.844   3.535   2.312 -0.0342  0.3459  0.3840
 8547TIP3   OH247131   0.383   2.749  11.283  0.0724  0.0148 -0.5476
 8547TIP3    H147132   0.378   2.686  11.355  2.3527  0.3248 -0.0679
 8547TIP3    H247133   0.403   2.696  11.206  1.6355  0.0661 -0.2064
 8548TIP3   OH247134   0.384   4.905   1.255  0.5075 -0.1382 -0.4797
 8548TIP3    H147135   0.336   4.931   1.334  0.1972  0.6156 -0.8984
 8548TIP3    H247136   0.323   4.925   1.184  0.0086 -2.6186 -0.8126
 8549TIP3   OH247137   0.669   0.484   3.901  0.4167 -0.1576 -0.1758
 8549TIP3    H147138   0.620   0.540   3.840  0.4705 -0.3414 -0.3887
 8549TIP3    H247139   0.684   0.403   3.852 -1.4073 -1.1721  0.8117
 8550TIP3   OH247140   5.546   5.825   0.164 -0.0677  0.3901 -0.2270
 8550TIP3    H147141   5.454   5.843   0.181 -0.4946  0.0333 -1.9407
 8550TIP3    H247142   5.552   5.729   0.166  0.4414  0.4254  0.5930
 8551TIP3   OH247143   1.913   4.284  10.683 -0.3851  0.1384  0.5982
 8551TIP3    H147144   1.899   4.282  10.778  0.0348 -0.8799  0.6565
 8551TIP3    H247145   2.001   4.247  10.671 -0.1928  0.7967 -0.1545
 8552TIP3   OH247146   4.083   2.243   0.850  0.0734  0.6890 -0.5275
 8552TIP3    H147147   4.175   2.250   0.877 -0.1082  0.7024  0.1010
 8552TIP3    H247148   4.086   2.249   0.754  0.6261  1.7196 -0.4608
 8553TIP3   OH247149   1.539   3.486  16.065 -0.5499 -0.0695 -0.0683
 8553TIP3    H147150   1.458   3.494  16.014 -0.4582  1.8050 -0.0095
 8553TIP3    H247151   1.601   3.444  16.005 -0.7152  1.2287 -1.2063
 8554TIP3   OH247152   0.454   6.361   2.463  0.1524  0.6185  0.0898
 8554TIP3    H147153   0.510   6.337   2.389  0.2803  2.5676 -0.5109
 8554TIP3    H247154   0.365   6.347   2.430  0.2216  1.0437 -0.3018
 8555TIP3   OH247155   0.346   1.129   4.681  0.1898 -0.4457 -0.3994
 8555TIP3    H147156   0.380   1.114   4.593  0.8337  0.9300 -0.4147
 8555TIP3    H247157   0.374   1.218   4.703 -1.1011 -0.2718  0.6805
 8556TIP3   OH247158   2.206   6.805   0.882  0.2724 -0.0022 -0.4807
 8556TIP3    H147159   2.115   6.781   0.864 -0.2914  1.4596  0.2177
 8556TIP3    H247160   2.258   6.742   0.833 -1.1195 -0.9280 -0.8124
 8557TIP3   OH247161   0.159   5.760   4.861  0.3011 -0.2064 -0.4789
 8557TIP3    H147162   0.087   5.698   4.876  0.9075 -1.1485 -1.3222
 8557TIP3    H247163   0.236   5.717   4.899  0.4516  0.7240  0.2815
 8558TIP3   OH247164   3.485   5.576   2.231  0.1608 -0.5356 -0.3362
 8558TIP3    H147165   3.427   5.569   2.307  0.9736  1.0410  0.4859
 8558TIP3    H247166   3.470   5.665   2.198  1.8127 -0.2175 -0.3232
 8559TIP3   OH247167   6.311   1.704   1.526 -0.1713  0.4591 -0.3241
 8559TIP3    H147168   6.222   1.693   1.492 -0.5806  2.6686 -0.0894
 8559TIP3    H247169   6.300   1.703   1.621  0.3614 -1.2343 -0.2538
 8560TIP3   OH247170   1.079   4.539  13.481 -0.8481 -0.0590  0.2784
 8560TIP3    H147171   1.040   4.607  13.426 -0.3682  0.7735  0.9310
 8560TIP3    H247172   1.139   4.587  13.539  0.6058 -1.2075 -0.2263
 8561TIP3   OH247173   4.493   1.280   0.896 -0.0912  0.7863  0.0357
 8561TIP3    H147174   4.402   1.286   0.925 -0.1425  0.3838 -0.0407
 8561TIP3    H247175   4.487   1.279   0.800 -0.2437 -2.4653 -0.0147
 8562TIP3   OH247176   6.685   3.888  16.207 -1.1291 -0.6912  0.2526
 8562TIP3    H147177   6.702   3.982  16.203 -4.0989 -0.0602  0.0994
 8562TIP3    H247178   6.662   3.871  16.299  1.8543 -1.8657  0.8965
 8563TIP3   OH247179   4.544   1.905  17.080 -0.6307  0.3012 -0.2071
 8563TIP3    H147180   4.476   1.879  17.017 -0.4471 -0.5493 -0.0597
 8563TIP3    H247181   4.592   1.825  17.098 -1.3348  0.2993  1.8345
 8564TIP3   OH247182   4.413   0.685  11.422  0.4553 -0.3745 -0.0020
 8564TIP3    H147183   4.453   0.770  11.405 -0.9369  0.4058  0.4444
 8564TIP3    H247184   4.416   0.675  11.517  1.5309 -1.3109 -0.1196
 8565TIP3   OH247185   3.165   0.122  15.874 -0.4119  0.3656 -0.1310
 8565TIP3    H147186   3.231   0.120  15.805 -0.6865  0.1688 -0.3905
 8565TIP3    H247187   3.147   0.215  15.887  0.1362  0.4343  0.1567
 8566TIP3   OH247188   6.838   0.975   5.930 -0.2366 -0.0208 -0.1490
 8566TIP3    H147189   6.849   0.882   5.951  1.9303  0.4447  1.0512
 8566TIP3    H247190   6.813   1.016   6.013 -0.3448  0.6026 -0.4804
 8567TIP3   OH247191   3.658   1.646  15.375 -0.0935 -0.3463 -0.9503
 8567TIP3    H147192   3.602   1.640  15.298 -2.1671 -0.1309  0.4471
 8567TIP3    H247193   3.697   1.559  15.385 -0.5158 -0.6219 -1.7241
 8568TIP3   OH247194   0.815   5.286  11.127 -0.2405  0.1114 -0.2177
 8568TIP3    H147195   0.752   5.265  11.196 -1.2711 -0.3046 -1.2526
 8568TIP3    H247196   0.823   5.381  11.130  0.8818  0.0183  1.4308
 8569TIP3   OH247197   2.964   2.018  15.425 -0.2852 -0.5206 -0.1178
 8569TIP3    H147198   2.948   1.950  15.359  0.5159  0.1721 -1.0602
 8569TIP3    H247199   2.996   2.093  15.375  1.5390 -0.3721  1.1641
 8570TIP3   OH247200   0.876   6.223   2.816  0.1209  0.3890 -0.7778
 8570TIP3    H147201   0.900   6.259   2.901 -0.8477  0.4338 -0.5189
 8570TIP3    H247202   0.900   6.292   2.754  1.8442 -0.0604 -0.6881
 8571TIP3   OH247203   0.956   0.438   2.558 -0.4236 -0.0955  0.1040
 8571TIP3    H147204   0.871   0.478   2.536 -1.0976 -1.2553  0.5165
 8571TIP3    H247205   0.938   0.382   2.633  0.8395  0.0624  0.5467
 8572TIP3   OH247206   6.296   3.683  17.083  0.0896 -0.4105 -0.1401
 8572TIP3    H147207   6.306   3.588  17.072  0.2860 -0.1980 -2.4505
 8572TIP3    H247208   6.226   3.693  17.147  0.5471 -2.1010  0.6852
 8573TIP3   OH247209   0.943   6.668   3.576  0.0273 -0.1299 -0.2760
 8573TIP3    H147210   0.914   6.750   3.538 -1.4640 -0.9489 -1.0256
 8573TIP3    H247211   0.914   6.601   3.514  1.2520 -1.2270  0.2764
 8574TIP3   OH247212   0.775   4.140  11.578  0.3476  0.0692 -0.4564
 8574TIP3    H147213   0.761   4.229  11.611  0.6653  0.3087 -0.9491
 8574TIP3    H247214   0.864   4.119  11.604  0.0681 -0.3515  0.1954
 8575TIP3   OH247215   1.180   1.983  14.404 -0.1064  0.5404  0.1277
 8575TIP3    H147216   1.165   2.009  14.313  0.2471 -0.2068 -0.1440
 8575TIP3    H247217   1.116   1.913  14.419 -0.8412  1.3262  0.7649
 8576TIP3   OH247218   2.092   1.992  11.194 -0.0935 -0.6406  0.3116
 8576TIP3    H147219   2.006   1.956  11.215 -0.3991 -0.8061 -1.1444
 8576TIP3    H247220   2.075   2.056  11.125  1.2469 -2.7017 -2.0716
 8577TIP3   OH247221   2.430   2.098  16.809  0.0848  0.1056 -0.1155
 8577TIP3    H147222   2.483   2.020  16.826 -0.9510  0.0394  3.9240
 8577TIP3    H247223   2.459   2.162  16.875 -0.8434  2.2443 -1.6404
 8578TIP3   OH247224   1.215   1.524  14.609  0.2434  0.0856 -0.3807
 8578TIP3    H147225   1.246   1.469  14.680 -1.3624 -0.8303 -0.3420
 8578TIP3    H247226   1.294   1.564  14.573  1.2316 -0.6295  0.9192
 8579TIP3   OH247227   4.036   1.226   4.850 -0.0817  0.5612 -0.0475
 8579TIP3    H147228   3.979   1.172   4.796  1.5286 -0.5325 -0.7300
 8579TIP3    H247229   4.110   1.170   4.871  0.6074  1.8216  1.0888
 8580TIP3   OH247230   4.601   4.396  14.246  0.1725 -0.2751  0.1015
 8580TIP3    H147231   4.686   4.440  14.250  0.5523 -1.0719  3.0114
 8580TIP3    H247232   4.613   4.315  14.296 -2.6660  0.3572  2.0876
 8581TIP3   OH247233   1.759   4.585  12.033 -0.0300 -0.8318  0.1306
 8581TIP3    H147234   1.812   4.524  11.982  0.6827 -0.4176  0.3620
 8581TIP3    H247235   1.809   4.667  12.032  0.3688 -1.0005  2.0747
 8582TIP3   OH247236   3.836   2.820   0.700 -0.1693 -1.1448 -0.0067
 8582TIP3    H147237   3.754   2.837   0.745 -1.2083 -1.2676 -1.7532
 8582TIP3    H247238   3.851   2.899   0.647  1.1449 -0.8918  0.6914
 8583TIP3   OH247239   5.849   3.803   3.317  0.3397  0.1707  0.4422
 8583TIP3    H147240   5.855   3.896   3.294  0.1882  0.1957  0.4962
 8583TIP3    H247241   5.800   3.764   3.245  0.2997  0.1551  0.4780
 8584TIP3   OH247242   2.064   6.708  14.065 -0.2420 -0.7011 -0.1206
 8584TIP3    H147243   2.068   6.679  14.156  0.2022 -0.5883 -0.1035
 8584TIP3    H247244   2.125   6.782  14.060 -1.0510 -0.0254 -0.2595
 8585TIP3   OH247245   5.140   5.971  15.420 -0.4200 -0.4748  0.0484
 8585TIP3    H147246   5.205   5.952  15.352  0.9830  0.4623  1.0519
 8585TIP3    H247247   5.072   6.021  15.375  0.9451  0.9512 -0.5387
 8586TIP3   OH247248   1.179   3.662  11.502 -0.0894  0.5606  0.1886
 8586TIP3    H147249   1.201   3.744  11.460 -0.8040 -0.1777 -1.7136
 8586TIP3    H247250   1.099   3.632  11.459 -0.4338 -0.6393  1.5410
 8587TIP3   OH247251   5.624   6.731   5.903 -0.3508 -0.5501  0.3380
 8587TIP3    H147252   5.698   6.671   5.892 -0.3130 -0.3247 -0.8207
 8587TIP3    H247253   5.575   6.697   5.978  1.0482 -0.5762  1.2787
 8588TIP3   OH247254   2.331   3.251  11.210  0.3879  0.1496 -0.1248
 8588TIP3    H147255   2.264   3.243  11.143 -1.1847  2.8595  0.9461
 8588TIP3    H247256   2.396   3.310  11.171  0.3407  0.3417  0.0828
 8589TIP3   OH247257   2.161   3.854  11.037  0.5241  0.3136  0.1531
 8589TIP3    H147258   2.200   3.934  11.003  0.4103 -0.3191 -1.5867
 8589TIP3    H247259   2.236   3.797  11.056  0.5556 -0.3330 -1.7219
 8590TIP3   OH247260   4.468   4.875   3.331 -0.5607  0.5685 -0.2622
 8590TIP3    H147261   4.447   4.808   3.396 -0.5786  0.1051 -0.7395
 8590TIP3    H247262   4.384   4.913   3.307 -0.4810  1.2724  0.5451
 8591TIP3   OH247263   5.286   4.388   3.421  0.2547  0.2817 -0.8378
 8591TIP3    H147264   5.337   4.465   3.446  0.3135  0.1125 -0.4379
 8591TIP3    H247265   5.315   4.319   3.481 -1.0992  0.4235 -0.0056
 8592TIP3   OH247266   5.784   4.952   2.178 -0.4603 -0.1525 -0.2857
 8592TIP3    H147267   5.851   4.986   2.119 -0.3638  0.3210  0.0893
 8592TIP3    H247268   5.704   4.955   2.127 -0.1629 -0.9158 -0.8049
 8593TIP3   OH247269   3.167   2.876  12.127  0.1164 -0.5458 -0.7228
 8593TIP3    H147270   3.153   2.811  12.196  1.1082 -0.2379 -0.2114
 8593TIP3    H247271   3.254   2.855  12.091  0.4358  0.4664 -0.5689
 8594TIP3   OH247272   1.405   6.146  11.378 -0.6494  0.0518  0.1046
 8594TIP3    H147273   1.492   6.136  11.339 -0.3557  2.4224 -0.0249
 8594TIP3    H247274   1.422   6.158  11.471 -0.6643  1.9029 -0.0959
 8595TIP3   OH247275   4.486   3.084   4.141  0.4123 -0.0881  0.0291
 8595TIP3    H147276   4.472   3.116   4.230  1.4508 -0.0749  0.2083
 8595TIP3    H247277   4.561   3.024   4.149  0.4753 -0.1407 -0.8201
 8596TIP3   OH247278   3.877   4.024   2.669  0.2741  0.4653 -0.4481
 8596TIP3    H147279   3.914   4.108   2.642 -0.5291  0.4464 -1.6836
 8596TIP3    H247280   3.795   4.017   2.620  0.3786 -1.0939 -0.4473
 8597TIP3   OH247281   6.480   1.639   3.758  0.3818  0.2996 -0.0724
 8597TIP3    H147282   6.458   1.600   3.673  0.5342 -0.1755  0.1015
 8597TIP3    H247283   6.402   1.625   3.812 -0.5870  2.5866 -0.7865
 8598TIP3   OH247284   5.923   4.337  13.658 -0.2803 -0.1353  0.2560
 8598TIP3    H147285   5.880   4.325  13.743 -2.1694 -1.1881 -0.7822
 8598TIP3    H247286   5.923   4.432  13.645  0.7575  0.1185  1.7293
 8599TIP3   OH247287   0.428   3.423  13.155 -0.2772  0.1491 -0.7496
 8599TIP3    H147288   0.435   3.482  13.080 -0.6979  0.8107 -0.2859
 8599TIP3    H247289   0.373   3.351  13.125 -0.5242  0.4574 -1.0432
 8600TIP3   OH247290   2.043   1.252  12.422  0.0788  0.4653  0.5247
 8600TIP3    H147291   2.017   1.344  12.432  2.5528  1.3821 -0.6791
 8600TIP3    H247292   2.012   1.210  12.502 -0.1027  2.5976  1.6575
 8601TIP3   OH247293   3.692   5.161   6.538  0.2129  0.0252 -0.3145
 8601TIP3    H147294   3.617   5.118   6.578 -0.4567  1.2759 -0.1881
 8601TIP3    H247295   3.681   5.146   6.444 -0.7019  0.9742 -0.3684
 8602TIP3   OH247296   4.726   2.699   0.866 -0.3826  0.2854  0.1644
 8602TIP3    H147297   4.807   2.659   0.834 -1.3038  0.1923 -2.3535
 8602TIP3    H247298   4.726   2.682   0.960  3.3934  1.9394  0.6577
 8603TIP3   OH247299   0.622   1.198  15.324  0.1330  0.2384  0.1094
 8603TIP3    H147300   0.708   1.161  15.304  0.2747  0.5523  0.1261
 8603TIP3    H247301   0.642   1.283  15.364 -0.1845  0.2982  0.1415
 8604TIP3   OH247302   5.814   5.942  13.522  0.6677 -0.0936  0.2414
 8604TIP3    H147303   5.806   5.871  13.459  1.3116 -0.2938  0.3702
 8604TIP3    H247304   5.878   6.002  13.482 -1.8661  1.8648 -1.1747
 8605TIP3   OH247305   0.072   2.566   0.676  0.2747  0.0133  0.2903
 8605TIP3    H147306   0.086   2.622   0.599 -1.1859 -1.0543 -0.7953
 8605TIP3    H247307  -0.022   2.568   0.691  0.2588 -1.6414  0.6099
 8606TIP3   OH247308   0.351   2.959   0.873  0.1067  0.1129 -0.0570
 8606TIP3    H147309   0.440   2.983   0.848  0.8642 -1.1938  1.2772
 8606TIP3    H247310   0.337   2.873   0.833 -0.6760  0.4234 -0.4812
 8607TIP3   OH247311   1.767   6.329   2.314 -0.6992  0.1171  0.1620
 8607TIP3    H147312   1.759   6.360   2.224 -2.0492  1.1078  0.5910
 8607TIP3    H247313   1.857   6.350   2.339 -0.7928  1.2898 -0.4355
 8608TIP3   OH247314   5.571   4.619   5.287 -0.1058 -0.3009 -0.1282
 8608TIP3    H147315   5.620   4.611   5.369  1.2352  0.0353 -0.8687
 8608TIP3    H247316   5.500   4.555   5.295  0.9118 -1.3699  0.6617
 8609TIP3   OH247317   4.548   4.616  13.379 -0.4709 -0.6153  0.3213
 8609TIP3    H147318   4.594   4.536  13.406  0.1420 -0.5789 -0.5603
 8609TIP3    H247319   4.492   4.638  13.453  0.0870 -1.3176  0.9662
 8610TIP3   OH247320   3.837   6.326  14.373  0.2189 -0.2914  0.4982
 8610TIP3    H147321   3.929   6.345  14.354  0.4598  0.3452  2.1289
 8610TIP3    H247322   3.839   6.242  14.419 -0.2562 -1.3190 -1.2488
 8611TIP3   OH247323   4.557   4.302  16.015 -0.3641  0.0865 -0.3540
 8611TIP3    H147324   4.500   4.272  16.086 -0.5049  1.7515  0.2963
 8611TIP3    H247325   4.602   4.223  15.985 -1.6743 -0.9629  0.3328
 8612TIP3   OH247326   2.830   1.574   0.605  0.3186 -0.0283 -0.0049
 8612TIP3    H147327   2.811   1.591   0.513 -0.5421 -0.9632 -0.0188
 8612TIP3    H247328   2.925   1.580   0.611  0.3642  0.3094 -0.8953
 8613TIP3   OH247329   2.823   4.516   3.948 -0.6409 -0.0148 -0.0493
 8613TIP3    H147330   2.806   4.609   3.964 -1.4686 -0.1400 -0.1426
 8613TIP3    H247331   2.748   4.471   3.986 -1.3096 -0.5034 -1.8194
 8614TIP3   OH247332   6.449   1.972  15.859 -0.0818  0.0199  0.4004
 8614TIP3    H147333   6.422   1.926  15.939 -0.7735  0.8026  0.6356
 8614TIP3    H247334   6.544   1.959  15.854 -0.1676 -0.8299  0.8340
 8615TIP3   OH247335   0.359   4.667   3.806  0.2197 -0.4396  0.0028
 8615TIP3    H147336   0.411   4.732   3.760 -1.5707  0.4695 -0.7936
 8615TIP3    H247337   0.341   4.599   3.741 -0.8813  0.0152 -0.1868
 8616TIP3   OH247338   3.149   2.754   3.693 -0.2905  0.2302  0.1645
 8616TIP3    H147339   3.237   2.730   3.724 -0.7442  0.5408  1.8099
 8616TIP3    H247340   3.163   2.834   3.642  0.1489  1.6852  2.4271
 8617TIP3   OH247341   3.758   1.487   3.000  0.0651  0.3767 -0.0350
 8617TIP3    H147342   3.708   1.568   2.987 -1.4338 -0.3315  1.0366
 8617TIP3    H247343   3.843   1.505   2.960 -0.6511  2.0345 -0.9267
 8618TIP3   OH247344   3.347   5.582  15.493 -0.1276  0.1098  0.6119
 8618TIP3    H147345   3.333   5.658  15.435  0.4814 -0.0995  0.1730
 8618TIP3    H247346   3.279   5.520  15.468  0.1836 -0.0152  0.0450
 8619TIP3   OH247347   2.397   2.284   0.525  0.0235  0.0433 -0.6654
 8619TIP3    H147348   2.397   2.375   0.493  0.1900  1.4263  2.8705
 8619TIP3    H247349   2.309   2.271   0.559  0.9077  0.1014  1.8011
 8620TIP3   OH247350   1.991   5.680  11.481 -0.1045  0.3711 -0.1433
 8620TIP3    H147351   2.073   5.721  11.458 -0.0041  0.1402 -0.2020
 8620TIP3    H247352   2.013   5.588  11.495 -0.3582  0.3013 -0.1940
 8621TIP3   OH247353   1.399   6.106   3.191 -0.4974  0.4250  0.0926
 8621TIP3    H147354   1.404   6.072   3.102  1.5959  3.5247 -1.1678
 8621TIP3    H247355   1.488   6.096   3.225 -0.4031  2.2546  0.5044
 8622TIP3   OH247356   0.658   0.002   4.868  0.1616  0.2092  0.3500
 8622TIP3    H147357   0.589  -0.058   4.896  0.1781  0.2962  0.5766
 8622TIP3    H247358   0.621   0.048   4.793 -0.1338  0.4598  0.6473
 8623TIP3   OH247359   0.596   4.737  12.526  0.8655 -0.2044  0.3038
 8623TIP3    H147360   0.518   4.682  12.538  1.3807 -0.9328  0.3941
 8623TIP3    H247361   0.665   4.675  12.502  2.1606  0.0064  3.1310
 8624TIP3   OH247362   6.512   2.523   5.739  0.3837  0.1571 -0.0155
 8624TIP3    H147363   6.513   2.503   5.646  0.5586  2.3998 -0.5588
 8624TIP3    H247364   6.440   2.585   5.750  1.0512  0.7668  1.1236
 8625TIP3   OH247365   6.790   5.890   5.411 -0.2062 -0.6582  0.3516
 8625TIP3    H147366   6.833   5.906   5.495  0.1075 -2.4248  0.5577
 8625TIP3    H247367   6.862   5.882   5.348 -0.3790 -0.7676  0.1670
 8626TIP3   OH247368   4.131   3.042  13.991 -0.1176  0.7648 -0.2102
 8626TIP3    H147369   4.203   3.105  13.996  0.9753 -0.4303 -0.2404
 8626TIP3    H247370   4.145   2.984  14.067 -0.1502 -0.3826 -1.0506
 8627TIP3   OH247371   2.671   2.934  16.221  0.1892 -0.2027  0.3226
 8627TIP3    H147372   2.692   2.919  16.129 -1.4413  1.4572 -0.3779
 8627TIP3    H247373   2.755   2.955  16.261  0.9790 -1.2680 -0.6854
 8628TIP3   OH247374   4.816   5.172  15.292 -0.4255  0.6981 -0.0837
 8628TIP3    H147375   4.784   5.090  15.329 -1.8744  1.8502  1.4090
 8628TIP3    H247376   4.906   5.180  15.324 -0.3868 -0.1489  0.0212
 8629TIP3   OH247377   3.010   6.227   0.027  0.4274  0.1630 -0.0995
 8629TIP3    H147378   3.102   6.202   0.017  0.8883  1.3456  0.9757
 8629TIP3    H247379   3.008   6.280   0.107 -1.2677 -0.1966  0.1265
 8630TIP3   OH247380   1.936   3.579  11.736 -0.9454 -0.5062 -0.1553
 8630TIP3    H147381   1.905   3.602  11.824  1.2257 -2.7769  1.3401
 8630TIP3    H247382   2.000   3.510  11.751 -2.1588 -2.6681 -3.7250
 8631TIP3   OH247383   1.523   5.983   2.425  0.2903 -0.1557  0.0359
 8631TIP3    H147384   1.605   5.933   2.427 -0.0387 -0.6771  1.2035
 8631TIP3    H247385   1.548   6.071   2.454  0.4247 -0.3410  0.4905
 8632TIP3   OH247386   5.075   6.827   3.369  0.1576 -0.4529 -0.7938
 8632TIP3    H147387   5.074   6.745   3.419  0.6973  0.0742  0.1040
 8632TIP3    H247388   5.161   6.828   3.327  1.6728  1.2643  2.0259
 8633TIP3   OH247389   5.287   0.727   1.202  0.0377 -0.0219 -0.2550
 8633TIP3    H147390   5.209   0.769   1.239 -1.1264 -1.2534 -1.1960
 8633TIP3    H247391   5.314   0.664   1.269  0.4073  0.6200  0.2001
 8634TIP3   OH247392   1.759   0.227   1.757  0.5396 -0.0085 -0.2319
 8634TIP3    H147393   1.848   0.235   1.791  0.2666  2.3674  0.1366
 8634TIP3    H247394   1.716   0.166   1.817  1.5641 -0.1418  0.3909
 8635TIP3   OH247395   6.435   2.812  13.464  0.6269  0.4257 -0.1361
 8635TIP3    H147396   6.410   2.852  13.380  0.6594 -0.5720 -0.6294
 8635TIP3    H247397   6.530   2.806  13.460  0.4964 -1.8372 -1.0899
 8636TIP3   OH247398   0.950   1.304   0.808  0.5636 -0.0730  0.2617
 8636TIP3    H147399   0.923   1.303   0.716 -0.2091 -1.4884  0.4816
 8636TIP3    H247400   0.874   1.272   0.856  0.4702  1.9541  1.5715
 8637TIP3   OH247401   3.503   2.892   0.349 -0.2038  0.7422  0.3398
 8637TIP3    H147402   3.426   2.924   0.396 -0.0295 -0.1969  1.3312
 8637TIP3    H247403   3.563   2.966   0.348 -0.3078  0.8707  1.4265
 8638TIP3   OH247404   1.229   4.620  12.952  0.2819  0.3198  0.3591
 8638TIP3    H147405   1.314   4.661  12.938 -0.4074  2.7499  2.5327
 8638TIP3    H247406   1.230   4.595  13.045 -1.2793  0.1511  0.3470
 8639TIP3   OH247407   3.551   4.439   5.661  0.0665  0.4749 -0.0315
 8639TIP3    H147408   3.606   4.361   5.670  0.2718  0.5809 -0.3195
 8639TIP3    H247409   3.609   4.511   5.685 -0.1684  0.5242  0.3786
 8640TIP3   OH247410   3.430   6.470   0.837  0.3930 -0.3961  0.3166
 8640TIP3    H147411   3.446   6.442   0.747 -0.7822 -0.6954  0.1906
 8640TIP3    H247412   3.490   6.544   0.850  1.8486 -1.4596 -0.1183
 8641TIP3   OH247413   1.455   0.251   3.051 -0.3307  0.1811 -0.0231
 8641TIP3    H147414   1.409   0.196   2.988 -2.0185  0.9956  0.4361
 8641TIP3    H247415   1.508   0.310   2.998  0.2149 -0.7598 -0.5629
 8642TIP3   OH247416   3.141   2.234   3.794  0.2375  0.0461 -0.6348
 8642TIP3    H147417   3.161   2.151   3.837  1.6550  0.3498 -0.6702
 8642TIP3    H247418   3.167   2.301   3.857 -2.0777  0.5099 -0.0729
 8643TIP3   OH247419   3.082   5.807   5.053 -0.7998  0.1527  0.3710
 8643TIP3    H147420   3.068   5.832   4.962 -1.0441  1.0857  0.6629
 8643TIP3    H247421   2.995   5.810   5.093 -1.2261 -3.0865 -0.0178
 8644TIP3   OH247422   6.229   6.023   2.964 -0.6493 -0.1705  0.0889
 8644TIP3    H147423   6.316   6.063   2.969 -0.8198  0.2047  0.1155
 8644TIP3    H247424   6.235   5.961   2.892  0.3342 -1.8754  1.5536
 8645TIP3   OH247425   2.582   6.331   4.417  0.2512 -0.1448  0.2898
 8645TIP3    H147426   2.631   6.250   4.401 -0.2769 -0.5507  0.6725
 8645TIP3    H247427   2.616   6.393   4.354 -0.1398 -1.0109 -0.8040
 8646TIP3   OH247428   5.606   3.743   0.196  0.1202 -0.1540 -0.5062
 8646TIP3    H147429   5.659   3.763   0.274 -0.1339  1.6591 -0.7649
 8646TIP3    H247430   5.522   3.786   0.212  0.3973  1.1207 -2.1768
 8647TIP3   OH247431   4.271   2.935   1.900  0.2138 -0.1417 -0.1185
 8647TIP3    H147432   4.357   2.895   1.892  0.1109 -0.2200 -0.9052
 8647TIP3    H247433   4.263   2.991   1.823 -0.2550  0.2289  0.1895
 8648TIP3   OH247434   5.027   3.575  16.013  0.2339 -0.0989  0.5823
 8648TIP3    H147435   5.113   3.598  15.979  0.0130  0.4784  0.4003
 8648TIP3    H247436   4.986   3.659  16.034 -0.0305 -0.3995  1.2983
 8649TIP3   OH247437   5.013   3.965  12.493  0.1849  0.5375  0.6301
 8649TIP3    H147438   4.928   3.937  12.526  0.5202 -1.6548 -0.2129
 8649TIP3    H247439   4.997   3.992  12.403  0.2205  1.0698  0.7821
 8650TIP3   OH247440   2.212   1.229  12.208 -0.4784 -0.3478  0.5628
 8650TIP3    H147441   2.193   1.303  12.151 -0.5272  0.7564  1.9669
 8650TIP3    H247442   2.169   1.251  12.291  1.8072 -0.6389  1.8940
 8651TIP3   OH247443   4.709   6.329  12.406 -0.2058 -0.1036  0.1470
 8651TIP3    H147444   4.656   6.360  12.332 -1.4532 -0.2739  0.9439
 8651TIP3    H247445   4.667   6.248  12.433  0.6355 -0.3846  0.6363
 8652TIP3   OH247446   4.218   6.024  13.856 -0.1688  0.4423 -0.0645
 8652TIP3    H147447   4.197   6.044  13.947  0.0760 -0.2889  0.1593
 8652TIP3    H247448   4.204   6.107  13.809  1.0499  1.2068  0.8553
 8653TIP3   OH247449   5.051   4.111   3.155 -0.4059  0.6211  0.3417
 8653TIP3    H147450   4.998   4.096   3.233 -1.4680  0.4488 -0.3893
 8653TIP3    H247451   5.039   4.204   3.134 -1.1420  0.3880 -0.3214
 8654TIP3   OH247452   2.939   1.134   4.976 -0.0926  0.1885  0.3486
 8654TIP3    H147453   2.989   1.172   4.903 -1.4376  0.8036 -0.2985
 8654TIP3    H247454   2.999   1.071   5.016  2.4116  3.1289  1.6741
 8655TIP3   OH247455   2.123   2.815  15.648 -0.1368 -0.2552  0.1053
 8655TIP3    H147456   2.132   2.759  15.725 -0.4032 -0.3151  0.0934
 8655TIP3    H247457   2.171   2.894  15.670  0.8466 -0.7633 -0.1423
 8656TIP3   OH247458   2.690   4.893   0.509  0.1100  0.1049 -0.4203
 8656TIP3    H147459   2.688   4.802   0.536 -0.3017  0.3024  0.2420
 8656TIP3    H247460   2.677   4.890   0.415  0.5444 -0.5415 -0.4685
 8657TIP3   OH247461   2.070   0.176  13.537 -0.6857 -0.0330  0.5077
 8657TIP3    H147462   2.048   0.104  13.597 -4.4325  1.5355  1.3434
 8657TIP3    H247463   2.014   0.161  13.460  1.0907  0.1667 -0.8796
 8658TIP3   OH247464   5.488   0.423   3.085 -0.4151 -0.1661 -0.7126
 8658TIP3    H147465   5.529   0.339   3.108  0.8357  0.0028 -2.1725
 8658TIP3    H247466   5.544   0.459   3.016 -0.4486  2.2742  0.4390
 8659TIP3   OH247467   5.300   6.711  11.037 -0.3241 -0.0747 -0.1568
 8659TIP3    H147468   5.252   6.789  11.010 -1.4106 -0.0627  1.6098
 8659TIP3    H247469   5.378   6.709  10.982 -0.5128  2.0087 -0.5491
 8660TIP3   OH247470   2.723   5.861  17.110 -0.5166 -0.2487  0.3828
 8660TIP3    H147471   2.807   5.895  17.141 -0.6319  1.3077 -0.8438
 8660TIP3    H247472   2.713   5.900  17.023 -1.1221 -2.8013 -0.7812
 8661TIP3   OH247473   0.658   2.950   0.744  0.0255  0.6374 -0.4460
 8661TIP3    H147474   0.661   2.930   0.651  2.7518 -1.0628 -0.0939
 8661TIP3    H247475   0.746   2.982   0.765 -0.2986  0.2994  1.6490
 8662TIP3   OH247476   5.511   3.561  16.733 -0.5644  0.3874  0.4316
 8662TIP3    H147477   5.539   3.478  16.772 -0.8565  1.1793  2.4886
 8662TIP3    H247478   5.581   3.623  16.756 -0.4172  0.7621 -0.9538
 8663TIP3   OH247479   3.914   3.791   1.167  0.6615  0.1054 -0.1089
 8663TIP3    H147480   3.831   3.825   1.200  0.6407 -1.0651  1.1196
 8663TIP3    H247481   3.908   3.697   1.180  2.2151  0.0072  0.0776
 8664TIP3   OH247482   0.358   6.179  16.066 -0.2136  0.1223  0.3451
 8664TIP3    H147483   0.345   6.226  15.984  0.7346  0.1591  0.1958
 8664TIP3    H247484   0.300   6.222  16.129  0.2499  1.1575  0.0841
 8665TIP3   OH247485   1.288   3.657  13.117  0.1910 -0.3513  0.0594
 8665TIP3    H147486   1.280   3.683  13.209  0.2908  0.6675 -0.2140
 8665TIP3    H247487   1.380   3.637  13.105  0.1348 -0.7356  0.2369
 8666TIP3   OH247488   1.978   2.004  11.531  0.1106 -0.1479 -0.6353
 8666TIP3    H147489   1.960   1.920  11.573  1.2396  0.7363  1.8488
 8666TIP3    H247490   1.892   2.041  11.512 -0.4042 -1.4864 -1.0374
 8667TIP3   OH247491   2.306   0.592   4.311  0.1861 -0.5268  0.4346
 8667TIP3    H147492   2.288   0.571   4.220  1.2373  1.2109 -0.2252
 8667TIP3    H247493   2.233   0.554   4.360 -0.5723 -1.1876 -1.1625
 8668TIP3   OH247494   4.922   5.980   1.420 -0.2049  0.5115 -0.6374
 8668TIP3    H147495   4.833   6.015   1.416  0.6314  3.1076  0.5228
 8668TIP3    H247496   4.945   5.985   1.513  0.9427 -0.7103 -0.8309
 8669TIP3   OH247497   6.360   4.553   5.579 -0.2512  0.1718 -0.5581
 8669TIP3    H147498   6.362   4.647   5.562  0.0370  0.3723  0.5522
 8669TIP3    H247499   6.451   4.524   5.565 -0.0949  0.2687  0.2464
 8670TIP3   OH247500   6.791   5.301  13.626 -0.6385  0.0818 -0.0159
 8670TIP3    H147501   6.762   5.256  13.705  0.8092 -0.0711  0.4616
 8670TIP3    H247502   6.714   5.303  13.570 -1.9526  0.9424  1.7184
 8671TIP3   OH247503   4.931   3.540   0.921  0.5357 -0.3031 -0.3251
 8671TIP3    H147504   4.947   3.611   0.984  1.2048  0.0132 -0.8496
 8671TIP3    H247505   4.867   3.484   0.965  0.3552  0.3699  0.2918
 8672TIP3   OH247506   6.290   6.380   2.347  0.5742 -0.2029  0.5471
 8672TIP3    H147507   6.336   6.398   2.265 -1.2243  0.4891 -0.3768
 8672TIP3    H247508   6.257   6.291   2.336 -0.0147  0.0364  0.3205
 8673TIP3   OH247509   3.974   0.694   5.195  0.3495 -0.1353 -0.3853
 8673TIP3    H147510   3.951   0.665   5.107 -3.4525 -0.5528  0.5403
 8673TIP3    H247511   3.896   0.675   5.247  1.7052  1.8639  2.6781
 8674TIP3   OH247512   0.745   1.697   5.592  0.3852 -0.2155  0.0072
 8674TIP3    H147513   0.681   1.661   5.654  0.7831 -0.3717  0.3292
 8674TIP3    H247514   0.808   1.744   5.647 -0.0334  0.8344 -0.3906
 8675TIP3   OH247515   6.273   3.300   6.479  0.4470  0.3399 -0.3103
 8675TIP3    H147516   6.241   3.264   6.562 -2.0801 -0.0184 -1.3504
 8675TIP3    H247517   6.223   3.380   6.466  0.1565 -0.0516 -1.8563
 8676TIP3   OH247518   4.075   6.321  11.458  0.1279  0.7017 -0.2067
 8676TIP3    H147519   4.027   6.252  11.506  0.5448  0.5901  0.0505
 8676TIP3    H247520   4.029   6.402  11.481  0.5053  0.6874  0.6227
 8677TIP3   OH247521   5.707   5.879   3.033 -0.7080  0.5702 -0.2362
 8677TIP3    H147522   5.687   5.786   3.040 -1.0872  0.5249 -1.6030
 8677TIP3    H247523   5.794   5.882   2.994 -0.9301  0.7677 -0.7371
 8678TIP3   OH247524   1.025   2.245  14.691 -0.1733  0.4198  0.3349
 8678TIP3    H147525   1.104   2.196  14.668 -0.9982  0.0704 -2.0714
 8678TIP3    H247526   1.016   2.311  14.622 -3.4093 -1.3546 -1.1688
 8679TIP3   OH247527   1.868   5.671  12.144 -0.5230  0.2312  0.1939
 8679TIP3    H147528   1.773   5.674  12.129 -0.6458  0.5946  0.9923
 8679TIP3    H247529   1.885   5.579  12.164 -1.0698  0.5131  2.1583
 8680TIP3   OH247530   4.046   6.462  15.187 -0.0404  0.1442 -0.0680
 8680TIP3    H147531   4.093   6.379  15.196 -0.0370 -0.0394 -1.5345
 8680TIP3    H247532   4.109   6.529  15.210 -0.0446 -0.2531  1.1401
 8681TIP3   OH247533   3.300   2.649   2.473  0.2537 -0.1354 -0.7576
 8681TIP3    H147534   3.226   2.667   2.415  0.6673  0.9629 -0.9654
 8681TIP3    H247535   3.261   2.609   2.550 -0.3135 -1.5136 -1.7382
 8682TIP3   OH247536   1.210   0.076  15.226 -0.1653  0.4992  0.8639
 8682TIP3    H147537   1.145   0.070  15.156  1.1438 -0.4991 -0.3273
 8682TIP3    H247538   1.286   0.117  15.184  1.4931 -2.2300  0.9611
 8683TIP3   OH247539   2.265   2.787  14.681 -0.6706  0.2676  0.3061
 8683TIP3    H147540   2.172   2.805  14.692 -0.5271  0.4682  1.2120
 8683TIP3    H247541   2.297   2.770  14.769  0.4372  1.5558  0.1769
 8684TIP3   OH247542   0.004   6.561   1.176  0.5123  0.1816 -0.5309
 8684TIP3    H147543  -0.075   6.509   1.162  1.9460 -1.6979 -2.2898
 8684TIP3    H247544  -0.003   6.634   1.115 -0.1773  0.4344 -0.1541
 8685TIP3   OH247545   0.804   3.497   3.097  0.0928  0.1305  0.0715
 8685TIP3    H147546   0.753   3.455   3.028 -0.2502 -0.3892  0.6326
 8685TIP3    H247547   0.823   3.427   3.159  0.2386  0.6268  0.6002
 8686TIP3   OH247548   1.771   1.294   0.232 -0.4079  0.1497  0.7075
 8686TIP3    H147549   1.835   1.365   0.238 -0.9305  0.7751 -0.6809
 8686TIP3    H247550   1.704   1.317   0.297 -0.9283  1.3442 -0.2108
 8687TIP3   OH247551   1.468   6.790  16.448 -0.2804 -0.3194  0.1130
 8687TIP3    H147552   1.424   6.846  16.511  2.0824 -0.8186  2.3857
 8687TIP3    H247553   1.498   6.849  16.379  0.4729  0.9497  1.4782
 8688TIP3   OH247554   1.610   2.110  14.488  0.0393  0.2005 -0.3653
 8688TIP3    H147555   1.554   2.034  14.501  0.4983 -0.0755  0.0517
 8688TIP3    H247556   1.560   2.183  14.526  0.1069 -0.1043  0.3321
 8689TIP3   OH247557   1.973   5.383   4.960 -0.1150  0.3249 -0.3993
 8689TIP3    H147558   1.889   5.342   4.980  0.8167 -0.3663  2.6165
 8689TIP3    H247559   2.000   5.424   5.043  3.4448 -1.2796 -0.5924
 8690TIP3   OH247560   5.009   3.187   4.855 -0.1436 -0.1052 -0.3503
 8690TIP3    H147561   5.096   3.226   4.846 -0.2197  0.3010  0.5939
 8690TIP3    H247562   4.979   3.215   4.941 -1.1652 -0.3466 -0.6192
 8691TIP3   OH247563   0.844   5.732  16.849  0.5740  0.0097 -0.1807
 8691TIP3    H147564   0.836   5.648  16.806  0.1759 -0.3171  0.5127
 8691TIP3    H247565   0.810   5.717  16.938 -3.4784  1.8586 -1.1879
 8692TIP3   OH247566   1.027   1.583   3.843 -0.9457  0.4222 -0.3441
 8692TIP3    H147567   0.959   1.539   3.790  0.2704 -0.1312 -1.5127
 8692TIP3    H247568   1.036   1.669   3.803  0.3641 -0.1910 -1.4668
 8693TIP3   OH247569   5.796   0.040   3.981  0.3069 -0.0699  0.3742
 8693TIP3    H147570   5.798  -0.053   3.958 -0.6441 -0.6228  2.3228
 8693TIP3    H247571   5.811   0.041   4.076  0.2457  1.7743  0.3869
 8694TIP3   OH247572   5.877   3.446  14.183 -0.1382  0.2293 -0.1306
 8694TIP3    H147573   5.813   3.487  14.125 -1.1330 -0.6549  0.3057
 8694TIP3    H247574   5.835   3.446  14.269  0.9996  0.8301  0.4484
 8695TIP3   OH247575   3.580   4.233   1.690  0.0934 -0.0995 -0.1741
 8695TIP3    H147576   3.574   4.286   1.769 -1.1431 -0.7492  0.1984
 8695TIP3    H247577   3.665   4.190   1.696  0.3263  0.4292  0.4237
 8696TIP3   OH247578   1.358   1.536   3.891 -0.2917 -0.5256 -0.0620
 8696TIP3    H147579   1.407   1.618   3.888 -1.1322 -0.0445 -1.7556
 8696TIP3    H247580   1.278   1.558   3.938  0.6653 -1.1063  1.9540
 8697TIP3   OH247581   1.359   2.555   5.466 -0.0415  0.0053 -0.1656
 8697TIP3    H147582   1.418   2.626   5.440  0.1941  0.2702  1.0700
 8697TIP3    H247583   1.418   2.482   5.488 -0.2001  0.0357  0.3676
 8698TIP3   OH247584   4.878   6.085  13.350 -0.2790  0.1470  0.9547
 8698TIP3    H147585   4.905   6.170  13.317 -0.7003  0.1153  0.5181
 8698TIP3    H247586   4.792   6.070  13.312  0.2864 -0.9981  0.0525
 8699TIP3   OH247587   0.106   3.018   4.167 -0.5842 -0.2777  0.2761
 8699TIP3    H147588   0.141   2.994   4.082 -1.6369  1.3896 -0.6807
 8699TIP3    H247589   0.174   2.994   4.230  0.2225 -1.4892 -1.0149
 8700TIP3   OH247590   1.989   3.821   0.522 -0.0309  0.2980  0.6068
 8700TIP3    H147591   1.953   3.788   0.604  0.6952  0.0439  0.8338
 8700TIP3    H247592   1.933   3.895   0.499 -0.6351 -0.0379  0.9893
 8701TIP3   OH247593   3.848   4.476   3.864  0.3679 -0.2362  0.0701
 8701TIP3    H147594   3.787   4.527   3.811  0.8506 -0.7937 -1.0630
 8701TIP3    H247595   3.797   4.400   3.892  0.4783 -0.5929 -0.6903
 8702TIP3   OH247596   0.120   6.320  12.861 -0.3329 -0.5009 -0.5434
 8702TIP3    H147597   0.108   6.398  12.806 -0.6131  0.6939  1.1307
 8702TIP3    H247598   0.193   6.273  12.820  2.0879  2.3213  0.1460
 8703TIP3   OH247599   5.684   3.410   5.976 -0.7928 -0.5662  0.2121
 8703TIP3    H147600   5.623   3.432   6.045  0.3753 -0.2379  1.1763
 8703TIP3    H247601   5.767   3.393   6.021 -0.3325 -1.7041 -0.9798
 8704TIP3   OH247602   3.426   6.637   0.242  0.2752 -0.2729 -0.3201
 8704TIP3    H147603   3.411   6.708   0.180 -1.2599 -0.7917 -0.5719
 8704TIP3    H247604   3.414   6.557   0.191  0.2436 -0.7141  0.3653
 8705TIP3   OH247605   6.499   0.052   3.920 -0.2125  0.4241  0.3470
 8705TIP3    H147606   6.505  -0.043   3.933 -1.1220  0.3139  0.0558
 8705TIP3    H247607   6.576   0.074   3.868 -0.0587 -0.1786  0.3105
 8706TIP3   OH247608   6.000   1.849  13.219 -0.0576  0.2953 -0.4498
 8706TIP3    H147609   6.032   1.888  13.137  1.7935 -0.6994 -0.2627
 8706TIP3    H247610   6.030   1.758  13.215  0.1862  0.2590  1.3701
 8707TIP3   OH247611   4.565   0.910  11.343  0.5411 -0.0501  0.5569
 8707TIP3    H147612   4.597   0.916  11.253  0.4194 -0.0277  0.5148
 8707TIP3    H247613   4.644   0.912  11.397  0.8040 -2.5344  0.3631
 8708TIP3   OH247614   3.756   3.197  16.375 -0.3267  0.0568 -0.2081
 8708TIP3    H147615   3.847   3.181  16.399 -0.4771 -1.1100 -0.3483
 8708TIP3    H247616   3.705   3.172  16.452 -0.5254  1.0297 -0.0037
 8709TIP3   OH247617   2.610   2.226  13.652  0.3118  0.5029  0.3286
 8709TIP3    H147618   2.596   2.178  13.570 -0.3005 -0.0408  0.7489
 8709TIP3    H247619   2.673   2.173  13.700  0.4881  0.7016  0.3208
 8710TIP3   OH247620   2.573   2.009   3.046  0.3273 -0.2706  0.4505
 8710TIP3    H147621   2.564   1.981   3.137  0.8812  1.2643  1.0116
 8710TIP3    H247622   2.511   2.081   3.037  1.4414  0.6879  0.1210
 8711TIP3   OH247623   6.044   5.365   5.039 -0.2230  0.1566 -0.2675
 8711TIP3    H147624   5.973   5.311   5.005  0.9095 -0.9057 -1.0229
 8711TIP3    H247625   6.023   5.378   5.132 -1.5070  0.0759 -0.5274
 8712TIP3   OH247626   5.433   1.409   4.279  0.4097  0.3370  0.2082
 8712TIP3    H147627   5.351   1.436   4.321  1.0976  1.7887  0.6849
 8712TIP3    H247628   5.490   1.385   4.352  0.6643  0.0866 -0.0710
 8713TIP3   OH247629   0.867   0.150  15.924  0.7682 -0.0139  0.5419
 8713TIP3    H147630   0.949   0.176  15.965  1.0610 -0.2962  0.1342
 8713TIP3    H247631   0.877   0.173  15.832  0.2577  0.2690  0.5529
 8714TIP3   OH247632   1.378   4.162  10.947 -0.1805 -0.5709 -0.1306
 8714TIP3    H147633   1.439   4.221  10.902 -0.1077 -1.3381 -1.0808
 8714TIP3    H247634   1.294   4.178  10.905 -0.7232  0.6390  1.3262
 8715TIP3   OH247635   0.104   1.025  13.992  0.5074 -0.5020 -0.3032
 8715TIP3    H147636   0.092   1.003  13.899  0.2295  3.2998 -1.3246
 8715TIP3    H247637   0.020   1.003  14.032  0.5443 -1.9545 -0.9461
 8716TIP3   OH247638   5.146   6.075  12.641 -0.5189  0.4056 -0.3766
 8716TIP3    H147639   5.053   6.066  12.622 -0.6999 -0.8609  0.9365
 8716TIP3    H247640   5.150   6.135  12.716 -0.4017 -0.5229  0.3851
 8717TIP3   OH247641   0.186   0.495   0.695  0.1111  0.6217  0.2398
 8717TIP3    H147642   0.133   0.423   0.729 -2.2789  1.7466 -0.8195
 8717TIP3    H247643   0.270   0.488   0.741 -0.6054 -1.8487  1.3072
 8718TIP3   OH247644   1.480   4.698  12.881  0.1112 -0.2042  0.1003
 8718TIP3    H147645   1.525   4.780  12.861 -1.6889  0.8271  0.1161
 8718TIP3    H247646   1.551   4.635  12.895  1.5512  1.5030  0.8773
 8719TIP3   OH247647   3.985   5.114   6.507 -0.2283  0.6257 -0.1356
 8719TIP3    H147648   4.008   5.127   6.415  0.5559 -1.4134 -0.2909
 8719TIP3    H247649   3.892   5.091   6.506  0.0463 -0.5114 -0.5643
 8720TIP3   OH247650   5.491   4.146  16.717 -0.3991  0.4426 -0.0651
 8720TIP3    H147651   5.446   4.136  16.801 -0.7466 -0.0838 -0.3043
 8720TIP3    H247652   5.529   4.060  16.700  0.2236  0.7325 -0.1364
 8721TIP3   OH247653   5.626   4.378  16.584 -0.0596  0.0394 -0.2669
 8721TIP3    H147654   5.606   4.291  16.617  0.7728 -0.5921 -1.3370
 8721TIP3    H247655   5.547   4.405  16.536 -0.5423  0.1405  0.5799
 8722TIP3   OH247656   3.770   4.164  15.305 -0.0603 -0.1478  0.0908
 8722TIP3    H147657   3.814   4.080  15.314 -1.3937 -0.7842  0.9382
 8722TIP3    H247658   3.745   4.188  15.394  0.8674  1.4812 -0.0511
 8723TIP3   OH247659   2.085   1.421   0.529  0.0022  0.1796  0.2391
 8723TIP3    H147660   2.039   1.338   0.541 -2.8205  1.6422  0.4058
 8723TIP3    H247661   2.081   1.463   0.615  3.1450 -0.1989  0.7149
 8724TIP3   OH247662   1.282   2.445  13.332  0.0999 -1.2477 -0.1018
 8724TIP3    H147663   1.321   2.526  13.299 -0.1000 -0.7429  0.8459
 8724TIP3    H247664   1.274   2.389  13.255 -0.9068  0.0981 -1.0346
 8725TIP3   OH247665   5.531   2.414   1.901 -0.4054 -0.6237 -0.0295
 8725TIP3    H147666   5.599   2.426   1.835 -0.3409 -2.2612 -0.2947
 8725TIP3    H247667   5.451   2.446   1.858 -0.0293  0.1631 -0.1639
 8726TIP3   OH247668   4.129   1.032   0.524 -0.0857 -0.1169 -0.0574
 8726TIP3    H147669   4.157   1.032   0.616  0.8335 -0.1444 -0.3247
 8726TIP3    H247670   4.207   1.004   0.476 -1.0352 -1.7412 -0.7149
 8727TIP3   OH247671   5.641   0.230   5.204  0.5089  0.5191 -0.3181
 8727TIP3    H147672   5.705   0.167   5.169  1.5381  2.1146 -1.4334
 8727TIP3    H247673   5.565   0.176   5.226  0.1936 -0.8508 -3.9655
 8728TIP3   OH247674   6.456   1.033   3.542  0.1084 -0.1301 -0.2499
 8728TIP3    H147675   6.549   1.050   3.531  0.3269 -0.7202  0.6383
 8728TIP3    H247676   6.443   0.945   3.506 -0.0314 -0.2110 -0.0031
 8729TIP3   OH247677   4.738   2.359   1.835 -0.3578  0.1738 -0.3367
 8729TIP3    H147678   4.706   2.337   1.922  2.9007 -2.5470  0.3897
 8729TIP3    H247679   4.757   2.452   1.839 -2.2914  0.5590  1.0899
 8730TIP3   OH247680   2.019   6.636  12.035  0.2053  0.1303 -0.0355
 8730TIP3    H147681   2.023   6.687  12.116 -0.9581  0.5762 -0.2361
 8730TIP3    H247682   2.005   6.546  12.065 -0.7749  0.3704  0.2624
 8731TIP3   OH247683   2.694   1.292   0.527 -0.0215 -0.4954 -0.8445
 8731TIP3    H147684   2.774   1.241   0.540 -0.9639 -1.2453  4.2796
 8731TIP3    H247685   2.708   1.371   0.579 -2.3585 -0.4010 -0.2550
 8732TIP3   OH247686   2.363   0.766   0.483 -0.7300  0.7977  0.0313
 8732TIP3    H147687   2.423   0.746   0.555 -0.4394  2.6682  0.3742
 8732TIP3    H247688   2.404   0.725   0.407 -0.1555  0.2082  0.6370
 8733TIP3   OH247689   5.165   6.231  11.430  0.4273  0.2927  0.9643
 8733TIP3    H147690   5.151   6.304  11.370 -1.0029  0.3261  1.3187
 8733TIP3    H247691   5.121   6.157  11.388  0.3075  0.0709  1.4733
 8734TIP3   OH247692   4.151   2.547   0.993 -0.0188 -0.1010 -0.0562
 8734TIP3    H147693   4.232   2.515   0.955  0.1305 -0.8456  0.8468
 8734TIP3    H247694   4.112   2.602   0.925  0.0781 -1.6056 -1.3901
 8735TIP3   OH247695   6.641   3.756  13.532 -0.5906 -0.3116 -0.2883
 8735TIP3    H147696   6.677   3.754  13.443 -0.6301  1.8203 -0.4140
 8735TIP3    H247697   6.546   3.754  13.521 -0.6062  0.3624 -0.3484
 8736TIP3   OH247698   5.820   2.653  12.210 -0.2730 -0.3631  0.3315
 8736TIP3    H147699   5.763   2.660  12.286  0.4762 -1.2160  0.9968
 8736TIP3    H247700   5.762   2.659  12.135 -0.8881  1.9145  0.9172
 8737TIP3   OH247701   6.401   0.965  12.645  0.0164 -0.1283  0.1269
 8737TIP3    H147702   6.491   0.977  12.675  1.2359 -1.8720 -2.4310
 8737TIP3    H247703   6.376   0.879  12.678 -0.7032  0.3267  0.7828
 8738TIP3   OH247704   1.015   2.915   6.159  0.3800 -0.9106  0.4123
 8738TIP3    H147705   0.995   2.829   6.196 -0.7790 -0.9582 -0.2679
 8738TIP3    H247706   0.932   2.945   6.122  0.2700  1.3826  2.3299
 8739TIP3   OH247707   4.149   1.153   6.667  0.1569  0.0472 -0.2965
 8739TIP3    H147708   4.145   1.201   6.585 -1.6173  1.1920  0.4138
 8739TIP3    H247709   4.185   1.216   6.730 -0.4278 -0.1467  0.2421
 8740TIP3   OH247710   6.854   5.515  14.537 -0.0916 -0.2059 -0.8054
 8740TIP3    H147711   6.812   5.523  14.451 -1.2728  0.7153 -0.1618
 8740TIP3    H247712   6.937   5.469  14.519 -1.1848 -1.7699 -2.1671
 8741TIP3   OH247713   3.563   5.818  11.522  0.3670 -0.2108  0.0454
 8741TIP3    H147714   3.540   5.861  11.440  1.5229 -0.5830 -0.4880
 8741TIP3    H247715   3.624   5.749  11.497 -0.9683 -1.7975  0.9478
 8742TIP3   OH247716   6.438   3.451   1.231  0.6564 -0.6303 -0.0028
 8742TIP3    H147717   6.384   3.372   1.226  0.8962 -0.8288  0.4567
 8742TIP3    H247718   6.404   3.508   1.163 -0.3050 -0.6398  0.4593
 8743TIP3   OH247719   1.018   0.384  14.890  0.1203  0.0798  0.2058
 8743TIP3    H147720   1.055   0.442  14.958 -0.4245  0.2493  0.3619
 8743TIP3    H247721   1.069   0.404  14.812  0.1501  0.5479  0.3396
 8744TIP3   OH247722   6.511   0.196  12.038 -0.3855  0.0800 -0.1291
 8744TIP3    H147723   6.507   0.231  11.949 -0.9434 -0.0327 -0.1496
 8744TIP3    H247724   6.585   0.242  12.078 -0.0650  0.0611 -0.6787
 8745TIP3   OH247725   5.626   1.618  15.857  0.0576  0.4814  0.4389
 8745TIP3    H147726   5.619   1.642  15.950  0.0739  0.0084  0.5649
 8745TIP3    H247727   5.538   1.633  15.822 -0.0800  0.1700  0.6506
 8746TIP3   OH247728   6.694   2.848  16.088 -0.1956 -0.2347  0.3228
 8746TIP3    H147729   6.706   2.928  16.139 -1.5657 -0.7226  1.4998
 8746TIP3    H247730   6.707   2.777  16.152  0.5352 -0.9487 -0.5939
 8747TIP3   OH247731   1.503   0.041  14.114  0.1397  0.1851 -0.2228
 8747TIP3    H147732   1.423   0.083  14.144  0.4095 -0.6218  1.8149
 8747TIP3    H247733   1.483   0.012  14.025 -0.9538  2.1419 -0.6634
 8748TIP3   OH247734   0.812   2.758   5.708  0.1435 -0.1324  0.2053
 8748TIP3    H147735   0.763   2.829   5.748 -1.3415  0.3567 -2.2868
 8748TIP3    H247736   0.798   2.683   5.767 -0.4266  0.9507  1.5010
 8749TIP3   OH247737   6.030   5.187   4.134 -0.2942  0.2790 -0.0367
 8749TIP3    H147738   5.979   5.226   4.063  0.0768 -0.4672 -0.7299
 8749TIP3    H247739   6.094   5.131   4.090 -0.6812 -0.9578  0.8912
 8750TIP3   OH247740   5.372   0.985   2.287  0.4952 -0.3237 -0.2453
 8750TIP3    H147741   5.401   0.940   2.367  2.9712  0.0382 -0.8769
 8750TIP3    H247742   5.376   1.078   2.310  0.7982 -0.2339 -0.6674
 8751TIP3   OH247743   5.820   4.121   0.069 -0.1553  0.0757 -0.0954
 8751TIP3    H147744   5.863   4.070   0.138  0.5006 -1.4298 -1.5496
 8751TIP3    H247745   5.885   4.186   0.043  0.2501 -0.4476 -0.4246
 8752TIP3   OH247746   5.990   2.917   1.716 -0.2839  0.1992 -0.7319
 8752TIP3    H147747   6.014   2.854   1.648 -2.3996 -0.7023 -0.7281
 8752TIP3    H247748   6.051   2.898   1.788  1.4110  0.5876 -1.9825
 8753TIP3   OH247749   2.914   4.671   3.075  0.4799  0.3637  0.4407
 8753TIP3    H147750   2.939   4.588   3.035  1.2393  0.6746  0.2605
 8753TIP3    H247751   2.854   4.646   3.145 -0.2095 -0.2465 -0.3456
 8754TIP3   OH247752   4.389   5.666   2.977  0.2981 -0.3179  0.1603
 8754TIP3    H147753   4.408   5.633   3.064  2.4291 -1.4136 -0.6433
 8754TIP3    H247754   4.347   5.751   2.992 -1.3713 -1.4322  2.2280
 8755TIP3   OH247755   2.104   1.441  15.300 -0.5063 -0.7374 -0.0458
 8755TIP3    H147756   2.193   1.468  15.279 -0.4830  0.2855  1.2247
 8755TIP3    H247757   2.096   1.352  15.266  0.2681 -0.0690 -2.1349
 8756TIP3   OH247758   2.939   5.996   0.573  0.2541  0.0211 -0.4203
 8756TIP3    H147759   2.973   5.967   0.488 -0.5756 -1.9859 -0.1441
 8756TIP3    H247760   2.868   6.057   0.552 -2.2126 -2.9207 -1.4389
 8757TIP3   OH247761   2.508   1.014   0.644  0.6933  0.0795  0.5438
 8757TIP3    H147762   2.424   1.014   0.598  0.9061  0.7716  0.1284
 8757TIP3    H247763   2.527   0.922   0.660  0.3620 -0.1497 -0.3165
 8758TIP3   OH247764   6.528   3.771   5.880  0.1938  0.3482 -0.1747
 8758TIP3    H147765   6.568   3.847   5.838  0.5885  0.6422  0.6959
 8758TIP3    H247766   6.603   3.719   5.910 -0.0461 -1.0703 -1.9016
 8759TIP3   OH247767   6.379   0.857  12.399 -0.9076 -0.4568  0.5892
 8759TIP3    H147768   6.418   0.771  12.412  0.3087 -0.2954 -1.5727
 8759TIP3    H247769   6.388   0.901  12.483 -0.5381 -2.0398  1.4008
 8760TIP3   OH247770   4.161   2.848  13.758  0.4046 -0.5762 -0.1897
 8760TIP3    H147771   4.184   2.924  13.812 -1.0368  0.0373 -0.4150
 8760TIP3    H247772   4.200   2.866  13.673  0.0716 -0.0856 -0.2412
 8761TIP3   OH247773   4.830   6.798  14.173 -0.3491  0.3550 -0.3959
 8761TIP3    H147774   4.752   6.784  14.120 -1.0866  0.9460  0.5007
 8761TIP3    H247775   4.805   6.865  14.237  0.8228  0.4046  0.0485
 8762TIP3   OH247776   4.383   2.654  12.379 -0.6147  0.2159 -0.0899
 8762TIP3    H147777   4.353   2.563  12.385 -1.8817  0.6319  0.1897
 8762TIP3    H247778   4.456   2.660  12.440 -0.5472 -0.5994 -0.0846
 8763TIP3   OH247779   5.954   5.614  15.142 -0.2423  0.5775 -0.1776
 8763TIP3    H147780   6.022   5.569  15.194  0.0206  0.9912 -0.1591
 8763TIP3    H247781   5.943   5.559  15.065 -0.2152  0.2637  0.0391
 8764TIP3   OH247782   5.719   1.611   3.675 -0.1466 -1.0697  0.8549
 8764TIP3    H147783   5.768   1.615   3.592  1.7720  0.4874  1.9815
 8764TIP3    H247784   5.644   1.556   3.655  0.2972 -0.8343 -1.9068
 8765TIP3   OH247785   2.754   5.847  11.341 -0.1352 -0.6515  0.4219
 8765TIP3    H147786   2.823   5.797  11.383  0.5652  0.4636  0.6341
 8765TIP3    H247787   2.676   5.793  11.350  0.4002 -1.2634  1.4901
 8766TIP3   OH247788   3.191   0.725   5.699  0.4408  0.2004 -0.3464
 8766TIP3    H147789   3.285   0.738   5.711  0.3316  2.2921 -1.3479
 8766TIP3    H247790   3.164   0.677   5.778  2.2669 -0.1592  0.1171
 8767TIP3   OH247791   3.166   2.667   1.208 -0.2777 -0.2636  0.3579
 8767TIP3    H147792   3.241   2.719   1.237  0.0645 -0.4793 -0.1189
 8767TIP3    H247793   3.110   2.730   1.163  1.1046 -0.6006 -2.0512
 8768TIP3   OH247794   6.005   2.731  16.560 -0.0390 -0.3088  0.6429
 8768TIP3    H147795   6.022   2.825  16.566  2.2516 -0.4851 -1.4700
 8768TIP3    H247796   6.090   2.690  16.572 -0.6344 -1.9870 -0.4765
 8769TIP3   OH247797   6.383   6.137  15.055  0.6547  0.1490 -0.1392
 8769TIP3    H147798   6.319   6.075  15.089 -0.4326  0.6459 -1.2046
 8769TIP3    H247799   6.450   6.083  15.014 -0.0071 -0.3410 -0.5796
 8770TIP3   OH247800   2.419   2.460   1.090  0.5593 -0.0757 -0.2729
 8770TIP3    H147801   2.329   2.459   1.058  0.5032  0.7411 -0.1469
 8770TIP3    H247802   2.438   2.368   1.111  0.1680 -0.4373 -1.4280
 8771TIP3   OH247803   1.475   0.679   1.324  0.0032 -0.4889  0.2416
 8771TIP3    H147804   1.381   0.688   1.339  0.2918  1.6302  1.2805
 8771TIP3    H247805   1.514   0.753   1.372  2.2340 -1.5433  0.2012
 8772TIP3   OH247806   3.348   2.278  16.730  0.1885  0.1414 -0.1470
 8772TIP3    H147807   3.287   2.317  16.792 -0.8519  0.8772 -1.5566
 8772TIP3    H247808   3.417   2.239  16.784 -0.0576  1.7475  1.4034
 8773TIP3   OH247809   6.238   0.333  13.118  0.4600 -0.2720  0.2609
 8773TIP3    H147810   6.305   0.399  13.102  0.8448 -0.4230  1.1533
 8773TIP3    H247811   6.276   0.276  13.186 -1.0646  0.4053  1.7551
 8774TIP3   OH247812   1.573   0.092   1.925 -0.6279 -0.2729 -0.2880
 8774TIP3    H147813   1.559   0.078   2.019 -0.3112 -0.4104 -0.2629
 8774TIP3    H247814   1.492   0.061   1.885 -1.6220  1.6632  0.0864
 8775TIP3   OH247815   1.109   1.214  15.269 -0.2056 -0.4050  0.2908
 8775TIP3    H147816   1.024   1.171  15.281 -0.1772 -0.2393  1.1248
 8775TIP3    H247817   1.172   1.155  15.310  0.1959 -0.9073 -1.0066
 8776TIP3   OH247818   2.841   5.939  14.560 -0.0567  0.0322 -0.4589
 8776TIP3    H147819   2.935   5.935  14.577 -0.0496  1.0789 -0.2060
 8776TIP3    H247820   2.828   5.880  14.485  0.6337 -0.8951  0.1244
 8777TIP3   OH247821   2.564   0.624   1.604 -0.3133 -0.1529  0.5291
 8777TIP3    H147822   2.533   0.642   1.692  2.4364  0.5701  1.4309
 8777TIP3    H247823   2.616   0.543   1.612 -0.5463 -0.4392 -0.5636
 8778TIP3   OH247824   0.286   2.051   1.102  0.3034 -0.7029  0.1812
 8778TIP3    H147825   0.354   2.065   1.167  1.1376 -0.8608 -0.6278
 8778TIP3    H247826   0.212   2.014   1.150 -0.2537  1.9994  1.5775
 8779TIP3   OH247827   4.519   1.783  13.036 -0.2731 -0.4515  0.3953
 8779TIP3    H147828   4.546   1.694  13.057 -0.5497 -1.3896 -2.7470
 8779TIP3    H247829   4.424   1.784  13.051 -0.9741 -1.9714 -3.0275
 8780TIP3   OH247830   3.281   0.177  11.841 -0.3790  0.3974 -0.3419
 8780TIP3    H147831   3.262   0.264  11.804  2.3290  0.8791 -0.7745
 8780TIP3    H247832   3.241   0.116  11.780  0.6009  1.2839 -1.9425
 8781TIP3   OH247833   3.661   4.863  13.761  0.4132 -0.0473 -0.5737
 8781TIP3    H147834   3.672   4.940  13.817 -1.5942  0.3606 -0.6613
 8781TIP3    H247835   3.746   4.851  13.720  0.6719  2.4455 -0.9500
 8782TIP3   OH247836   1.318   5.348   5.410  0.0645  0.2725  0.0148
 8782TIP3    H147837   1.291   5.261   5.379  3.2141  0.1301 -2.9213
 8782TIP3    H247838   1.378   5.330   5.482  0.5635  0.0052 -0.4613
 8783TIP3   OH247839   2.047   0.513  16.156 -0.4467 -0.0742 -0.6536
 8783TIP3    H147840   1.969   0.538  16.107 -0.9303 -0.8585 -0.3180
 8783TIP3    H247841   2.025   0.426  16.191  0.6525 -0.3837 -0.7165
 8784TIP3   OH247842   0.475   4.873  11.045 -0.2290 -0.0190 -0.4491
 8784TIP3    H147843   0.410   4.851  10.979 -1.2135  0.2827  0.3919
 8784TIP3    H247844   0.466   4.967  11.059 -1.5792 -0.3804  1.6326
 8785TIP3   OH247845   1.271   4.344   4.801 -0.0690 -0.5593  0.1412
 8785TIP3    H147846   1.209   4.377   4.735  0.6398 -0.4519 -0.4829
 8785TIP3    H247847   1.217   4.293   4.861 -0.6527 -1.1493 -0.8531
 8786TIP3   OH247848   0.225   3.314   3.905 -0.7883 -0.3897  0.1111
 8786TIP3    H147849   0.219   3.405   3.875  0.2553 -0.4236 -0.2386
 8786TIP3    H247850   0.183   3.315   3.991 -0.0057  0.6291  0.5137
 8787TIP3   OH247851   1.075   3.126  16.780  0.2643 -0.4309  0.5160
 8787TIP3    H147852   1.123   3.207  16.796  1.8135 -1.0480 -0.7028
 8787TIP3    H247853   1.114   3.090  16.701 -2.3592 -0.9170 -0.6853
 8788TIP3   OH247854   0.541   1.190   6.016 -0.6150 -0.3889  0.5140
 8788TIP3    H147855   0.635   1.180   6.028 -0.3746  0.9005 -0.1444
 8788TIP3    H247856   0.509   1.224   6.099 -0.1629  1.1485  0.0746
 8789TIP3   OH247857   6.216   0.389   0.860 -0.1510 -0.1138 -0.0001
 8789TIP3    H147858   6.308   0.364   0.850  0.4245  2.3829 -2.2186
 8789TIP3    H247859   6.166   0.315   0.826  1.0195 -1.2796  0.7419
 8790TIP3   OH247860   5.989   4.153  12.733  0.0481  0.2964 -0.5298
 8790TIP3    H147861   6.035   4.113  12.807  1.2832 -1.2936 -2.0674
 8790TIP3    H247862   5.897   4.132  12.747  0.3225 -0.4245  0.2911
 8791TIP3   OH247863   2.209   0.988  14.528 -0.0774  0.3449  0.2484
 8791TIP3    H147864   2.203   1.076  14.491  0.5747  0.4656  0.4153
 8791TIP3    H247865   2.164   0.994  14.612  1.4763  0.9959  1.0759
 8792TIP3   OH247866   5.917   5.505  16.568  0.4285 -0.2942  0.3167
 8792TIP3    H147867   5.902   5.520  16.661  0.7559  2.8256 -0.0351
 8792TIP3    H247868   5.840   5.456  16.540 -1.1146  1.1541  1.7451
 8793TIP3   OH247869   3.997   5.848  13.716  0.0155  0.2536  0.5647
 8793TIP3    H147870   4.067   5.796  13.756  1.2033  0.3846 -1.2196
 8793TIP3    H247871   3.932   5.783  13.687  0.2426 -0.0145  0.6575
 8794TIP3   OH247872   3.908   4.760  15.019  0.3454 -0.0243 -0.6077
 8794TIP3    H147873   3.972   4.795  14.957  0.4000 -1.0951 -1.1743
 8794TIP3    H247874   3.872   4.682  14.976  0.8283 -1.1627  0.9588
 8795TIP3   OH247875   3.222   1.245   1.571 -0.0194 -0.3609 -0.0173
 8795TIP3    H147876   3.140   1.196   1.575  0.1372 -0.5722  0.7243
 8795TIP3    H247877   3.226   1.293   1.654  1.2391 -1.4159  0.5686
 8796TIP3   OH247878   5.007   1.504   5.769  0.3880  0.1901  0.0629
 8796TIP3    H147879   5.020   1.592   5.732 -1.7434 -0.1924 -1.7499
 8796TIP3    H247880   5.048   1.445   5.706 -2.6240 -0.4140 -1.4876
 8797TIP3   OH247881   5.129   0.057   1.108  0.4224 -0.3184 -0.0995
 8797TIP3    H147882   5.076  -0.022   1.102 -0.9433  0.6524 -1.6056
 8797TIP3    H247883   5.109   0.106   1.028  1.6202  1.3070  0.5351
 8798TIP3   OH247884   0.753   1.343  10.753 -0.0759  0.0723  0.3134
 8798TIP3    H147885   0.729   1.376  10.666  1.9612 -0.2613 -0.4418
 8798TIP3    H247886   0.731   1.250  10.750  0.4581 -0.0452 -0.0382
 8799TIP3   OH247887   6.019   2.248   0.760 -0.0564 -0.3854 -0.3041
 8799TIP3    H147888   5.941   2.224   0.811  0.6655 -0.4670  0.7953
 8799TIP3    H247889   5.993   2.328   0.714 -0.7740 -0.3603  0.1153
 8800TIP3   OH247890   3.460   1.060   5.983 -0.3005 -0.7057  0.6193
 8800TIP3    H147891   3.501   1.138   6.021 -0.2653  0.6422 -1.9524
 8800TIP3    H247892   3.525   0.991   5.996  1.4175  0.6250 -0.4766
 8801TIP3   OH247893   3.014   0.353   4.302  0.0051  0.1423 -0.4682
 8801TIP3    H147894   2.966   0.376   4.222  1.5298  0.6730 -1.2760
 8801TIP3    H247895   3.083   0.292   4.272  1.1934  1.0856  0.2475
 8802TIP3   OH247896   2.313   6.826  13.168  0.5985  0.7876 -0.1882
 8802TIP3    H147897   2.402   6.852  13.145  0.8558 -0.0812 -0.2378
 8802TIP3    H247898   2.318   6.804  13.261  0.2726  1.4032 -0.0267
 8803TIP3   OH247899   1.906   6.724  12.712  0.0791 -0.0929  0.2516
 8803TIP3    H147900   1.942   6.794  12.767  2.0155  0.3003 -1.3968
 8803TIP3    H247901   1.983   6.674  12.684 -0.6981  0.2220 -2.7541
 8804TIP3   OH247902   2.999   1.605   0.897  0.3143 -0.2314  0.3640
 8804TIP3    H147903   3.085   1.643   0.913 -0.3090  1.0403  0.8706
 8804TIP3    H247904   3.003   1.519   0.938  2.3837 -1.6125 -2.4216
 8805TIP3   OH247905   4.489   3.261   5.427  0.5852 -0.0550  0.1946
 8805TIP3    H147906   4.554   3.306   5.479  1.0918 -1.0619  0.4517
 8805TIP3    H247907   4.501   3.168   5.447 -1.6781 -0.2037  1.1336
 8806TIP3   OH247908   2.894   3.578   4.809  0.1922  0.4027 -0.3125
 8806TIP3    H147909   2.924   3.669   4.812 -0.7349  0.6950  1.6329
 8806TIP3    H247910   2.975   3.527   4.818  0.5982  1.0747 -0.0039
 8807TIP3   OH247911   1.218   2.910  16.136  0.0799  0.0828  0.8068
 8807TIP3    H147912   1.152   2.840  16.133 -0.0498  0.1970  0.9959
 8807TIP3    H247913   1.302   2.865  16.138 -0.0112 -0.0667  1.1526
 8808TIP3   OH247914   0.697   0.151   4.099 -0.5357 -0.3830  0.5307
 8808TIP3    H147915   0.654   0.068   4.076 -1.5608  0.6940 -1.6596
 8808TIP3    H247916   0.626   0.215   4.103  0.0851  0.2581  3.3378
 8809TIP3   OH247917   0.429   5.252  13.156 -0.4367  0.2837  0.3702
 8809TIP3    H147918   0.414   5.221  13.066 -0.2977 -0.2739  0.5319
 8809TIP3    H247919   0.456   5.343  13.146  0.5436 -0.0589 -0.2258
 8810TIP3   OH247920   0.633   0.316  16.726  0.2949 -0.4544 -0.0689
 8810TIP3    H147921   0.691   0.274  16.662  1.1389 -0.3048  0.5799
 8810TIP3    H247922   0.619   0.404  16.692  1.2773 -0.1530  0.2601
 8811TIP3   OH247923   4.961   3.666  13.470  0.1129 -0.5709 -0.8492
 8811TIP3    H147924   4.978   3.724  13.544 -1.3771  0.8574 -1.5549
 8811TIP3    H247925   4.872   3.687  13.443  0.2860 -1.7158 -2.4788
 8812TIP3   OH247926   6.793   0.878  16.909 -0.7727  0.4580  0.3363
 8812TIP3    H147927   6.821   0.810  16.970 -0.2487  0.0527 -0.3430
 8812TIP3    H247928   6.867   0.939  16.906  0.1745 -0.6926 -1.5765
 8813TIP3   OH247929   2.117   0.761   5.081 -0.1577 -0.0055  0.3196
 8813TIP3    H147930   2.075   0.705   5.146  2.5303 -3.0152 -0.2957
 8813TIP3    H247931   2.210   0.755   5.100  0.4597  2.0132 -1.6146
 8814TIP3   OH247932   3.277   4.437   5.614 -0.5661  0.0076 -0.1481
 8814TIP3    H147933   3.282   4.359   5.558 -0.6446 -0.6093  0.6749
 8814TIP3    H247934   3.367   4.454   5.639 -0.4167  0.8819 -1.2481
 8815TIP3   OH247935   4.165   0.121  11.856  0.0132  0.4776  0.3646
 8815TIP3    H147936   4.149   0.114  11.950  2.0937 -0.8720  0.6934
 8815TIP3    H247937   4.195   0.211  11.844  0.0215  0.5753  1.0570
 8816TIP3   OH247938   5.144   0.700   0.923 -0.0817 -0.0300 -0.3700
 8816TIP3    H147939   5.085   0.741   0.861  0.8082  0.2127 -1.0822
 8816TIP3    H247940   5.125   0.742   1.007 -0.9669 -0.0294 -0.5615
 8817TIP3   OH247941   2.339   3.949   0.648 -0.6698  0.4530 -0.3667
 8817TIP3    H147942   2.291   3.894   0.586 -0.8155  0.2365 -0.0601
 8817TIP3    H247943   2.424   3.964   0.606 -0.4306 -0.4393 -0.2186
 8818TIP3   OH247944   5.462   3.503   0.222  0.1710 -0.6283 -0.7650
 8818TIP3    H147945   5.512   3.584   0.221 -1.5849  0.5712  0.7441
 8818TIP3    H247946   5.527   3.434   0.208  1.9973  0.9114 -0.2669
 8819TIP3   OH247947   3.198   4.970   0.987 -0.8550  0.2357 -0.4442
 8819TIP3    H147948   3.233   4.973   0.898  1.8005 -0.4818  0.4761
 8819TIP3    H247949   3.154   4.885   0.992  1.0758 -0.8389 -0.4474
 8820TIP3   OH247950   4.451   4.521   3.734  0.2694  0.2979  0.2961
 8820TIP3    H147951   4.518   4.481   3.789  0.9522  1.9287  0.7264
 8820TIP3    H247952   4.402   4.447   3.697  0.4612 -0.8754  2.2483
 8821TIP3   OH247953   3.768   5.990   1.073 -0.0926  0.5457  0.0363
 8821TIP3    H147954   3.848   6.042   1.072 -0.4756  1.1715 -1.4943
 8821TIP3    H247955   3.699   6.051   1.045 -0.8328 -0.3589 -0.1917
 8822TIP3   OH247956   6.751   3.155   4.051  0.5336  0.1974  0.0743
 8822TIP3    H147957   6.821   3.099   4.084  0.5575  0.2256  0.0721
 8822TIP3    H247958   6.762   3.153   3.956 -0.0060 -0.4981  0.0168
 8823TIP3   OH247959   2.869   0.692   3.765  0.0633 -0.6906 -0.0887
 8823TIP3    H147960   2.786   0.739   3.764  0.1614 -0.5131  0.0471
 8823TIP3    H247961   2.914   0.725   3.842 -0.5845 -2.2542  1.0041
 8824TIP3   OH247962   6.381   5.435  16.946  0.7345  0.2157  0.2770
 8824TIP3    H147963   6.414   5.351  16.913  0.7904  0.3215  0.0559
 8824TIP3    H247964   6.451   5.498  16.924  0.1130  0.5612 -0.7988
 8825TIP3   OH247965   1.260   0.930  11.776  0.4519  0.1244  0.0266
 8825TIP3    H147966   1.191   0.983  11.737  1.0285  0.5605 -0.4189
 8825TIP3    H247967   1.225   0.841  11.776 -0.5852  0.5074  0.9201
 8826TIP3   OH247968   5.849   6.506  13.613 -0.5398 -0.6728  0.2719
 8826TIP3    H147969   5.860   6.561  13.535  1.0281  0.9257  1.5233
 8826TIP3    H247970   5.775   6.544  13.659  1.8999  2.0997  2.3005
 8827TIP3   OH247971   1.572   5.436  11.273  0.0858  0.1080  0.5757
 8827TIP3    H147972   1.497   5.442  11.213  1.2750  2.1816 -0.8233
 8827TIP3    H247973   1.584   5.525  11.305  1.5909 -0.2988  1.2259
 8828TIP3   OH247974   1.242   1.840   0.798  0.3193 -0.1533  0.1461
 8828TIP3    H147975   1.309   1.775   0.818  0.2135 -0.9569 -1.9075
 8828TIP3    H247976   1.227   1.831   0.704 -2.2171  0.4535  0.4353
 8829TIP3   OH247977   0.454   4.891   0.723  0.4414  0.4441  0.2678
 8829TIP3    H147978   0.470   4.807   0.681 -1.0594 -0.2454  0.9923
 8829TIP3    H247979   0.419   4.869   0.809 -0.1840  1.8106  0.3934
 8830TIP3   OH247980   3.095   3.032  15.242  0.7825  0.0985  0.2126
 8830TIP3    H147981   3.187   3.048  15.261  1.4334 -1.5300 -1.2857
 8830TIP3    H247982   3.073   3.096  15.174  0.9989  0.0459  0.0929
 8831TIP3   OH247983   2.900   5.242  14.365 -0.0295 -0.5369 -0.6988
 8831TIP3    H147984   2.851   5.253  14.283 -3.2180 -0.0919  1.1127
 8831TIP3    H247985   2.877   5.154  14.394  0.0372 -0.2141  0.3550
 8832TIP3   OH247986   3.129   4.907   0.029 -0.0372  0.8816 -0.5171
 8832TIP3    H147987   3.157   4.818   0.007 -1.2672  0.7354 -1.6130
 8832TIP3    H247988   3.211   4.955   0.040  0.6530 -0.1457 -0.9642
 8833TIP3   OH247989   6.064   5.499   2.133  0.2106 -0.1147  0.3008
 8833TIP3    H147990   5.984   5.491   2.081  0.2808 -1.5081  0.3688
 8833TIP3    H247991   6.109   5.575   2.097  0.0241 -0.7500 -1.3727
 8834TIP3   OH247992   6.200   3.165   4.249  0.1166 -0.9094 -0.7640
 8834TIP3    H147993   6.214   3.098   4.316  0.1531  0.0724  0.2383
 8834TIP3    H247994   6.266   3.231   4.267 -1.2862  0.4351 -0.3565
 8835TIP3   OH247995   0.392   6.050   0.887  0.0981 -0.2478  0.0102
 8835TIP3    H147996   0.327   6.075   0.822 -1.0119 -0.8318  0.8617
 8835TIP3    H247997   0.409   6.131   0.936  1.2590  0.3008 -1.2278
 8836TIP3   OH247998   5.615   1.730  13.656 -0.8047  0.5539 -0.1677
 8836TIP3    H147999   5.536   1.719  13.603 -0.9354 -0.3272  0.1979
 8836TIP3    H248000   5.584   1.773  13.736 -1.2649 -1.3828  0.7619
 8837TIP3   OH248001   5.207   1.613   4.215  0.4868  0.1871  0.7375
 8837TIP3    H148002   5.223   1.706   4.196  0.9862  0.0243  0.3166
 8837TIP3    H248003   5.203   1.609   4.310 -0.1281  0.7308  0.7444
 8838TIP3   OH248004   2.460   1.051   4.178 -0.5443  0.1089 -0.1362
 8838TIP3    H148005   2.529   1.012   4.124 -0.6781  2.1628 -1.9737
 8838TIP3    H248006   2.380   1.036   4.128 -0.6272  2.3516 -0.8191
 8839TIP3   OH248007   0.332   4.239   1.212  0.0907  0.1341  0.2468
 8839TIP3    H148008   0.373   4.325   1.202  0.4368  0.1134  1.3316
 8839TIP3    H248009   0.238   4.255   1.200  0.3906  0.0726 -2.9258
 8840TIP3   OH248010   5.062   3.833   2.720  0.1290 -0.4756  0.2757
 8840TIP3    H148011   5.089   3.899   2.784 -1.2275 -0.8037  1.2353
 8840TIP3    H248012   5.052   3.881   2.638  2.3825 -0.1340  0.1388
 8841TIP3   OH248013   1.337   4.794  14.071 -0.5210  0.1448 -0.4159
 8841TIP3    H148014   1.415   4.784  14.017 -0.5657 -0.7022 -0.3446
 8841TIP3    H248015   1.367   4.777  14.161 -1.0833 -1.9900 -0.5679
 8842TIP3   OH248016   0.917   0.731  14.967  0.0832  0.0164  0.2998
 8842TIP3    H148017   0.986   0.681  15.009 -0.4227 -0.3183  0.7337
 8842TIP3    H248018   0.851   0.743  15.034 -0.1907  0.5202 -0.0512
 8843TIP3   OH248019   5.829   1.221  16.842  0.2756 -0.3780  0.6843
 8843TIP3    H148020   5.883   1.177  16.908  0.1417  0.5545  1.4260
 8843TIP3    H248021   5.890   1.275  16.793  0.1915 -0.2027  0.7746
 8844TIP3   OH248022   4.436   3.627  15.607 -0.1100  0.0413  0.4214
 8844TIP3    H148023   4.483   3.548  15.632  1.6002  1.2102  1.1021
 8844TIP3    H248024   4.349   3.617  15.647 -0.1245 -1.6993  0.0312
 8845TIP3   OH248025   5.709   3.913  12.644  0.4663 -0.0710 -0.2343
 8845TIP3    H148026   5.709   3.847  12.575 -2.3398 -1.1791  0.7083
 8845TIP3    H248027   5.694   3.995  12.599  0.8991 -0.4662 -1.1195
 8846TIP3   OH248028   6.858   6.382   5.441 -0.1807 -0.0018 -0.4352
 8846TIP3    H148029   6.770   6.399   5.407 -0.0371 -2.7453 -2.5244
 8846TIP3    H248030   6.916   6.432   5.384 -0.2586  0.4955 -0.0910
 8847TIP3   OH248031   5.511   6.670   4.044  0.2163 -0.4934  0.1141
 8847TIP3    H148032   5.516   6.605   4.114 -1.0896 -0.2109  0.5104
 8847TIP3    H248033   5.521   6.619   3.963 -1.5809 -1.3653  0.3773
 8848TIP3   OH248034   6.565   6.609  15.308  0.1370  0.0240 -0.0756
 8848TIP3    H148035   6.595   6.658  15.231 -1.2397  0.9692 -0.0424
 8848TIP3    H248036   6.562   6.518  15.279  0.8201  0.2093 -0.7601
 8849TIP3   OH248037   5.405   4.342  14.918  0.1845  0.5209 -0.0555
 8849TIP3    H148038   5.369   4.415  14.868 -0.2209  0.3364 -0.0332
 8849TIP3    H248039   5.484   4.317  14.870 -0.0613  0.5158 -0.4610
 8850TIP3   OH248040   0.056   3.911   2.043 -0.4099  0.2402  0.6773
 8850TIP3    H148041   0.012   3.931   2.126  0.6111  0.3081  1.2169
 8850TIP3    H248042  -0.014   3.909   1.979 -1.1420  0.8422  1.4349
 8851TIP3   OH248043   1.700   5.055  12.426 -0.1306  0.3568  0.1098
 8851TIP3    H148044   1.632   5.023  12.485 -0.9128  0.8589 -0.4881
 8851TIP3    H248045   1.773   5.078  12.483  0.5296 -2.4984  0.5923
 8852TIP3   OH248046   6.609   2.178   1.391  0.1950  0.9115  0.0694
 8852TIP3    H148047   6.534   2.198   1.448 -1.2153  1.9250 -1.9834
 8852TIP3    H248048   6.620   2.083   1.398 -1.3441  0.7240  0.4062
 8853TIP3   OH248049   2.178   4.907  12.442  0.3208 -0.0032  0.8547
 8853TIP3    H148050   2.268   4.892  12.411  0.4387 -1.2060  1.7004
 8853TIP3    H248051   2.127   4.836  12.404 -0.2857  0.6879  0.3647
 8854TIP3   OH248052   6.627   5.249   3.103 -0.2076 -0.2505 -0.0599
 8854TIP3    H148053   6.675   5.196   3.168 -1.9735 -0.7600  0.8898
 8854TIP3    H248054   6.579   5.184   3.051 -1.1540  0.3291  0.0827
 8855TIP3   OH248055   4.170   5.022  15.708 -0.2375 -0.0012 -0.1236
 8855TIP3    H148056   4.224   5.067  15.644  1.6006 -0.4062  1.0706
 8855TIP3    H248057   4.232   4.971  15.760 -1.9744 -1.9105  0.1792
 8856TIP3   OH248058   5.871   3.203   0.770 -0.3176  0.0664  0.7413
 8856TIP3    H148059   5.788   3.235   0.807 -0.1568  1.8272 -0.3348
 8856TIP3    H248060   5.885   3.256   0.692 -0.0412 -2.7223 -1.2534
 8857TIP3   OH248061   6.528   4.752  11.930  0.5098  0.0843 -0.4200
 8857TIP3    H148062   6.589   4.678  11.931  0.8091  0.3275 -0.5647
 8857TIP3    H248063   6.560   4.809  11.861  0.4812  0.5183 -0.0811
 8858TIP3   OH248064   6.036   0.650  10.511 -0.0217  0.0127  0.2413
 8858TIP3    H148065   5.953   0.652  10.558 -0.5876  1.0763 -0.7500
 8858TIP3    H248066   6.037   0.732  10.462  0.9520 -0.6615 -0.9034
 8859TIP3   OH248067   4.218   6.411   5.604 -0.1465 -0.2917 -0.1265
 8859TIP3    H148068   4.219   6.328   5.652 -0.5595  0.8053  1.9155
 8859TIP3    H248069   4.125   6.426   5.583 -0.5024  0.8841  1.9499
 8860TIP3   OH248070   0.624   2.082  10.546  0.0510 -0.4239 -0.0278
 8860TIP3    H148071   0.716   2.092  10.567  0.5515 -3.2819 -0.4421
 8860TIP3    H248072   0.613   2.122  10.460  0.6103  0.9102  0.4968
 8861TIP3   OH248073   6.700   6.100  11.877 -0.0289 -0.1827  0.0712
 8861TIP3    H148074   6.732   6.019  11.836  0.8673  0.6561 -0.9632
 8861TIP3    H248075   6.728   6.093  11.968  1.1467 -0.5138 -0.2874
 8862TIP3   OH248076   3.312   3.207  11.206  0.6074  0.2557  0.3652
 8862TIP3    H148077   3.377   3.241  11.146  1.0333 -0.0373  0.6552
 8862TIP3    H248078   3.343   3.119  11.229  0.1841  0.1637  0.6086
 8863TIP3   OH248079   2.075   0.938   3.754 -0.2365 -0.1347 -0.5053
 8863TIP3    H148080   2.094   1.017   3.705  2.0653  1.1576  2.2009
 8863TIP3    H248081   2.028   0.968   3.832  1.0242 -1.3005  0.7813
 8864TIP3   OH248082   3.448   2.970  11.262  0.3930 -0.3390  0.4649
 8864TIP3    H148083   3.475   2.890  11.307  1.1460  0.9942  2.5209
 8864TIP3    H248084   3.443   2.945  11.169  0.0342 -2.8871  1.0980
 8865TIP3   OH248085   1.921   0.850  10.344  0.2581 -0.3265 -0.4455
 8865TIP3    H148086   1.974   0.930  10.343  0.3843 -0.4073 -1.3511
 8865TIP3    H248087   1.831   0.881  10.345  0.2984 -0.1574 -1.2426
 8866TIP3   OH248088   6.499   5.185   2.797  0.4778 -0.1623 -0.0697
 8866TIP3    H148089   6.576   5.143   2.835  0.3748 -0.5232 -0.2634
 8866TIP3    H248090   6.425   5.145   2.842  0.3870 -0.0499 -0.1180
 8867TIP3   OH248091   3.105   4.023   4.107  0.1899 -0.9032  0.2171
 8867TIP3    H148092   3.100   4.026   4.202  2.5582 -1.4652  0.4293
 8867TIP3    H248093   3.199   4.016   4.088 -0.1144  0.2593 -2.1931
 8868TIP3   OH248094   5.338   5.264  12.171 -0.3809  0.1351  0.1094
 8868TIP3    H148095   5.244   5.253  12.157 -0.6210  0.6701  1.2443
 8868TIP3    H248096   5.377   5.190  12.123 -1.4990 -1.2605  1.2534
 8869TIP3   OH248097   0.881   3.557  10.802 -0.3487  0.7216 -0.5125
 8869TIP3    H148098   0.965   3.579  10.761  0.8001 -1.1976  0.6173
 8869TIP3    H248099   0.860   3.632  10.857  2.5676 -0.0990  2.0054
 8870TIP3   OH248100   4.846   1.458  12.975 -0.1694 -0.4138 -0.0894
 8870TIP3    H148101   4.783   1.393  13.007 -0.1343 -0.9208 -1.0072
 8870TIP3    H248102   4.809   1.542  13.002 -1.3920 -0.6844 -0.8156
 8871TIP3   OH248103   4.059   0.150  16.855 -0.0110  0.3558 -0.2341
 8871TIP3    H148104   4.132   0.211  16.850 -0.8892  1.4044 -0.4423
 8871TIP3    H248105   3.981   0.204  16.848 -0.9048 -0.4687  2.2226
 8872TIP3   OH248106   0.656   1.092  10.746  0.1570  0.1378 -0.8376
 8872TIP3    H148107   0.623   1.013  10.789 -0.5954  0.9964  0.2325
 8872TIP3    H248108   0.707   1.060  10.671 -0.4903 -1.3337 -0.6793
 8873TIP3   OH248109   4.222   6.167  14.545 -0.5068  0.0400 -0.5077
 8873TIP3    H148110   4.248   6.246  14.593 -0.5465 -1.0377  1.3738
 8873TIP3    H248111   4.291   6.103  14.563 -0.3872 -0.3473 -2.1494
 8874TIP3   OH248112   0.281   1.256   0.437 -0.4617  0.5204  0.0626
 8874TIP3    H148113   0.314   1.342   0.411  0.3769 -0.0682 -0.8777
 8874TIP3    H248114   0.328   1.235   0.518 -1.7108  1.5389  1.1032
 8875TIP3   OH248115   2.749   4.348  13.833 -0.0966 -0.1448  0.4642
 8875TIP3    H148116   2.742   4.376  13.924  1.7098  1.1150  0.2542
 8875TIP3    H248117   2.673   4.388  13.790 -0.6278 -0.2542  1.2702
 8876TIP3   OH248118   3.451   2.460   1.365 -0.0489  0.3324  0.3836
 8876TIP3    H148119   3.425   2.551   1.384 -0.7399  0.1501  0.3490
 8876TIP3    H248120   3.466   2.459   1.271 -1.5564  0.0658  0.1154
 8877TIP3   OH248121   1.714   6.130  12.068  0.2938  0.0550  0.3870
 8877TIP3    H148122   1.678   6.048  12.101 -1.4908  1.0856  1.1380
 8877TIP3    H248123   1.697   6.194  12.137  0.6034  1.2977 -0.6441
 8878TIP3   OH248124   3.487   5.113  15.300 -0.1411 -0.2664  0.4393
 8878TIP3    H148125   3.565   5.168  15.308  0.7204 -1.5841  1.4098
 8878TIP3    H248126   3.432   5.139  15.374  0.3622 -0.8344  1.0247
 8879TIP3   OH248127   3.181   3.986  11.269 -0.1663  0.6140  0.1438
 8879TIP3    H148128   3.198   4.011  11.179 -1.0684  3.1320  0.5827
 8879TIP3    H248129   3.105   3.928  11.265 -0.6943  1.3525 -0.6603
 8880TIP3   OH248130   1.526   2.890  12.400 -0.1790  0.2360  0.1785
 8880TIP3    H148131   1.543   2.893  12.306 -3.1896  1.0571 -0.4424
 8880TIP3    H248132   1.605   2.926  12.440  0.8641  0.6012 -2.0561
 8881TIP3   OH248133   6.195   0.413   0.466 -0.3794  0.1455  0.9308
 8881TIP3    H148134   6.248   0.491   0.451 -0.5684 -0.2222 -2.2287
 8881TIP3    H248135   6.259   0.341   0.469 -0.4609 -0.0316 -0.6248
 8882TIP3   OH248136   4.718   4.432  12.552 -0.3049 -0.2091 -0.0444
 8882TIP3    H148137   4.799   4.431  12.603 -0.1930  0.6522 -0.1792
 8882TIP3    H248138   4.676   4.348  12.570 -0.9290  0.5786  2.5056
 8883TIP3   OH248139   0.035   5.839  15.342  0.1857  0.2101  0.0073
 8883TIP3    H148140  -0.049   5.878  15.320 -0.7396 -1.0845  1.0901
 8883TIP3    H248141   0.093   5.914  15.360 -1.2296  1.0979  1.0272
 8884TIP3   OH248142   1.533   2.045  16.045  0.3319  0.5372 -0.3809
 8884TIP3    H148143   1.553   2.010  15.958 -0.5903  0.5769 -0.6167
 8884TIP3    H248144   1.529   1.969  16.102  3.3312  0.6577  0.1728
 8885TIP3   OH248145   4.788   2.972   0.972 -0.4192 -0.4075 -0.5863
 8885TIP3    H148146   4.739   3.049   1.002  0.2709 -0.9291  2.1309
 8885TIP3    H248147   4.746   2.898   1.017  0.6770 -1.2813 -0.9624
 8886TIP3   OH248148   6.794   6.739  16.180  0.3581  0.5574  0.2184
 8886TIP3    H148149   6.865   6.783  16.227 -0.7011  1.2702  1.2008
 8886TIP3    H248150   6.714   6.783  16.210 -0.5850 -0.8391 -0.1413
 8887TIP3   OH248151   4.363   3.020   5.324 -0.0701  0.2459 -0.0658
 8887TIP3    H148152   4.301   2.947   5.315  1.4310 -0.8094 -4.8712
 8887TIP3    H248153   4.311   3.098   5.304 -0.4633 -0.3478 -1.5609
 8888TIP3   OH248154   6.744   6.798   5.147  0.1779 -0.8716  0.0296
 8888TIP3    H148155   6.697   6.847   5.214  0.7441 -1.6661  1.0275
 8888TIP3    H248156   6.835   6.798   5.176  0.3743 -1.5241 -0.5607
 8889TIP3   OH248157   4.714   3.077  14.597  0.1238  0.5986 -0.4900
 8889TIP3    H148158   4.799   3.061  14.636  0.7527  2.2144 -1.1278
 8889TIP3    H248159   4.733   3.109  14.509 -1.2264 -2.0571 -1.8678
 8890TIP3   OH248160   4.093   5.490   4.711  0.4740  0.1758  0.4037
 8890TIP3    H148161   3.999   5.501   4.697  0.7861  1.9608 -0.6046
 8890TIP3    H248162   4.124   5.447   4.631  0.4523 -1.0577  1.0267
 8891TIP3   OH248163   2.868   2.504  14.783 -0.1458 -0.1275 -0.6654
 8891TIP3    H148164   2.809   2.575  14.755 -0.4765 -0.0719  0.1549
 8891TIP3    H248165   2.849   2.433  14.722  0.3731  0.5633 -1.6640
 8892TIP3   OH248166   5.965   6.189   4.241 -0.0775 -0.2471  0.1067
 8892TIP3    H148167   6.004   6.103   4.257  0.0022 -0.0657  0.9465
 8892TIP3    H248168   5.932   6.217   4.327 -2.0282 -0.3630 -0.5705
 8893TIP3   OH248169   3.082   5.384   6.136 -0.2627  0.1295  0.4614
 8893TIP3    H148170   2.995   5.346   6.151  0.1897 -1.3280 -0.3345
 8893TIP3    H248171   3.142   5.309   6.139  0.9794  1.1099  1.0329
 8894TIP3   OH248172   4.333   5.157  13.667  0.2040 -0.1039  0.6246
 8894TIP3    H148173   4.313   5.215  13.740  2.6291 -0.3447  1.5688
 8894TIP3    H248174   4.404   5.201  13.620  1.2249 -1.6740  0.6214
 8895TIP3   OH248175   5.849   2.558  14.293 -0.5475  0.5194 -0.2138
 8895TIP3    H148176   5.895   2.641  14.283  2.1955 -0.9796 -1.2070
 8895TIP3    H248177   5.764   2.573  14.253 -1.3412  3.6510  2.2675
 8896TIP3   OH248178   6.778   4.453  14.080  0.3986  0.3663 -0.6118
 8896TIP3    H148179   6.868   4.465  14.050 -0.2193  0.9501 -2.3525
 8896TIP3    H248180   6.776   4.490  14.168  1.7281  0.8050 -0.7532
 8897TIP3   OH248181   1.566   3.604  12.250  0.5053  0.2448  0.2443
 8897TIP3    H148182   1.612   3.656  12.317  1.0771  0.1695 -0.0859
 8897TIP3    H248183   1.531   3.529  12.298  2.8790 -1.0441  0.0931
 8898TIP3   OH248184   4.772   3.860   3.815 -0.6437  0.0850 -0.3067
 8898TIP3    H148185   4.754   3.867   3.722  3.1050  1.2147 -1.1489
 8898TIP3    H248186   4.797   3.949   3.841  1.4431 -0.7793  0.9110
 8899TIP3   OH248187   1.221   1.138   0.474  1.0918  0.1654 -0.2652
 8899TIP3    H148188   1.312   1.136   0.446  0.4497  0.5099 -2.5770
 8899TIP3    H248189   1.199   1.232   0.478  0.3641  0.0726 -1.5415
 8900TIP3   OH248190   1.796   2.684  12.854  0.0663 -0.1186  0.3960
 8900TIP3    H148191   1.778   2.773  12.825 -0.2630  0.1561  1.4060
 8900TIP3    H248192   1.741   2.629  12.798  1.7255  0.1055 -1.6044
 8901TIP3   OH248193   4.576   4.266  12.174 -0.1536  0.0814  0.3787
 8901TIP3    H148194   4.624   4.206  12.232  2.0855  0.4734 -0.9405
 8901TIP3    H248195   4.538   4.209  12.107  1.8230 -0.0163 -0.7706
 8902TIP3   OH248196   1.295   5.579  13.726 -0.3445  0.4608  0.0578
 8902TIP3    H148197   1.296   5.658  13.779 -0.2512  0.8104 -0.4583
 8902TIP3    H248198   1.211   5.537  13.746 -0.8957  1.2611 -0.4941
 8903TIP3   OH248199   3.865   2.179  14.105 -0.2235  0.4344 -0.1288
 8903TIP3    H148200   3.916   2.234  14.165  0.8184  1.7414 -2.0787
 8903TIP3    H248201   3.904   2.092  14.113  0.8976  0.9271  0.0173
 8904TIP3   OH248202   3.505   1.581  16.497 -0.0091 -0.4196 -0.3369
 8904TIP3    H148203   3.486   1.608  16.407  0.2912 -1.9837 -0.9105
 8904TIP3    H248204   3.573   1.513  16.487 -0.0218 -0.6604  1.0659
 8905TIP3   OH248205   0.129   0.806   1.054 -0.5335 -0.2695 -0.0136
 8905TIP3    H148206   0.114   0.804   1.148 -0.1863  0.1075  0.0546
 8905TIP3    H248207   0.180   0.728   1.035 -1.4020 -0.8462 -0.0408
 8906TIP3   OH248208   2.673   1.302   4.326 -0.5198  0.5107 -0.1560
 8906TIP3    H148209   2.609   1.251   4.375 -0.8446  2.0912  1.1464
 8906TIP3    H248210   2.737   1.237   4.295 -0.7971 -0.6637  1.5954
 8907TIP3   OH248211   2.217   4.365  14.207 -0.4189 -0.4032 -0.2775
 8907TIP3    H148212   2.222   4.287  14.152 -0.6823 -2.7354  2.7398
 8907TIP3    H248213   2.297   4.363  14.259 -0.9826  0.6792  0.6800
 8908TIP3   OH248214   6.779   0.962   1.949 -0.5638  0.3697  0.4170
 8908TIP3    H148215   6.863   0.970   1.904  0.2513  0.3547  1.8819
 8908TIP3    H248216   6.775   0.870   1.977 -2.2870 -0.3422 -1.8801
 8909TIP3   OH248217   2.333   3.765   2.991  0.5918  0.0728  0.4799
 8909TIP3    H148218   2.345   3.743   3.084  0.4346 -0.8134  0.3037
 8909TIP3    H248219   2.370   3.690   2.944  2.4124  1.3604 -0.2310
 8910TIP3   OH248220   1.956   0.258  14.852 -0.0357  0.0919 -0.1633
 8910TIP3    H148221   2.018   0.330  14.849 -0.7280  0.6971 -0.3272
 8910TIP3    H248222   2.005   0.184  14.887  0.4532  0.8708  0.8269
 8911TIP3   OH248223   1.459   3.832   0.960 -0.4208  0.2144  0.7346
 8911TIP3    H148224   1.549   3.822   0.993 -0.2518  0.1548  0.2625
 8911TIP3    H248225   1.405   3.780   1.020 -0.2552  0.9414  1.5396
 8912TIP3   OH248226   5.367   2.799  15.575 -0.1074 -0.1597 -0.0286
 8912TIP3    H148227   5.432   2.863  15.608  2.7866 -2.8801  0.0477
 8912TIP3    H248228   5.399   2.715  15.608 -1.3924 -2.1561 -3.4710
 8913TIP3   OH248229   6.812   2.636   5.090  0.8266 -0.1124 -0.0604
 8913TIP3    H148230   6.746   2.695   5.054  0.5258 -0.8753 -0.8032
 8913TIP3    H248231   6.799   2.553   5.042  0.9911 -0.8961  1.2068
 8914TIP3   OH248232   1.032   6.465  11.019 -0.2459 -0.2442 -0.1552
 8914TIP3    H148233   0.971   6.404  11.061 -1.1393  0.4583 -0.3801
 8914TIP3    H248234   1.017   6.452  10.925 -2.1292  1.8555 -0.2417
 8915TIP3   OH248235   1.170   0.074   5.143  0.6580  0.0450  0.4215
 8915TIP3    H148236   1.091   0.105   5.188 -0.7216 -1.2974 -0.9320
 8915TIP3    H248237   1.169   0.117   5.058  0.9979 -0.5001  0.1315
 8916TIP3   OH248238   0.690   6.236   1.599  0.5163  0.1178 -0.1302
 8916TIP3    H148239   0.649   6.239   1.686 -0.2560  1.0293 -0.5133
 8916TIP3    H248240   0.778   6.201   1.616 -0.0657 -0.9659  0.8339
 8917TIP3   OH248241   0.701   1.503   0.968  0.4677  0.2370  0.4076
 8917TIP3    H148242   0.637   1.483   0.899  0.0491  0.6425  0.6753
 8917TIP3    H248243   0.732   1.417   0.996  0.3871  0.0516 -0.0499
 8918TIP3   OH248244   6.599   1.190  16.861 -1.1299 -0.7780  0.7041
 8918TIP3    H148245   6.693   1.210  16.857 -1.4095  0.5767  0.2560
 8918TIP3    H248246   6.556   1.275  16.848 -2.4187 -1.5569 -0.4539
 8919TIP3   OH248247   6.466   5.571   6.309  0.5371  0.0733 -0.4803
 8919TIP3    H148248   6.430   5.611   6.389 -1.5437 -1.3808 -0.5788
 8919TIP3    H248249   6.552   5.539   6.335  0.1516  0.1834  1.0422
 8920TIP3   OH248250   0.935   6.836   2.048 -0.2313  0.5449 -0.4960
 8920TIP3    H148251   0.961   6.875   2.131  0.0083  3.3136 -1.7831
 8920TIP3    H248252   1.009   6.851   1.990 -0.6364 -0.8213 -1.4186
 8921TIP3   OH248253   6.644   6.202  10.910 -0.3229  0.2693 -0.0265
 8921TIP3    H148254   6.602   6.286  10.892 -0.6043  0.5225  1.6022
 8921TIP3    H248255   6.589   6.137  10.867 -0.1949  0.8863 -1.1662
 8922TIP3   OH248256   4.286   6.067   0.457 -0.0143 -0.0168  0.2499
 8922TIP3    H148257   4.206   6.118   0.442  0.9518  1.3848 -0.2292
 8922TIP3    H248258   4.317   6.094   0.543  1.5346  1.6999 -0.7847
 8923TIP3   OH248259   5.329   1.539  14.573 -0.2068  0.1984 -0.3185
 8923TIP3    H148260   5.254   1.523  14.515 -0.3576 -0.3868  0.0292
 8923TIP3    H248261   5.405   1.524  14.517 -0.3376  0.8611 -0.6917
 8924TIP3   OH248262   5.120   6.352   4.548  0.4935 -0.3527 -0.0711
 8924TIP3    H148263   5.214   6.344   4.565  0.4339 -0.6863  0.1315
 8924TIP3    H248264   5.100   6.277   4.492  0.4086 -0.1000 -0.3760
 8925TIP3   OH248265   4.422   1.738  12.278 -0.2616  0.2109 -0.3679
 8925TIP3    H148266   4.356   1.809  12.279  1.7379  2.1824  0.5568
 8925TIP3    H248267   4.487   1.767  12.215  1.8063  0.4663  1.7373
 8926TIP3   OH248268   0.835   4.274  15.446  0.3829 -0.4248 -0.2141
 8926TIP3    H148269   0.768   4.211  15.419 -0.5302  0.8519 -0.9808
 8926TIP3    H248270   0.914   4.246  15.400 -0.0932 -0.7951 -0.8207
 8927TIP3   OH248271   3.238   1.018  15.106  0.3144 -0.7206  0.0306
 8927TIP3    H148272   3.197   1.041  15.190 -1.1787 -2.3315 -0.1836
 8927TIP3    H248273   3.189   1.067  15.041  0.6509 -0.4235  0.0012
 8928TIP3   OH248274   0.174   4.678   4.403 -0.2315 -0.3305  0.0434
 8928TIP3    H148275   0.178   4.582   4.411  4.1831 -0.5630 -2.1024
 8928TIP3    H248276   0.149   4.693   4.312 -0.1665  0.5686  0.1738
 8929TIP3   OH248277   2.538   3.978  16.105  0.1569  0.2269  0.0399
 8929TIP3    H148278   2.544   4.019  16.191  0.4779  1.1041 -0.3978
 8929TIP3    H248279   2.446   3.950  16.099  0.1454  0.0986  0.6802
 8930TIP3   OH248280   4.188   5.879  16.628  0.1909  0.1374  0.6389
 8930TIP3    H148281   4.208   5.941  16.698 -1.0506  2.6151 -1.0570
 8930TIP3    H248282   4.107   5.837  16.656 -1.0350  2.0706  0.2031
 8931TIP3   OH248283   0.729   1.177  13.308 -0.2199 -0.0952 -0.2938
 8931TIP3    H148284   0.730   1.081  13.305 -2.4649 -0.4389  3.2737
 8931TIP3    H248285   0.656   1.201  13.250 -0.8168 -0.7360  0.1638
 8932TIP3   OH248286   4.656   5.726  14.309 -0.7677 -0.0449 -0.7507
 8932TIP3    H148287   4.627   5.697  14.396  0.7980  1.4973  0.3613
 8932TIP3    H248288   4.602   5.676  14.248 -2.4126 -0.6855  1.1039
 8933TIP3   OH248289   2.012   0.752  11.924  0.4240  0.1675 -0.7808
 8933TIP3    H148290   1.968   0.707  11.852  0.0851 -0.1258 -0.3959
 8933TIP3    H248291   2.048   0.831  11.884 -0.5322  0.4686 -1.0959
 8934TIP3   OH248292   6.353   0.640  15.324  0.2892 -0.1487  0.5680
 8934TIP3    H148293   6.270   0.633  15.372 -0.0466  0.9145  0.1549
 8934TIP3    H248294   6.331   0.688  15.244  1.2427 -0.1473  0.2989
 8935TIP3   OH248295   3.102   2.555  14.206 -0.2350 -0.0908 -0.3396
 8935TIP3    H148296   3.088   2.643  14.240 -0.8181  0.4268 -1.8721
 8935TIP3    H248297   3.181   2.562  14.153  0.4009 -0.7918  0.4674
 8936TIP3   OH248298   4.545   4.641  15.461  0.2606 -0.8995  0.4230
 8936TIP3    H148299   4.465   4.687  15.485  0.6226  0.3662 -0.6641
 8936TIP3    H248300   4.585   4.617  15.545  1.2822  2.9928  1.2631
 8937TIP3   OH248301   3.050   1.582  14.878 -0.0358  0.0057  0.6662
 8937TIP3    H148302   3.035   1.671  14.847  1.5601  0.1609  0.2233
 8937TIP3    H248303   3.140   1.562  14.850 -0.1868 -1.5549  1.1966
 8938TIP3   OH248304   5.891   1.652  16.169  0.2534  0.1414 -0.7066
 8938TIP3    H148305   5.827   1.616  16.231  1.1471  0.2857  0.3468
 8938TIP3    H248306   5.876   1.746  16.172  0.5618  0.1831 -0.3882
 8939TIP3   OH248307   2.712   2.140  15.602 -0.0210 -0.5539  0.6410
 8939TIP3    H148308   2.806   2.130  15.587 -0.2801  0.1573 -1.8033
 8939TIP3    H248309   2.671   2.090  15.532 -1.4247  1.1005  0.2373
 8940TIP3   OH248310   3.545   0.669   2.114 -0.4192  0.1069 -0.2636
 8940TIP3    H148311   3.450   0.679   2.118 -0.8101 -3.0773  0.5814
 8940TIP3    H248312   3.563   0.640   2.025  0.2081  3.3889 -1.3458
 8941TIP3   OH248313   5.519   1.677   0.350 -0.0519  0.6419 -0.7044
 8941TIP3    H148314   5.609   1.688   0.379 -0.4906  1.9200  0.2882
 8941TIP3    H248315   5.519   1.595   0.301  1.1139 -0.6980  1.4047
 8942TIP3   OH248316   5.805   2.142  16.402 -0.2794 -0.5616  0.2111
 8942TIP3    H148317   5.803   2.144  16.497  1.1200  1.1629  0.2548
 8942TIP3    H248318   5.897   2.156  16.379 -0.5249 -1.3237 -1.3952
 8943TIP3   OH248319   6.247   3.187  14.643 -0.4815  0.0483 -0.3446
 8943TIP3    H148320   6.186   3.181  14.569 -0.2284 -1.0031 -0.4843
 8943TIP3    H248321   6.318   3.243  14.611  0.6620 -2.0232 -1.6912
 8944TIP3   OH248322   0.650   0.238  11.233  0.1267 -0.6521  0.3109
 8944TIP3    H148323   0.722   0.281  11.280  0.7190  0.1433 -1.2448
 8944TIP3    H248324   0.571   0.281  11.264  0.6396  0.9623 -0.5249
 8945TIP3   OH248325   5.158   0.320   4.841  0.7660  0.0608 -0.5784
 8945TIP3    H148326   5.189   0.261   4.772 -0.3852 -0.5880 -0.5723
 8945TIP3    H248327   5.238   0.355   4.880  1.5034  2.1984 -3.6381
 8946TIP3   OH248328   1.925   1.902   1.416  0.3071 -0.7063  0.2366
 8946TIP3    H148329   1.965   1.870   1.496 -0.3450  0.4319  1.0485
 8946TIP3    H248330   1.988   1.880   1.347  0.2754 -2.8879  0.8432
 8947TIP3   OH248331   6.302   2.763   5.848  0.1376  0.1028  0.1989
 8947TIP3    H148332   6.310   2.812   5.930  0.4052 -0.1856  0.3486
 8947TIP3    H248333   6.371   2.798   5.792 -0.0224  0.2753  0.1106
 8948TIP3   OH248334   1.289   6.253  11.989  0.1756  0.0980 -0.5871
 8948TIP3    H148335   1.271   6.308  11.912 -1.2060  0.2043 -0.2255
 8948TIP3    H248336   1.382   6.263  12.005  0.1728  1.4133 -1.2416
 8949TIP3   OH248337   1.177   4.029  12.791  0.2102 -0.0275  0.3784
 8949TIP3    H148338   1.155   4.043  12.883 -0.1061 -0.2274  0.3344
 8949TIP3    H248339   1.250   4.088  12.775  0.4700 -0.2179  0.8421
 8950TIP3   OH248340   0.620   5.937   4.272  0.0786 -0.1903 -0.3297
 8950TIP3    H148341   0.617   5.902   4.183 -1.3658  0.2402 -0.4724
 8950TIP3    H248342   0.628   6.032   4.259 -2.3162  0.1055 -0.0844
 8951TIP3   OH248343   6.289   1.971  14.388  0.0443  0.3494  0.2683
 8951TIP3    H148344   6.237   1.955  14.467  0.4647 -0.2888  0.4230
 8951TIP3    H248345   6.247   2.046  14.346 -0.3965  0.4691  0.9134
 8952TIP3   OH248346   4.328   4.351   3.531 -0.2917 -0.3903  0.0603
 8952TIP3    H148347   4.309   4.258   3.517 -1.5894  0.2180 -2.8768
 8952TIP3    H248348   4.397   4.371   3.467 -0.2785  0.7651  0.4164
 8953TIP3   OH248349   3.152   0.632   5.435  0.0616  0.7243 -0.6254
 8953TIP3    H148350   3.158   0.666   5.524 -1.1071 -0.0003 -0.2285
 8953TIP3    H248351   3.064   0.657   5.406 -0.5656 -1.2196 -0.5793
 8954TIP3   OH248352   5.355   4.412  12.012 -0.0605  0.0066  0.5233
 8954TIP3    H148353   5.442   4.376  11.993  0.0347 -0.3945  1.6038
 8954TIP3    H248354   5.295   4.343  11.986 -0.0666  0.3159 -0.3001
 8955TIP3   OH248355   6.805   3.885   1.308 -0.4938 -0.4286 -0.5838
 8955TIP3    H148356   6.855   3.805   1.292 -0.4434 -0.8420  1.4563
 8955TIP3    H248357   6.718   3.865   1.274 -0.1489 -0.8549 -1.2626
 8956TIP3   OH248358   3.242   5.366   4.474  0.2115  0.4418 -0.4421
 8956TIP3    H148359   3.179   5.407   4.415 -0.1012  0.8105  0.1328
 8956TIP3    H248360   3.318   5.347   4.420  0.0514  1.0665 -0.8904
 8957TIP3   OH248361   4.903   2.908  11.603 -0.0693 -0.2867 -0.2613
 8957TIP3    H148362   4.918   2.914  11.697 -0.9412  1.7049 -0.2030
 8957TIP3    H248363   4.808   2.904  11.594  0.0354 -1.6167 -1.0384
 8958TIP3   OH248364   0.707   2.900  14.963  0.1367 -0.7525 -0.3767
 8958TIP3    H148365   0.715   2.818  15.011 -3.2122 -1.7806 -1.3147
 8958TIP3    H248366   0.651   2.879  14.889  0.9225  1.9582 -1.8815
 8959TIP3   OH248367   5.933   4.146   1.537 -0.2728 -0.2931  0.0777
 8959TIP3    H148368   5.877   4.205   1.487 -0.3315 -0.3338  0.0964
 8959TIP3    H248369   5.974   4.202   1.603 -0.0136 -0.1924 -0.1652
 8960TIP3   OH248370   5.533   5.199  11.823  0.3748 -0.2202  0.4602
 8960TIP3    H148371   5.472   5.181  11.751  0.6224  0.0466  0.1795
 8960TIP3    H248372   5.620   5.194  11.783  0.6558 -2.3675  1.2365
 8961TIP3   OH248373   3.974   6.305  15.496 -0.2591 -0.0793  0.1325
 8961TIP3    H148374   3.963   6.399  15.479  1.0237 -0.0389 -0.5714
 8961TIP3    H248375   4.050   6.299  15.554 -1.6128 -0.5723  1.9452
 8962TIP3   OH248376   3.368   2.151   4.835 -0.4645  0.4049 -0.6911
 8962TIP3    H148377   3.408   2.141   4.748 -0.5515  1.1495 -0.8312
 8962TIP3    H248378   3.317   2.232   4.827 -0.0720  0.7407  0.2121
 8963TIP3   OH248379   1.849   3.191  14.934  0.2199 -0.0710 -0.0834
 8963TIP3    H148380   1.912   3.261  14.950  0.5995  0.0751 -2.0251
 8963TIP3    H248381   1.888   3.139  14.864 -2.1294  0.4741 -1.8962
 8964TIP3   OH248382   5.124   2.425   2.991  0.2508  0.0834  0.0135
 8964TIP3    H148383   5.153   2.431   3.082 -0.1528 -1.6850  0.3001
 8964TIP3    H248384   5.050   2.363   2.994 -1.0811  1.5246 -1.2295
 8965TIP3   OH248385   2.417   1.920  11.435  0.6306 -0.9046  0.5280
 8965TIP3    H148386   2.364   1.917  11.356 -0.6644 -0.0287  1.3254
 8965TIP3    H248387   2.479   1.991  11.420  0.6937 -1.0398  0.1319
 8966TIP3   OH248388   3.430   3.953   3.641 -0.2604 -0.1068 -0.0709
 8966TIP3    H148389   3.420   3.945   3.546  0.6064  2.4218 -0.4527
 8966TIP3    H248390   3.383   4.034   3.663  1.2047  0.4258  1.3111
 8967TIP3   OH248391   6.740   4.660   3.721  0.0901 -0.0635  0.6713
 8967TIP3    H148392   6.678   4.671   3.793 -0.6723  2.0719 -0.2066
 8967TIP3    H248393   6.826   4.670   3.762 -0.2861  0.0212  1.4563
 8968TIP3   OH248394   1.220   2.415   2.326 -0.5844  0.0568  0.4459
 8968TIP3    H148395   1.171   2.467   2.390 -1.3181 -0.2606  0.1591
 8968TIP3    H248396   1.196   2.325   2.345 -0.1563 -0.0978  0.2595
 8969TIP3   OH248397   2.944   5.636   2.167  0.4790 -0.0104  0.0937
 8969TIP3    H148398   2.873   5.580   2.136  0.2286  0.8733 -0.9994
 8969TIP3    H248399   2.910   5.725   2.158  1.1995  0.3713  0.9523
 8970TIP3   OH248400   0.850   2.695   1.068 -0.7019 -0.4131 -0.7548
 8970TIP3    H148401   0.819   2.689   0.978 -0.7521 -0.2835 -0.7460
 8970TIP3    H248402   0.775   2.666   1.121 -1.1494  0.8051 -0.6775
 8971TIP3   OH248403   5.245   3.974  15.852 -0.3105 -0.4266 -0.2725
 8971TIP3    H148404   5.155   3.942  15.858 -1.0413  1.4765 -0.4693
 8971TIP3    H248405   5.253   4.006  15.762 -0.0665  1.1063  0.2649
 8972TIP3   OH248406   6.518   0.710  16.846 -0.3102  0.4246  0.4302
 8972TIP3    H148407   6.602   0.738  16.882 -0.7471  0.6091  1.3278
 8972TIP3    H248408   6.463   0.788  16.850 -0.6613  0.1886  0.2604
 8973TIP3   OH248409   0.571   2.478   2.846  0.3543 -0.3878 -0.8863
 8973TIP3    H148410   0.598   2.560   2.804  0.9902  0.9250  1.8711
 8973TIP3    H248411   0.518   2.434   2.779  0.1084  2.1808 -2.5433
 8974TIP3   OH248412   0.523   2.094   1.946 -0.4145 -0.3341  0.0974
 8974TIP3    H148413   0.552   2.012   1.907  0.5257 -0.4674  1.0211
 8974TIP3    H248414   0.571   2.162   1.898  0.5302 -0.4817  0.7886
 8975TIP3   OH248415   4.822   4.059   2.273 -0.0979  0.0495  0.5378
 8975TIP3    H148416   4.741   4.012   2.294  0.0502 -0.4793 -0.0416
 8975TIP3    H248417   4.806   4.098   2.187  0.6118 -0.8990 -0.0418
 8976TIP3   OH248418   2.753   3.311  16.202 -0.3081  0.4412 -0.0580
 8976TIP3    H148419   2.845   3.332  16.216 -0.3846 -0.8153  3.1749
 8976TIP3    H248420   2.710   3.332  16.285 -2.8334  0.3588 -1.2434
 8977TIP3   OH248421   2.495   2.123  14.826  0.2150  0.4374 -0.2969
 8977TIP3    H148422   2.420   2.183  14.822 -0.1036  0.2076  1.4970
 8977TIP3    H248423   2.543   2.140  14.745 -0.8581  1.7935 -0.6908
 8978TIP3   OH248424   3.319   5.545  14.800  0.1057  0.4313 -0.0537
 8978TIP3    H148425   3.316   5.516  14.891  0.4672  0.1334 -0.1371
 8978TIP3    H248426   3.329   5.464  14.750 -1.6610  0.4212 -0.4643
 8979TIP3   OH248427   3.005   4.215   5.995 -0.0349 -0.0552 -0.4827
 8979TIP3    H148428   2.993   4.301   6.036  1.0834  0.6474 -1.5682
 8979TIP3    H248429   3.041   4.160   6.066  3.5154  1.5866 -0.7881
 8980TIP3   OH248430   0.435   0.567  15.256 -0.3858 -0.2548  0.5483
 8980TIP3    H148431   0.472   0.514  15.185 -2.5964 -1.5897  0.3072
 8980TIP3    H248432   0.358   0.518  15.285 -0.1468  0.7723  3.1952
 8981TIP3   OH248433   4.309   1.211   1.891 -0.1384  0.1781 -0.2722
 8981TIP3    H148434   4.378   1.148   1.911 -0.1033 -0.0376 -1.0388
 8981TIP3    H248435   4.244   1.197   1.959  0.3783  0.0895  0.2136
 8982TIP3   OH248436   1.949   2.023  13.763 -0.4384  0.6427  0.0434
 8982TIP3    H148437   1.919   1.998  13.850  2.1455  0.1666  0.8985
 8982TIP3    H248438   1.913   2.111  13.749 -1.9256  0.2192  1.0368
 8983TIP3   OH248439   6.647   3.835  16.469  0.1430 -0.1745  0.1240
 8983TIP3    H148440   6.608   3.767  16.524  3.0655 -0.7402  1.7264
 8983TIP3    H248441   6.663   3.908  16.530 -1.2490  1.2781 -1.1729
 8984TIP3   OH248442   6.781   5.720  13.158  0.2168 -0.0775 -0.3877
 8984TIP3    H148443   6.796   5.718  13.063 -0.5931 -0.3390 -0.5154
 8984TIP3    H248444   6.739   5.805  13.173  1.5517  0.5534 -0.0620
 8985TIP3   OH248445   4.420   5.826  12.393 -0.2815 -0.3867  0.6648
 8985TIP3    H148446   4.487   5.835  12.325 -0.0795  1.4768  1.0689
 8985TIP3    H248447   4.337   5.842  12.348 -0.0845  1.7257  0.9626
 8986TIP3   OH248448   0.948   2.248  12.225  0.1085 -0.0107 -0.3653
 8986TIP3    H148449   0.856   2.267  12.243  0.0192 -0.8017  0.0489
 8986TIP3    H248450   0.977   2.194  12.298  0.7233 -0.3174 -0.8197
 8987TIP3   OH248451   0.234   5.994  15.408  0.1300 -0.0899  0.0194
 8987TIP3    H148452   0.305   5.960  15.462 -1.9476 -1.7063  1.9541
 8987TIP3    H248453   0.213   6.079  15.446 -1.7477 -1.4855  2.4453
 8988TIP3   OH248454   3.561   1.210   1.140 -0.3331 -0.0917 -0.3053
 8988TIP3    H148455   3.655   1.229   1.150 -0.2792 -1.3816  2.7999
 8988TIP3    H248456   3.520   1.254   1.214 -1.7420 -2.0256  0.1487
 8989TIP3   OH248457   4.668   0.914   1.821 -0.1835 -0.2673 -0.0603
 8989TIP3    H148458   4.709   0.993   1.856 -0.9047  0.1902 -0.2090
 8989TIP3    H248459   4.738   0.849   1.820  0.5509  0.5009 -0.3687
 8990TIP3   OH248460   1.180   4.363  12.569  0.0306  0.4359 -0.1145
 8990TIP3    H148461   1.231   4.329  12.495  0.8341 -1.0199  1.0629
 8990TIP3    H248462   1.103   4.306  12.573 -1.0721  1.7680 -1.0193
 8991TIP3   OH248463   3.715   5.243  16.625 -0.0826  0.1464  0.2608
 8991TIP3    H148464   3.758   5.293  16.695  1.5496  0.1488 -0.6847
 8991TIP3    H248465   3.640   5.202  16.668  1.0704 -0.1598  2.1234
 8992TIP3   OH248466   3.014   1.059  13.763 -0.3510 -0.8462 -0.0922
 8992TIP3    H148467   3.034   1.041  13.671  1.1990  0.6648 -0.1014
 8992TIP3    H248468   3.099   1.066  13.806 -0.9219  1.1981  0.8713
 8993TIP3   OH248469   1.394   4.844   2.596 -0.4008 -0.4107  0.4766
 8993TIP3    H148470   1.322   4.782   2.609  0.2803 -1.3296  0.0107
 8993TIP3    H248471   1.410   4.880   2.684 -1.4721 -0.1343  0.5660
 8994TIP3   OH248472   5.691   3.914   3.046 -0.5565  0.1943 -0.5147
 8994TIP3    H148473   5.635   3.983   3.010 -0.3261  0.4164 -0.4529
 8994TIP3    H248474   5.638   3.835   3.042 -1.0674  0.5009  0.0210
 8995TIP3   OH248475   3.762   5.817  16.032  0.7393 -0.1095  0.1689
 8995TIP3    H148476   3.773   5.724  16.052 -0.2281 -0.2846 -0.0525
 8995TIP3    H248477   3.805   5.862  16.105  3.5470 -0.6807 -1.0254
 8996TIP3   OH248478   4.879   1.964   1.474  0.1171  0.2649 -0.3606
 8996TIP3    H148479   4.933   1.966   1.395 -0.2790  0.2043 -0.6366
 8996TIP3    H248480   4.876   1.872   1.498  1.2691  0.4235  0.4496
 8997TIP3   OH248481   0.262   2.006   3.030  0.3702 -0.0301 -0.3824
 8997TIP3    H148482   0.281   1.941   3.098  0.3930  0.8498  0.4737
 8997TIP3    H248483   0.253   2.088   3.078 -0.7776  0.4112 -1.3173
 8998TIP3   OH248484   5.642   2.789   3.079 -0.2497 -0.5356 -0.1996
 8998TIP3    H148485   5.593   2.730   3.136  1.1814 -2.3883 -0.7843
 8998TIP3    H248486   5.576   2.827   3.021 -1.5825  0.5754  1.9332
 8999TIP3   OH248487   3.226   0.004  14.059  0.1384 -0.2854  0.0897
 8999TIP3    H148488   3.271   0.065  14.117 -0.1258  0.6390 -0.6495
 8999TIP3    H248489   3.295  -0.036  14.007  0.3813 -1.1548  1.0533
 9000TIP3   OH248490   5.435   4.745  12.375  0.4205  0.3019 -0.4664
 9000TIP3    H148491   5.462   4.697  12.297  2.8001  0.3662  0.2327
 9000TIP3    H248492   5.513   4.796  12.400 -1.0312  2.1139  0.5884
 9001TIP3   OH248493   6.499   0.086  14.074  0.3622 -0.3578 -0.0085
 9001TIP3    H148494   6.411   0.063  14.103  0.3792 -0.0507  0.2956
 9001TIP3    H248495   6.552   0.083  14.154  0.0593  2.2423  0.3876
 9002TIP3   OH248496   1.986   0.376   3.098  0.2175 -0.2620  0.3251
 9002TIP3    H148497   1.894   0.400   3.109  0.1166 -0.2717 -0.4668
 9002TIP3    H248498   1.996   0.296   3.149  0.5611  1.4054  3.0547
 9003TIP3   OH248499   5.135   4.821  14.642  0.2531 -0.9230  0.1055
 9003TIP3    H148500   5.197   4.750  14.662 -2.0421 -2.6993  1.5065
 9003TIP3    H248501   5.103   4.848  14.728  0.4064  1.2471 -0.4778
 9004TIP3   OH248502   2.963   1.786  15.246  0.2789  0.6915  0.3195
 9004TIP3    H148503   3.024   1.827  15.185  0.6275 -0.4183 -0.0973
 9004TIP3    H248504   3.014   1.716  15.287 -1.1943 -1.5966 -1.5004
 9005TIP3   OH248505   2.498   5.488   4.564  0.2793 -0.5521 -0.3810
 9005TIP3    H148506   2.522   5.396   4.577 -0.1624 -0.7271 -0.7796
 9005TIP3    H248507   2.403   5.488   4.559  0.2800 -0.0791 -0.4555
 9006TIP3   OH248508   3.233   6.590  12.573  0.0477 -0.5056 -0.1483
 9006TIP3    H148509   3.202   6.587  12.663  0.5958  0.9297  0.1159
 9006TIP3    H248510   3.324   6.619  12.579 -0.3917  1.3048 -1.2201
 9007TIP3   OH248511   6.222   3.970   4.048 -0.7381 -0.3136 -0.2337
 9007TIP3    H148512   6.239   4.011   4.133 -0.9610  1.2644 -0.9110
 9007TIP3    H248513   6.301   3.919   4.029  0.3034  1.1918 -0.1232
 9008TIP3   OH248514   3.931   2.851   2.168 -0.0725  0.7830  0.4768
 9008TIP3    H148515   3.969   2.776   2.214  3.1737  2.4237  0.7006
 9008TIP3    H248516   3.905   2.911   2.238 -1.0625  0.6451  0.2462
 9009TIP3   OH248517   3.063   1.417  16.497 -0.0850 -0.2714  0.2624
 9009TIP3    H148518   3.112   1.335  16.503  0.3459 -0.0714 -0.4054
 9009TIP3    H248519   3.113   1.470  16.435 -0.4801  0.4127  0.5213
 9010TIP3   OH248520   5.927   6.707   4.382 -0.0597 -0.7118  0.3640
 9010TIP3    H148521   6.021   6.703   4.395 -0.2062  0.1575  1.9472
 9010TIP3    H248522   5.913   6.788   4.333  0.1168 -1.6917 -1.3888
 9011TIP3   OH248523   4.131   6.284  14.298  0.0717 -0.0165 -0.3452
 9011TIP3    H148524   4.171   6.248  14.377 -1.0095  0.0814  0.2672
 9011TIP3    H248525   4.200   6.280  14.232  1.3539  0.8968  0.8700
 9012TIP3   OH248526   0.501   4.386  13.650  0.2803 -0.3363 -0.0792
 9012TIP3    H148527   0.408   4.392  13.628 -0.5696 -0.8419  2.9361
 9012TIP3    H248528   0.545   4.380  13.565 -2.4200 -0.2128 -1.6076
 9013TIP3   OH248529   5.775   6.261   2.681  0.0524 -0.6264 -0.0284
 9013TIP3    H148530   5.688   6.259   2.720 -0.4783 -0.1797 -1.1386
 9013TIP3    H248531   5.802   6.353   2.689  0.8985 -0.9543  1.2647
 9014TIP3   OH248532   1.955   0.701  14.893 -0.0958  0.1852  0.2446
 9014TIP3    H148533   2.010   0.624  14.880 -0.7896 -0.3645  0.4664
 9014TIP3    H248534   1.889   0.673  14.957  0.2488  1.2840  1.1058
 9015TIP3   OH248535   4.852   2.599   1.319 -0.4214  0.3202 -0.2075
 9015TIP3    H148536   4.785   2.530   1.324  0.0312 -0.2295 -1.2726
 9015TIP3    H248537   4.906   2.585   1.397 -0.9522  0.1310  0.1343
 9016TIP3   OH248538   5.193   4.283   1.581  0.1911  0.3356  0.2152
 9016TIP3    H148539   5.149   4.271   1.665 -0.2650  0.6558  0.0267
 9016TIP3    H248540   5.147   4.356   1.540  2.1738  2.0380  0.8590
 9017TIP3   OH248541   4.001   0.655  12.130 -0.3449  0.4218 -0.0231
 9017TIP3    H148542   3.955   0.672  12.212 -0.2242  0.7158 -0.0143
 9017TIP3    H248543   3.933   0.626  12.070 -0.3416 -0.3622  0.3444
 9018TIP3   OH248544   1.946   6.584   2.209  0.4242  0.0280  0.0924
 9018TIP3    H148545   2.001   6.506   2.214 -0.1811 -0.3857  0.2830
 9018TIP3    H248546   1.883   6.566   2.140  0.4506  0.4566 -0.0484
 9019TIP3   OH248547   5.370   1.517   3.144  0.5802  0.1333  0.5018
 9019TIP3    H148548   5.325   1.488   3.064  1.2489  0.0849  0.1326
 9019TIP3    H248549   5.343   1.608   3.156  2.1574  0.8522 -1.0213
 9020TIP3   OH248550   4.922   0.539   0.385  0.3453  0.3162 -0.0994
 9020TIP3    H148551   4.924   0.541   0.481 -2.5054  0.2889  0.0604
 9020TIP3    H248552   4.901   0.630   0.360  0.3858  0.1819 -0.6340
 9021TIP3   OH248553   4.148   3.759   5.320 -0.1411  0.4382 -0.1513
 9021TIP3    H148554   4.220   3.712   5.360  0.7064 -1.1562 -3.2677
 9021TIP3    H248555   4.071   3.705   5.338 -0.2241  1.0197  1.3350
 9022TIP3   OH248556   4.574   3.833   0.298  0.4277  0.6337 -0.4729
 9022TIP3    H148557   4.575   3.822   0.393  0.6217  1.1847 -0.4075
 9022TIP3    H248558   4.663   3.862   0.276 -0.0145  1.9346 -0.6380
 9023TIP3   OH248559   1.248   4.552  13.211  0.1422 -0.1276  0.1056
 9023TIP3    H148560   1.315   4.579  13.274 -0.1969 -1.4398  1.0719
 9023TIP3    H248561   1.172   4.606  13.234  1.1884  2.4386 -1.9341
 9024TIP3   OH248562   5.985   2.766  16.069 -0.2849  0.1750  0.3747
 9024TIP3    H148563   6.034   2.716  16.134 -0.4287  0.2764  0.5665
 9024TIP3    H248564   6.048   2.786  16.000 -0.5188 -1.3413 -0.3221
 9025TIP3   OH248565   5.989   4.024   0.288  0.2909 -0.2401  0.3637
 9025TIP3    H148566   6.062   3.964   0.305 -1.9410 -3.1971  0.2318
 9025TIP3    H248567   5.927   4.006   0.359 -0.6932  1.6123  0.0267
 9026TIP3   OH248568   3.795   6.537  14.580  0.2848 -0.4547  0.3365
 9026TIP3    H148569   3.882   6.498  14.571  0.3631 -0.6343  1.6749
 9026TIP3    H248570   3.735   6.469  14.549  0.3958 -1.8944  2.9324
 9027TIP3   OH248571   2.405   3.742   2.335 -0.4796  0.3788 -0.2644
 9027TIP3    H148572   2.452   3.801   2.394  1.8583 -0.4430 -1.1734
 9027TIP3    H248573   2.456   3.745   2.253 -1.2510 -1.5979 -0.8765
 9028TIP3   OH248574   1.449   2.348   0.085  0.6115  0.1601 -0.5571
 9028TIP3    H148575   1.526   2.375   0.036 -0.1504  0.4947 -1.6056
 9028TIP3    H248576   1.382   2.332   0.018  0.7126 -3.4866  0.0293
 9029TIP3   OH248577   0.068   2.043  14.335 -0.2437 -0.3189  0.1909
 9029TIP3    H148578   0.017   1.997  14.402 -1.2439  0.2479 -0.1650
 9029TIP3    H248579   0.098   1.973  14.276 -1.2800 -0.5957 -0.0353
 9030TIP3   OH248580   0.023   0.535   4.663  0.1261 -0.3831  0.1568
 9030TIP3    H148581  -0.020   0.494   4.588  0.4757 -1.0806  0.3281
 9030TIP3    H248582   0.061   0.462   4.712 -1.9260 -0.1980  2.2143
 9031TIP3   OH248583   5.575   5.796   2.610 -0.3431 -0.3256  0.2099
 9031TIP3    H148584   5.622   5.719   2.640  0.7537  0.3897  0.3958
 9031TIP3    H248585   5.545   5.839   2.690 -0.4982 -0.2798  0.1277
 9032TIP3   OH248586   6.155   0.354   5.407  0.0709  0.1988 -0.4189
 9032TIP3    H148587   6.235   0.336   5.457 -0.1400  1.4024  0.4115
 9032TIP3    H248588   6.084   0.325   5.465 -0.1207 -0.0496 -0.7789
 9033TIP3   OH248589   6.051   3.997   3.804 -0.0255 -0.3133  0.4499
 9033TIP3    H148590   6.095   3.980   3.887 -1.0383 -1.2519  0.8200
 9033TIP3    H248591   6.023   3.910   3.774 -1.4906  0.2234  0.1702
 9034TIP3   OH248592   0.999   3.912  11.203  0.2555 -0.2031  0.3099
 9034TIP3    H148593   1.010   3.956  11.287  1.1017  1.6349 -0.6853
 9034TIP3    H248594   0.959   3.979  11.147  0.0965 -1.2485 -0.8568
 9035TIP3   OH248595   2.863   0.010  12.143  0.5063  0.0605 -0.1580
 9035TIP3    H148596   2.824   0.082  12.193 -2.7779 -1.1289 -0.7577
 9035TIP3    H248597   2.824   0.019  12.056  1.5910 -1.3053 -0.8123
 9036TIP3   OH248598   1.777   2.676   3.834 -0.5452 -0.4435  0.5984
 9036TIP3    H148599   1.805   2.710   3.918  1.5188 -0.8393  0.1344
 9036TIP3    H248600   1.784   2.581   3.843 -0.3779 -0.4930  0.0327
 9037TIP3   OH248601   1.347   6.103  16.389  0.3246 -0.0840 -0.3716
 9037TIP3    H148602   1.335   6.137  16.300 -0.4631  0.3023 -0.1319
 9037TIP3    H248603   1.278   6.037  16.398 -1.0491  1.4069  0.6810
 9038TIP3   OH248604   3.780   1.553  11.611  0.1144  0.2265 -0.0316
 9038TIP3    H148605   3.734   1.574  11.692 -0.5739  1.4339 -0.7122
 9038TIP3    H248606   3.711   1.545  11.545  0.8015  1.3562 -0.9222
 9039TIP3   OH248607   2.270   4.938  14.741 -0.1651 -0.0474  0.0511
 9039TIP3    H148608   2.335   4.995  14.701  0.8014 -0.5658  0.8551
 9039TIP3    H248609   2.318   4.858  14.763 -1.3123 -0.8698 -0.3274
 9040TIP3   OH248610   4.863   2.826   2.053  0.1169 -0.1055  0.3643
 9040TIP3    H148611   4.908   2.902   2.015  1.6663 -0.1564  1.9725
 9040TIP3    H248612   4.909   2.809   2.135 -0.8056 -2.2225  0.5134
 9041TIP3   OH248613   2.015   4.359   2.970 -0.2842 -0.2800  0.3984
 9041TIP3    H148614   1.947   4.318   3.024 -0.5369 -0.5658 -0.1263
 9041TIP3    H248615   2.055   4.286   2.923  1.0713 -0.2494  1.4398
 9042TIP3   OH248616   4.246   5.766  10.234 -0.3384 -1.1441  0.0295
 9042TIP3    H148617   4.217   5.854  10.256  0.5673 -0.7154 -0.4545
 9042TIP3    H248618   4.225   5.714  10.311  1.1380 -0.0472  1.2221
 9043TIP3   OH248619   5.426   6.839   3.854  0.0113  0.2943  0.3547
 9043TIP3    H148620   5.451   6.779   3.784  0.6805  0.8276  0.1300
 9043TIP3    H248621   5.436   6.788   3.934  0.2231 -0.0080  0.1377
 9044TIP3   OH248622   2.189   0.801  12.735  0.0137 -0.1875  0.4901
 9044TIP3    H148623   2.125   0.857  12.778  0.6242 -0.5758  1.9437
 9044TIP3    H248624   2.136   0.747  12.675 -0.9523 -0.1294  1.2649
 9045TIP3   OH248625   4.246   3.945  13.977  0.2608  0.4519  0.3385
 9045TIP3    H148626   4.205   3.962  13.892  1.6759  0.3146 -0.4004
 9045TIP3    H248627   4.223   3.855  13.997 -1.2905  0.9285  0.8179
 9046TIP3   OH248628   0.550   3.867   2.281  0.1733 -0.3175  0.1938
 9046TIP3    H148629   0.618   3.849   2.216  1.2133 -1.7527  1.6148
 9046TIP3    H248630   0.470   3.874   2.230  1.3701  1.8074 -1.5935
 9047TIP3   OH248631   4.086   1.958   0.880  0.0689 -0.3086  0.2724
 9047TIP3    H148632   4.064   2.045   0.913  0.9228  1.0349 -2.4144
 9047TIP3    H248633   4.108   1.972   0.788  0.2816 -3.3869 -0.2513
 9048TIP3   OH248634   5.911   4.328   5.250 -0.0900 -0.5739 -0.3144
 9048TIP3    H148635   5.906   4.339   5.154 -1.0294 -1.0857 -0.3390
 9048TIP3    H248636   5.836   4.272   5.271  0.4782 -0.9858  0.6536
 9049TIP3   OH248637   6.498   2.568  11.801  0.5010 -0.3514 -0.3957
 9049TIP3    H148638   6.464   2.516  11.728  0.0692 -1.3632  0.5018
 9049TIP3    H248639   6.421   2.589  11.853  0.6325  1.4206 -0.8447
 9050TIP3   OH248640   1.061   1.336   3.973  0.0602  0.4691 -0.0990
 9050TIP3    H148641   1.043   1.418   3.927  0.4163  0.5835 -0.0414
 9050TIP3    H248642   1.149   1.312   3.944  0.2648  0.5122  0.4769
 9051TIP3   OH248643   0.731   1.569  13.238  0.4210 -0.2587  0.0727
 9051TIP3    H148644   0.791   1.640  13.217  0.3477 -0.6494 -1.6466
 9051TIP3    H248645   0.693   1.544  13.153 -2.0777 -0.1120  1.0631
 9052TIP3   OH248646   6.368   1.263  14.594  0.6985  0.7168 -0.0445
 9052TIP3    H148647   6.394   1.211  14.670  1.9259 -2.1102 -2.2032
 9052TIP3    H248648   6.286   1.223  14.564  0.0162  2.0510 -0.0255
 9053TIP3   OH248649   2.007   2.042   6.642  0.2850  0.4435 -0.4485
 9053TIP3    H148650   2.048   2.093   6.573  3.5575  0.5142  1.3720
 9053TIP3    H248651   2.005   1.953   6.607  0.6587  0.6926 -1.1342
 9054TIP3   OH248652   1.407   2.985   2.599  0.2071  0.4076 -0.0416
 9054TIP3    H148653   1.468   2.914   2.622  1.2633  1.0680 -0.7456
 9054TIP3    H248654   1.417   3.049   2.670  1.1116  0.9801 -0.6608
 9055TIP3   OH248655   5.578   1.398   4.519 -0.9959 -0.0154 -0.8015
 9055TIP3    H148656   5.553   1.475   4.571  1.0712  1.6250 -2.0883
 9055TIP3    H248657   5.558   1.324   4.575 -1.2816  1.5454  1.2846
 9056TIP3   OH248658   4.926   3.888   5.474  0.0290 -0.1446  0.5189
 9056TIP3    H148659   4.857   3.849   5.420 -0.2186  1.4556 -0.3831
 9056TIP3    H248660   5.007   3.859   5.432  0.1686 -4.2546  3.1042
 9057TIP3   OH248661   5.184   5.411  12.728  0.2092 -0.1553 -0.1662
 9057TIP3    H148662   5.201   5.486  12.672 -0.8037 -0.2117 -0.5796
 9057TIP3    H248663   5.088   5.403  12.728  0.2991 -1.4072 -0.0984
 9058TIP3   OH248664   1.162   0.369  16.974 -0.2531  0.1140  0.7796
 9058TIP3    H148665   1.193   0.456  16.947 -0.6527 -0.1211 -0.5128
 9058TIP3    H248666   1.227   0.338  17.037  0.4445  0.9212  0.4643
 9059TIP3   OH248667   4.052   3.550  15.248 -0.1182 -0.4624 -0.0776
 9059TIP3    H148668   4.069   3.459  15.222  1.0156 -0.2199 -0.2476
 9059TIP3    H248669   3.985   3.580  15.187 -0.7136 -1.2737  0.1654
 9060TIP3   OH248670   2.029   0.986   1.638 -0.0785  0.1647  0.5300
 9060TIP3    H148671   1.968   1.059   1.647 -0.1476  0.4946 -1.8619
 9060TIP3    H248672   2.107   1.013   1.687 -0.6976  1.1097  1.0144
 9061TIP3   OH248673   2.851   2.051   0.931 -0.3397 -0.3235  0.5223
 9061TIP3    H148674   2.831   2.114   1.000 -0.2856 -2.8194  2.9619
 9061TIP3    H248675   2.935   2.013   0.956 -0.0696 -0.9641 -1.2078
 9062TIP3   OH248676   4.792   4.274   3.583 -0.1123 -0.3387  0.0158
 9062TIP3    H148677   4.743   4.343   3.537 -0.2661 -0.6023 -0.2179
 9062TIP3    H248678   4.788   4.198   3.524  0.1117 -0.5299  0.2432
 9063TIP3   OH248679   5.834   5.200  14.869  0.5776 -0.4133  0.2856
 9063TIP3    H148680   5.840   5.214  14.775 -2.3406 -0.1423  0.0406
 9063TIP3    H248681   5.878   5.116  14.884 -2.0015 -2.3874 -1.9822
 9064TIP3   OH248682   0.910   1.506  12.776  0.8362 -0.2115  0.3883
 9064TIP3    H148683   0.924   1.564  12.701  0.4799 -1.1889 -0.4618
 9064TIP3    H248684   0.997   1.497  12.816  1.3935 -1.0258 -0.9343
 9065TIP3   OH248685   2.609   6.207   1.197  0.4352 -0.4634  0.0377
 9065TIP3    H148686   2.702   6.187   1.197  0.3526 -0.8665 -0.2983
 9065TIP3    H248687   2.566   6.121   1.192  0.0637 -0.2191 -1.0609
 9066TIP3   OH248688   2.662   0.790  12.126 -0.1129 -0.0231  0.2271
 9066TIP3    H148689   2.599   0.820  12.191  2.2956  1.7607  1.9001
 9066TIP3    H248690   2.641   0.840  12.047 -0.3674  1.1177  0.9870
 9067TIP3   OH248691   5.732   6.007   0.086  0.2123 -0.3637  0.2799
 9067TIP3    H148692   5.672   5.933   0.088 -0.8747  0.4890  1.2138
 9067TIP3    H248693   5.682   6.079   0.125  1.8361  0.3888  1.0762
 9068TIP3   OH248694   1.867   0.551  14.400  0.1142 -0.5028  0.5734
 9068TIP3    H148695   1.883   0.620  14.465  1.3362  2.0025 -2.1381
 9068TIP3    H248696   1.883   0.469  14.446  3.7773  1.2076  2.7263
 9069TIP3   OH248697   6.696   0.366   1.447 -0.4500  0.0328  0.4612
 9069TIP3    H148698   6.773   0.368   1.390 -0.9197 -1.0688 -0.2565
 9069TIP3    H248699   6.664   0.456   1.448  0.4942  0.3853  0.2821
 9070TIP3   OH248700   1.545   2.933   4.381  0.0909 -0.0908 -0.1074
 9070TIP3    H148701   1.467   2.941   4.326 -0.1943 -0.7339  0.1957
 9070TIP3    H248702   1.566   2.840   4.379  2.0031  0.2930 -1.7562
 9071TIP3   OH248703   2.426   2.783   6.345  0.2228 -0.2244 -0.1947
 9071TIP3    H148704   2.444   2.799   6.437 -0.9825  1.1756 -0.1654
 9071TIP3    H248705   2.502   2.819   6.299 -0.5971  2.0755  0.1195
 9072TIP3   OH248706   4.997   5.459  17.092  0.5893  0.3777 -0.2666
 9072TIP3    H148707   4.915   5.421  17.060  0.6415 -1.1598  1.2350
 9072TIP3    H248708   4.977   5.483  17.183  1.8658 -0.2997  0.2108
 9073TIP3   OH248709   5.363   6.402  11.643 -0.1221  0.3173  0.3458
 9073TIP3    H148710   5.430   6.343  11.610 -1.2384 -1.4701  1.1326
 9073TIP3    H248711   5.282   6.371  11.604 -0.6393  1.8663  0.1247
 9074TIP3   OH248712   4.212   0.001  11.446  0.2464 -0.4704 -0.4696
 9074TIP3    H148713   4.197   0.094  11.457  0.9336 -0.4703  0.4773
 9074TIP3    H248714   4.124  -0.036  11.432 -0.3147 -0.0048  1.5668
 9075TIP3   OH248715   2.939   2.040  12.334  0.0488 -0.3442 -0.1907
 9075TIP3    H148716   2.967   1.965  12.282 -3.1845 -2.0999  0.2898
 9075TIP3    H248717   2.965   2.019  12.424 -0.7444 -0.8780 -0.0750
 9076TIP3   OH248718   6.773   5.818   4.137  0.5470 -0.1961  0.3243
 9076TIP3    H148719   6.767   5.762   4.215  0.3889 -1.1492 -0.3570
 9076TIP3    H248720   6.690   5.867   4.137 -0.1532 -1.3432 -0.0875
 9077TIP3   OH248721   1.041   0.987  15.882  0.0430  0.2101  0.0573
 9077TIP3    H148722   0.989   1.065  15.897 -1.2836 -0.8943  1.5545
 9077TIP3    H248723   0.995   0.939  15.813 -1.1435 -0.8636  1.5191
 9078TIP3   OH248724   6.521   3.436   3.546  0.3741 -0.0205 -0.0668
 9078TIP3    H148725   6.616   3.449   3.548  0.5973 -1.5356  1.5969
 9078TIP3    H248726   6.497   3.421   3.638 -1.2536 -1.0910 -0.6306
 9079TIP3   OH248727   2.954   1.922   3.050  0.3974  0.0977 -0.3725
 9079TIP3    H148728   2.968   1.931   2.956 -0.8437 -1.0463 -0.7138
 9079TIP3    H248729   2.974   2.008   3.087  0.4242  0.6968 -1.7440
 9080TIP3   OH248730   1.498   3.989   4.930 -0.5946 -0.0071 -0.4942
 9080TIP3    H148731   1.417   4.039   4.919 -0.8642 -0.4360 -0.4838
 9080TIP3    H248732   1.540   4.028   5.006 -0.7365  0.2919 -0.5666
 9081TIP3   OH248733   6.334   0.721   0.394  0.4055  0.2542 -0.7965
 9081TIP3    H148734   6.410   0.663   0.384  0.1727 -0.6965  2.0215
 9081TIP3    H248735   6.358   0.800   0.346  1.2671 -1.6161 -3.7453
 9082TIP3   OH248736   6.598   3.557  13.837  0.5259 -0.2643 -0.0970
 9082TIP3    H148737   6.549   3.505  13.901 -1.3494 -0.4579 -1.5969
 9082TIP3    H248738   6.616   3.639  13.882 -0.0065 -0.7069  0.9685
 9083TIP3   OH248739   2.305   4.331  12.164 -0.3277 -0.2153 -0.2885
 9083TIP3    H148740   2.391   4.362  12.137  0.6196 -1.6983  0.9028
 9083TIP3    H248741   2.321   4.245  12.203 -2.0989  0.2371  1.5991
 9084TIP3   OH248742   2.017   3.005  15.175  0.0623  0.0303 -0.1179
 9084TIP3    H148743   1.969   2.923  15.183  0.6655 -0.1839  1.7365
 9084TIP3    H248744   2.106   2.977  15.153  0.5370  0.0804  1.6267
 9085TIP3   OH248745   6.675   4.925   2.394  0.0272  0.4899 -0.0263
 9085TIP3    H148746   6.730   5.002   2.407  0.7618 -0.0762  0.2787
 9085TIP3    H248747   6.719   4.855   2.443  0.0387 -0.4280 -1.3070
 9086TIP3   OH248748   6.594   5.532   2.504  0.6062 -0.8377 -0.1715
 9086TIP3    H148749   6.560   5.552   2.416  1.3769 -1.2886 -0.5877
 9086TIP3    H248750   6.516   5.511   2.556  0.0482  0.3213 -0.4947
 9087TIP3   OH248751   3.354   0.675  16.589 -0.1098  0.3069  0.1870
 9087TIP3    H148752   3.405   0.755  16.601 -0.5837  0.4503  1.4397
 9087TIP3    H248753   3.361   0.630  16.673 -0.0412 -0.8611 -0.4295
 9088TIP3   OH248754   1.824   1.875   2.644  0.5455 -0.4318 -0.4580
 9088TIP3    H148755   1.800   1.967   2.650 -1.1619 -0.9265  1.3890
 9088TIP3    H248756   1.784   1.845   2.562 -0.4094  0.0793 -0.1973
 9089TIP3   OH248757   3.563   5.579  15.134 -0.0669  0.1515  0.0671
 9089TIP3    H148758   3.491   5.543  15.082  0.9659 -0.3145 -1.0850
 9089TIP3    H248759   3.544   5.673  15.139 -1.6455 -0.1944  1.2639
 9090TIP3   OH248760   2.364   1.314  13.251  0.6562 -0.1226  0.4756
 9090TIP3    H148761   2.281   1.361  13.264  0.1594 -0.6911 -0.5176
 9090TIP3    H248762   2.366   1.295  13.157  1.2061 -1.4033  0.7275
 9091TIP3   OH248763   6.788   1.920  11.310 -0.9163 -0.0740 -0.0206
 9091TIP3    H148764   6.699   1.951  11.294 -0.5011  0.5680 -1.1658
 9091TIP3    H248765   6.827   1.912  11.223 -0.3904 -1.9990  0.3497
 9092TIP3   OH248766   4.841   6.231  16.358  0.2537  0.0042 -0.1580
 9092TIP3    H148767   4.778   6.161  16.377  0.8311 -0.4727  0.0259
 9092TIP3    H248768   4.910   6.219  16.423  1.6421 -0.8580 -1.7185
 9093TIP3   OH248769   5.936   5.230  13.242  0.0110  0.3241  0.2500
 9093TIP3    H148770   5.853   5.184  13.252 -0.5705 -0.0016 -4.1961
 9093TIP3    H248771   5.921   5.316  13.282 -2.3900  0.1719 -0.1911
 9094TIP3   OH248772   1.526   5.287   4.605  0.2183  0.0178 -0.5063
 9094TIP3    H148773   1.605   5.235   4.614  1.7087  2.3086  0.5506
 9094TIP3    H248774   1.509   5.321   4.693 -2.5621 -1.1651 -0.4671
 9095TIP3   OH248775   0.376   6.538  15.865  0.1082  0.6914 -0.1008
 9095TIP3    H148776   0.443   6.588  15.819  1.8062  0.1769  1.6777
 9095TIP3    H248777   0.396   6.551  15.958 -1.1459 -0.9422  0.4459
 9096TIP3   OH248778   1.097   5.927  11.817 -0.0563  0.7241 -0.7933
 9096TIP3    H148779   1.096   6.022  11.830  1.2489  0.9402 -1.9945
 9096TIP3    H248780   1.179   5.911  11.769  0.5392 -1.2065  0.7737
 9097TIP3   OH248781   3.931   1.589   2.841 -0.3728 -0.2209  0.1592
 9097TIP3    H148782   4.008   1.644   2.850 -0.8171  0.1794  1.8902
 9097TIP3    H248783   3.950   1.533   2.767  0.2444  1.9944 -1.4512
 9098TIP3   OH248784   6.849   1.867   6.022 -0.0665  0.1731 -0.3880
 9098TIP3    H148785   6.939   1.892   6.039 -0.6395  1.1405  1.5760
 9098TIP3    H248786   6.798   1.944   6.049 -1.4117  0.3570 -3.1207
 9099TIP3   OH248787   5.356   0.578   1.932 -0.2448  0.1122 -0.7901
 9099TIP3    H148788   5.446   0.611   1.931 -0.2897  0.2455 -1.5230
 9099TIP3    H248789   5.353   0.518   2.006  0.4951 -0.0023 -0.8422
 9100TIP3   OH248790   0.060   1.662  15.491  0.8663  0.6255  0.5268
 9100TIP3    H148791   0.007   1.714  15.551 -0.4010 -1.0010  0.9095
 9100TIP3    H248792   0.049   1.572  15.523  0.2330 -0.2955 -2.0746
 9101TIP3   OH248793   2.956   5.029  16.902  0.3160 -0.4215  0.2065
 9101TIP3    H148794   3.029   5.012  16.962 -1.0833  0.4373  2.2566
 9101TIP3    H248795   2.938   5.122  16.913 -1.3060 -0.6896 -0.0250
 9102TIP3   OH248796   4.706   1.791  13.324  0.8109  0.2725  0.2281
 9102TIP3    H148797   4.662   1.731  13.263  1.1123  1.4018 -1.1443
 9102TIP3    H248798   4.793   1.752  13.337  0.6269 -0.1512  0.2073
 9103TIP3   OH248799   2.847   4.864   5.922  0.4463 -0.2135  0.5032
 9103TIP3    H148800   2.918   4.913   5.963  0.0328  1.3635 -0.5523
 9103TIP3    H248801   2.779   4.859   5.989  1.0413 -0.5771  1.0845
 9104TIP3   OH248802   3.789   6.303   3.153 -0.0326  0.6352  0.5070
 9104TIP3    H148803   3.803   6.319   3.246 -0.4281 -0.2458  0.7256
 9104TIP3    H248804   3.708   6.351   3.133 -0.1298  0.5495  0.6945
 9105TIP3   OH248805   6.345   1.322   2.458  0.0410  0.2994  0.2068
 9105TIP3    H148806   6.291   1.253   2.496  0.7247  1.1007  2.7794
 9105TIP3    H248807   6.410   1.275   2.405 -0.1736 -0.9700  1.0341
 9106TIP3   OH248808   4.247   0.588  12.424  0.2771 -0.6938  0.1985
 9106TIP3    H148809   4.172   0.530  12.430  2.6355 -3.8569  2.9472
 9106TIP3    H248810   4.248   0.635  12.508  1.6139 -1.1882  0.4967
 9107TIP3   OH248811   4.058   1.605   4.449 -0.5804  0.0204  0.6676
 9107TIP3    H148812   4.095   1.628   4.364 -0.3976  0.4102  0.8489
 9107TIP3    H248813   4.065   1.510   4.454 -1.0027 -0.0485  0.0612
 9108TIP3   OH248814   3.045   6.481   0.938  0.1427 -0.3595  0.9738
 9108TIP3    H148815   3.085   6.447   0.858  0.4847  0.4082  0.8167
 9108TIP3    H248816   3.119   6.491   0.999  0.0123 -0.0903  1.0877
 9109TIP3   OH248817   6.459   5.511   3.427  0.2285  0.1003 -0.2220
 9109TIP3    H148818   6.367   5.535   3.424 -0.2547 -1.6498 -0.5676
 9109TIP3    H248819   6.460   5.417   3.408  1.8911 -0.3681  1.7564
 9110TIP3   OH248820   2.335   4.495  11.252  0.2182  0.4884 -0.1541
 9110TIP3    H148821   2.246   4.477  11.222 -0.0827 -0.8126  1.3669
 9110TIP3    H248822   2.330   4.579  11.297 -0.8972 -0.7209  2.1799
 9111TIP3   OH248823   2.536   4.755  10.577 -0.2786 -0.0308  0.5189
 9111TIP3    H148824   2.530   4.817  10.504 -0.1842 -0.5739  0.0436
 9111TIP3    H248825   2.585   4.681  10.542  0.4328  0.0224  1.3603
 9112TIP3   OH248826   5.939   1.751   3.372  0.0411  0.3156 -0.0124
 9112TIP3    H148827   5.911   1.837   3.341  1.9250  0.0176 -3.0085
 9112TIP3    H248828   5.993   1.770   3.449  1.5822  2.0447 -1.4140
 9113TIP3   OH248829   0.125   0.113  13.384  0.6152 -0.0799 -0.7306
 9113TIP3    H148830   0.059   0.142  13.321 -0.3670  0.8818  0.6796
 9113TIP3    H248831   0.092   0.030  13.416 -0.6438  0.9901  0.9036
 9114TIP3   OH248832   6.760   5.765   1.572 -0.1236  0.1497 -0.0798
 9114TIP3    H148833   6.741   5.672   1.579 -0.3655  0.0001 -2.1074
 9114TIP3    H248834   6.852   5.773   1.598  0.6123 -1.0496 -2.1036
 9115TIP3   OH248835   5.209   1.258   0.787  0.0105  0.1405 -0.4615
 9115TIP3    H148836   5.139   1.235   0.848  1.2385  0.7188  1.2298
 9115TIP3    H248837   5.289   1.229   0.830  0.8125 -1.2768 -2.7304
 9116TIP3   OH248838   4.443   4.627   4.508  0.0641  0.2897  0.3687
 9116TIP3    H148839   4.461   4.643   4.600  0.1965 -1.3817  0.6568
 9116TIP3    H248840   4.412   4.536   4.504  0.8154  0.0615 -1.3211
 9117TIP3   OH248841   4.658   6.015  17.023  0.7566  0.1884  0.1985
 9117TIP3    H148842   4.566   5.998  17.045  0.5266  0.9981 -0.1173
 9117TIP3    H248843   4.663   5.998  16.929  0.5699  1.5753 -0.0872
 9118TIP3   OH248844   3.350   0.049  14.704  0.2390  0.1222 -0.1390
 9118TIP3    H148845   3.359  -0.032  14.755  0.1461 -1.7274 -2.9014
 9118TIP3    H248846   3.388   0.116  14.761  2.0832 -2.1491  1.5127
 9119TIP3   OH248847   4.629   6.253   3.602  0.0615  0.5134 -0.1889
 9119TIP3    H148848   4.722   6.246   3.580 -0.3272  0.4404 -2.0323
 9119TIP3    H248849   4.587   6.184   3.549 -1.0827  0.7825  0.3333
 9120TIP3   OH248850   6.816   6.705  16.549  0.2249 -0.1554 -0.5243
 9120TIP3    H148851   6.901   6.745  16.569  0.2576 -0.1232 -0.7234
 9120TIP3    H248852   6.839   6.618  16.515  0.1681 -0.2282 -0.3748
 9121TIP3   OH248853   3.738   2.726  13.995  0.4212 -0.1117 -0.0044
 9121TIP3    H148854   3.791   2.742  14.072 -1.0610 -1.8455  1.4705
 9121TIP3    H248855   3.793   2.673  13.938  1.4050  0.8933 -0.0254
 9122TIP3   OH248856   4.968   5.899   4.844  0.5872  0.4932  0.2019
 9122TIP3    H148857   4.993   5.881   4.754 -0.6204 -1.2606  0.1762
 9122TIP3    H248858   5.038   5.862   4.897  0.8134  0.6423  0.0081
 9123TIP3   OH248859   5.995   3.734   0.895  0.0489 -0.3876 -0.1826
 9123TIP3    H148860   5.952   3.705   0.975 -0.3212 -0.9347 -0.5772
 9123TIP3    H248861   5.928   3.726   0.827  0.1806  0.6330 -0.4446
 9124TIP3   OH248862   6.690   1.345   5.078 -0.1120 -0.5355 -0.3471
 9124TIP3    H148863   6.731   1.409   5.138  0.6632 -0.7675 -0.6162
 9124TIP3    H248864   6.740   1.265   5.092  0.7680 -0.3340 -2.0296
 9125TIP3   OH248865   3.328   5.531   0.159  0.3025 -0.4998  0.0462
 9125TIP3    H148866   3.401   5.585   0.131  0.2088  0.0465  0.8462
 9125TIP3    H248867   3.366   5.443   0.170  1.0119 -0.0745  1.1597
 9126TIP3   OH248868   1.778   0.621  13.011  0.1083  0.1639  0.0407
 9126TIP3    H148869   1.754   0.555  12.947  0.4226  1.0815 -1.0638
 9126TIP3    H248870   1.872   0.606  13.027  0.0174 -0.0995  0.3324
 9127TIP3   OH248871   4.747   2.335  11.180 -0.3031  0.0330 -0.3239
 9127TIP3    H148872   4.670   2.284  11.204  0.6277 -1.0546  0.4892
 9127TIP3    H248873   4.820   2.288  11.220  0.6980  1.5199 -0.3301
 9128TIP3   OH248874   2.194   3.039  14.447  0.2939  0.3878 -0.0565
 9128TIP3    H148875   2.248   3.118  14.455  1.2005 -0.2703  0.6108
 9128TIP3    H248876   2.257   2.967  14.454 -0.6146 -0.4018  0.1197
 9129TIP3   OH248877   3.175   5.766   4.486  0.6070  0.5662  0.1559
 9129TIP3    H148878   3.204   5.835   4.426 -0.1374  0.1669 -0.6788
 9129TIP3    H248879   3.129   5.703   4.430 -0.0669  0.1617  1.1419
 9130TIP3   OH248880   2.445   0.565   0.882  0.4287  0.4221 -0.0308
 9130TIP3    H148881   2.464   0.571   0.976  0.4860 -0.1983  0.0025
 9130TIP3    H248882   2.515   0.509   0.847 -1.1606 -1.7854  0.0677
 9131TIP3   OH248883   4.275   3.036   0.660 -0.9096  0.5982 -0.7712
 9131TIP3    H148884   4.308   3.123   0.683 -1.8731  0.8779 -0.4316
 9131TIP3    H248885   4.341   2.975   0.696 -1.2086  1.1079  0.7077
 9132TIP3   OH248886   5.343   0.387  10.810  0.4193 -0.3499  0.4408
 9132TIP3    H148887   5.271   0.336  10.774  0.3913 -0.1356  0.1868
 9132TIP3    H248888   5.419   0.361  10.757  1.0049 -2.1490  2.0382
 9133TIP3   OH248889   3.022   5.183   4.612 -0.4965 -0.3605 -0.3634
 9133TIP3    H148890   3.024   5.221   4.524 -1.2129  1.2232  0.2683
 9133TIP3    H248891   2.938   5.212   4.649 -0.2374 -1.0470  0.8355
 9134TIP3   OH248892   1.134   4.906  16.959 -0.0921  0.7174 -0.0807
 9134TIP3    H148893   1.093   4.905  16.873 -2.3613 -1.2976  0.9078
 9134TIP3    H248894   1.066   4.942  17.017  1.3662  1.9849  0.9130
 9135TIP3   OH248895   4.656   4.637   1.886  0.4237 -0.1680 -0.2471
 9135TIP3    H148896   4.730   4.622   1.946  0.7884  1.7183 -0.1690
 9135TIP3    H248897   4.594   4.689   1.937 -2.2720 -3.8043  0.5923
 9136TIP3   OH248898   4.591   2.976   5.045 -0.1391 -0.5876  0.2944
 9136TIP3    H148899   4.528   2.921   5.092 -0.8955  0.2039  0.2397
 9136TIP3    H248900   4.548   3.061   5.039  0.0348 -0.5836 -1.6100
 9137TIP3   OH248901   3.680   4.744   4.023 -0.3740  0.1420 -0.2583
 9137TIP3    H148902   3.762   4.724   3.976  0.1559  0.7918  0.3587
 9137TIP3    H248903   3.709   4.770   4.110 -1.3638 -1.3927  0.5729
 9138TIP3   OH248904   0.073   6.232  15.494  0.6470  0.3399 -0.2935
 9138TIP3    H148905   0.012   6.165  15.524  0.7111  0.9134  1.2239
 9138TIP3    H248906   0.042   6.313  15.535  0.6976  1.2289 -1.9079
 9139TIP3   OH248907   0.263   2.984  11.247 -0.6227  0.2789 -0.0091
 9139TIP3    H148908   0.309   2.903  11.269 -1.7767 -0.3875  0.0149
 9139TIP3    H248909   0.230   2.969  11.158  1.1174  1.6409 -0.9562
 9140TIP3   OH248910   3.989   1.025  11.914  0.2485  0.5083  0.5585
 9140TIP3    H148911   3.990   1.116  11.884 -1.2780  0.8503  1.4252
 9140TIP3    H248912   4.064   1.018  11.973  0.5256  1.1299  0.2931
 9141TIP3   OH248913   3.819   5.037   4.938  0.9153  0.0526  0.1727
 9141TIP3    H148914   3.788   4.963   4.991  1.6734  0.3482  1.0522
 9141TIP3    H248915   3.901   5.063   4.980  0.9995  0.9567 -0.5443
 9142TIP3   OH248916   5.214   0.647  15.347 -0.4613 -0.1509 -0.0856
 9142TIP3    H148917   5.246   0.562  15.315 -0.9340 -0.5159  0.3957
 9142TIP3    H248918   5.231   0.707  15.274  1.3055 -0.3129  0.1368
 9143TIP3   OH248919   6.350   6.819  13.654  0.4755  0.2189  0.6978
 9143TIP3    H148920   6.434   6.774  13.643  0.6180  0.8128 -0.8456
 9143TIP3    H248921   6.326   6.802  13.746  2.2784  0.0532  1.1820
 9144TIP3   OH248922   0.025   1.809  10.697 -0.1756 -0.2651  0.3513
 9144TIP3    H148923   0.091   1.827  10.630 -0.3804  0.7358  0.4109
 9144TIP3    H248924  -0.001   1.718  10.680  0.1983 -0.2167 -0.5497
 9145TIP3   OH248925   3.320   5.673  16.042 -0.4069  0.1218  0.0605
 9145TIP3    H148926   3.249   5.637  15.989 -1.5191  1.0946  0.8425
 9145TIP3    H248927   3.382   5.709  15.979 -0.4652 -0.9383 -0.6363
 9146TIP3   OH248928   3.808   0.269   4.044  0.1618  0.5829  0.1902
 9146TIP3    H148929   3.778   0.331   3.978 -0.4861  0.4341  0.3416
 9146TIP3    H248930   3.903   0.265   4.032  0.4404  2.8136  1.1963
 9147TIP3   OH248931   2.696   2.878  14.894  0.0313 -0.0035  0.1529
 9147TIP3    H148932   2.785   2.870  14.859  0.5630  0.8793  1.2486
 9147TIP3    H248933   2.643   2.822  14.837  1.4881 -1.6037  0.2875
 9148TIP3   OH248934   4.017   3.933   4.522  0.2350 -0.6094  0.3436
 9148TIP3    H148935   4.083   3.900   4.583  0.8164 -1.5198 -0.7339
 9148TIP3    H248936   3.945   3.870   4.528  0.1273 -0.4859  0.3591
 9149TIP3   OH248937   3.438   5.132   1.031  0.0484 -0.0059 -0.0459
 9149TIP3    H148938   3.397   5.204   0.983  0.5632  0.4488  0.1870
 9149TIP3    H248939   3.369   5.065   1.036 -0.4461  0.4736 -0.2433
 9150TIP3   OH248940   2.316   3.192  12.469  0.6948  0.1440  0.1253
 9150TIP3    H148941   2.226   3.161  12.462  0.1240  1.9800 -1.4271
 9150TIP3    H248942   2.368   3.128  12.420 -0.0370  0.0932 -0.5956
 9151TIP3   OH248943   2.810   5.632   0.326  0.0569  0.0656 -0.4220
 9151TIP3    H148944   2.823   5.538   0.314  0.3327  0.3443 -2.6791
 9151TIP3    H248945   2.723   5.650   0.290  1.0490  1.0212 -2.5532
 9152TIP3   OH248946   1.554   1.418   2.213 -0.0614  0.2930 -0.2385
 9152TIP3    H148947   1.496   1.453   2.280 -0.1508  3.3877 -1.7554
 9152TIP3    H248948   1.642   1.440   2.243 -0.0242  0.5014 -0.4935
 9153TIP3   OH248949   1.984   3.203   4.266  0.2267 -0.1657 -0.0795
 9153TIP3    H148950   1.912   3.195   4.204  0.7334 -0.9522 -0.5950
 9153TIP3    H248951   2.000   3.297   4.273 -0.9321  0.0287  0.1645
 9154TIP3   OH248952   0.464   3.991  14.665 -0.5731 -0.3253  0.2928
 9154TIP3    H148953   0.383   3.986  14.614 -0.1894 -2.7411 -0.2262
 9154TIP3    H248954   0.445   4.056  14.733 -3.5709 -1.9008  1.1682
 9155TIP3   OH248955   5.074   0.931  13.314  0.4203  0.0344 -0.1505
 9155TIP3    H148956   5.124   1.000  13.358  1.3376  0.4354 -1.7396
 9155TIP3    H248957   5.140   0.869  13.284 -0.2640 -0.7305 -0.1168
 9156TIP3   OH248958   6.413   3.818  16.642  0.3793  0.1358 -0.1738
 9156TIP3    H148959   6.407   3.730  16.605  1.4493  0.1786 -0.4849
 9156TIP3    H248960   6.456   3.806  16.726 -1.6878  0.0917  0.9322
 9157TIP3   OH248961   6.428   2.082  14.099  0.7900  0.5436 -0.1542
 9157TIP3    H148962   6.519   2.064  14.121  0.8136  2.2812  1.4835
 9157TIP3    H248963   6.379   2.064  14.180 -0.3706 -0.5156 -1.0469
 9158TIP3   OH248964   1.584   4.310  15.164 -0.2918  0.0356 -0.7592
 9158TIP3    H148965   1.493   4.310  15.133 -0.4226 -1.2569 -0.4574
 9158TIP3    H248966   1.585   4.375  15.234 -1.1558 -0.3560 -0.3557
 9159TIP3   OH248967   1.507   4.008  16.403 -0.3416 -0.5651  0.2990
 9159TIP3    H148968   1.569   3.994  16.475  0.0118  2.0273  0.5716
 9159TIP3    H248969   1.423   3.977  16.438  0.2239 -1.3850  0.9894
 9160TIP3   OH248970   3.663   3.016   3.603 -0.2627  0.3810 -0.3613
 9160TIP3    H148971   3.722   2.951   3.565 -1.0176  0.3637 -1.5614
 9160TIP3    H248972   3.710   3.099   3.594 -0.0008  0.2288 -0.3959
 9161TIP3   OH248973   4.252   6.395   4.634 -0.1524 -0.2553 -0.3416
 9161TIP3    H148974   4.291   6.398   4.546 -0.7834 -1.0493 -0.6524
 9161TIP3    H248975   4.160   6.418   4.620 -0.4381 -1.1587 -0.0061
 9162TIP3   OH248976   6.017   2.400  13.493  0.8111  0.1273  0.9200
 9162TIP3    H148977   6.078   2.416  13.422 -0.2305  2.1200  0.3796
 9162TIP3    H248978   6.027   2.476  13.551 -0.6600  0.1870  1.1472
 9163TIP3   OH248979   4.766   3.845   5.180 -0.8405  0.3780  0.4623
 9163TIP3    H148980   4.691   3.825   5.236  0.4287 -0.9901  1.8063
 9163TIP3    H248981   4.815   3.763   5.176  1.4763  1.6253  1.1159
 9164TIP3   OH248982   2.234   3.681  16.668  0.2534  0.2113 -0.4100
 9164TIP3    H148983   2.175   3.755  16.683  0.1790 -0.1522  1.3010
 9164TIP3    H248984   2.312   3.720  16.631 -0.2319  0.9986 -0.6247
 9165TIP3   OH248985   6.686   1.294  11.573  0.2676  0.1600 -0.2650
 9165TIP3    H148986   6.776   1.276  11.545  0.0169 -1.2191 -0.2675
 9165TIP3    H248987   6.654   1.210  11.606 -1.2598  0.4379 -0.9536
 9166TIP3   OH248988   4.845   3.024   0.259  0.1308  0.0110  0.1591
 9166TIP3    H148989   4.879   2.997   0.174  0.6784 -0.2369  0.4535
 9166TIP3    H248990   4.843   2.944   0.312  2.4194  0.5944  1.2575
 9167TIP3   OH248991   1.113   6.329  12.750 -0.3505 -0.1188 -0.2979
 9167TIP3    H148992   1.191   6.334  12.696  0.2337  1.6748  0.6367
 9167TIP3    H248993   1.055   6.397  12.715 -3.0917 -3.5568 -3.1941
 9168TIP3   OH248994   2.350   2.606  13.812 -0.3000 -0.0123  0.1025
 9168TIP3    H148995   2.348   2.694  13.774 -1.0255 -0.6079 -1.3077
 9168TIP3    H248996   2.290   2.555  13.758 -0.6344 -1.1564  1.4928
 9169TIP3   OH248997   0.701   0.124  11.911  0.0604 -0.5613 -0.2071
 9169TIP3    H148998   0.740   0.210  11.930 -2.7230  0.8255 -0.2197
 9169TIP3    H248999   0.629   0.144  11.851 -1.6830 -2.6590  1.0542
 9170TIP3   OH249000   2.040   5.951   6.325 -0.2705  0.1312 -0.3458
 9170TIP3    H149001   2.032   5.863   6.361 -0.2457  0.6652  1.0600
 9170TIP3    H249002   1.999   5.946   6.239 -1.5223 -0.9235  0.2731
 9171TIP3   OH249003   4.132   5.348   0.471  0.4422  0.5916 -0.2723
 9171TIP3    H149004   4.064   5.399   0.514  0.6606 -0.2867  1.1727
 9171TIP3    H249005   4.159   5.283   0.536 -0.0780 -1.6286 -2.1513
 9172TIP3   OH249006   3.244   6.079  15.280  0.5365 -0.3790 -0.0899
 9172TIP3    H149007   3.316   6.133  15.246 -0.3968  1.1858  0.3362
 9172TIP3    H249008   3.168   6.137  15.280 -0.5877 -1.7886  0.1406
 9173TIP3   OH249009   4.729   2.816   5.673  0.2528 -0.3873  0.3315
 9173TIP3    H149010   4.670   2.859   5.734  1.2092 -0.9084  1.6618
 9173TIP3    H249011   4.786   2.886   5.642 -0.3589 -0.0856 -0.1308
 9174TIP3   OH249012   3.672   6.755  15.693 -0.5774 -0.2166 -0.4224
 9174TIP3    H149013   3.668   6.844  15.658 -1.3229 -1.1423 -2.9043
 9174TIP3    H249014   3.632   6.701  15.625 -2.1125 -2.2128  1.8973
 9175TIP3   OH249015   4.769   1.288  13.902  0.5120 -0.2123 -0.7233
 9175TIP3    H149016   4.795   1.332  13.822  0.7098 -1.0125 -1.1134
 9175TIP3    H249017   4.721   1.210  13.872  1.3429 -0.9896 -0.1028
 9176TIP3   OH249018   1.671   5.027   3.381 -0.3901 -0.3505  0.3227
 9176TIP3    H149019   1.599   4.980   3.340  0.0065 -0.1564 -0.6080
 9176TIP3    H249020   1.731   4.959   3.411 -0.3239 -0.4703 -0.0828
 9177TIP3   OH249021   2.785   3.223   3.356 -0.6929  0.3249 -0.1659
 9177TIP3    H149022   2.852   3.193   3.295  0.0578 -1.8868  1.5998
 9177TIP3    H249023   2.819   3.306   3.390  0.6210 -0.1977 -0.1342
 9178TIP3   OH249024   0.831   3.829  11.880 -0.2252 -0.1768 -0.0574
 9178TIP3    H149025   0.916   3.868  11.898 -0.1292 -0.6992  0.6374
 9178TIP3    H249026   0.850   3.758  11.819  0.1238 -1.5230  1.5458
 9179TIP3   OH249027   5.253   1.741   1.755  0.0792 -0.3755 -0.1261
 9179TIP3    H149028   5.327   1.682   1.768  0.5208  0.2682  0.2882
 9179TIP3    H249029   5.281   1.800   1.685  0.2683  0.3712  0.5741
 9180TIP3   OH249030   3.123   0.871  15.694 -0.2509  0.3767  0.0896
 9180TIP3    H149031   3.090   0.782  15.700 -0.4297  0.3685 -0.8180
 9180TIP3    H249032   3.050   0.921  15.658 -0.6719  1.2047  1.9967
 9181TIP3   OH249033   3.792   1.883  16.624  0.1745  0.8792 -0.4798
 9181TIP3    H149034   3.769   1.884  16.531  0.2325  0.0711 -0.5099
 9181TIP3    H249035   3.749   1.805  16.659  0.9021  0.6638 -0.0268
 9182TIP3   OH249036   4.347   6.283   2.353 -0.3305  0.0691  0.3178
 9182TIP3    H149037   4.257   6.296   2.385 -0.7656 -0.0525 -0.8276
 9182TIP3    H249038   4.339   6.211   2.291  0.3795  0.7745 -0.6004
 9183TIP3   OH249039   3.368   3.621   6.804  0.5881  0.4319 -0.5537
 9183TIP3    H149040   3.443   3.625   6.744  1.6561 -1.2231  0.5843
 9183TIP3    H249041   3.307   3.561   6.762  0.8802  0.0816 -0.4850
 9184TIP3   OH249042   2.210   6.381  16.670 -0.3884  0.0588  0.6913
 9184TIP3    H149043   2.288   6.436  16.662 -0.2129 -0.2139  0.5163
 9184TIP3    H249044   2.166   6.390  16.585 -0.0217 -0.5766  0.4286
 9185TIP3   OH249045   6.160   2.222  11.496 -0.1342 -0.6690  0.4835
 9185TIP3    H149046   6.117   2.258  11.418 -0.3688 -0.5247  0.6780
 9185TIP3    H249047   6.186   2.300  11.545  1.5823 -0.7118 -0.2866
 9186TIP3   OH249048   6.783   4.504   4.691  0.5190  0.3162  0.3123
 9186TIP3    H149049   6.724   4.507   4.615  0.3724  0.3409  0.4281
 9186TIP3    H249050   6.730   4.534   4.764  0.6928  0.3948  0.4057
 9187TIP3   OH249051   0.726   4.502  15.864  0.4233  0.2778 -0.2105
 9187TIP3    H149052   0.670   4.554  15.922 -0.0847  0.0982 -0.5326
 9187TIP3    H249053   0.809   4.549  15.863  0.0268  1.0079 -0.3675
 9188TIP3   OH249054   6.129   1.337  15.662 -0.1443 -0.5861  0.0560
 9188TIP3    H149055   6.140   1.432  15.664  0.0539 -0.5663 -1.1569
 9188TIP3    H249056   6.058   1.322  15.599  0.6866 -1.2871 -0.7480
 9189TIP3   OH249057   5.197   0.275  14.339  0.1225  0.0104 -0.2424
 9189TIP3    H149058   5.116   0.324  14.322 -0.6750 -1.0866  0.2808
 9189TIP3    H249059   5.236   0.263  14.253  0.7845  2.2709 -0.3188
 9190TIP3   OH249060   3.970   6.133   3.452 -0.1418 -0.2944  0.5776
 9190TIP3    H149061   3.979   6.164   3.542 -2.2867  0.2121  0.6907
 9190TIP3    H249062   3.916   6.054   3.459  1.3631 -1.4189 -0.1142
 9191TIP3   OH249063   0.668   5.066  16.417  0.6255  0.3797  0.0253
 9191TIP3    H149064   0.651   4.978  16.451 -0.2594  0.3293 -0.5135
 9191TIP3    H249065   0.754   5.060  16.376 -0.0682 -0.6696 -1.3654
 9192TIP3   OH249066   4.112   2.458   4.662 -0.3714 -0.0458  0.1024
 9192TIP3    H149067   4.027   2.479   4.699 -0.0040 -0.2351  1.0825
 9192TIP3    H249068   4.104   2.368   4.631 -0.7076  0.1417 -0.3563
 9193TIP3   OH249069   5.575   0.744   0.927  0.1391 -0.1097  0.4511
 9193TIP3    H149070   5.520   0.693   0.867 -2.3133  2.5416  0.1595
 9193TIP3    H249071   5.515   0.811   0.961  2.8150  1.8367  1.6344
 9194TIP3   OH249072   6.532   6.081   5.557  0.2042  0.3545 -0.7188
 9194TIP3    H149073   6.478   6.148   5.598  0.7957  0.9947 -0.9668
 9194TIP3    H249074   6.621   6.103   5.583  0.6601  1.0897 -2.7621
 9195TIP3   OH249075   3.593   6.499  15.133  0.4308  0.0619  0.7065
 9195TIP3    H149076   3.617   6.508  15.041  0.0320 -1.1392  0.4640
 9195TIP3    H249077   3.669   6.457  15.173  1.0915  1.6476  1.2029
 9196TIP3   OH249078   6.046   0.298  12.451  0.2444  0.0564  0.0276
 9196TIP3    H149079   5.978   0.278  12.516  1.0502  0.0657  0.8968
 9196TIP3    H249080   6.076   0.212  12.421 -1.5762  0.0212 -1.9526
 9197TIP3   OH249081   6.201   2.066   5.619  0.5776  0.6971 -0.5414
 9197TIP3    H149082   6.114   2.100   5.642  0.1468 -0.2233 -0.7685
 9197TIP3    H249083   6.238   2.134   5.563 -0.4499  0.6261 -1.3524
 9198TIP3   OH249084   0.225   0.621  13.427  0.0899 -0.1864 -0.9034
 9198TIP3    H149085   0.314   0.645  13.404  0.2756 -0.4822 -0.5102
 9198TIP3    H249086   0.174   0.640  13.349  0.5334 -0.2192 -1.2051
 9199TIP3   OH249087   6.467   1.622   1.280 -0.3028 -0.1805 -0.7069
 9199TIP3    H149088   6.469   1.698   1.221  2.5477  0.7171  0.3482
 9199TIP3    H249089   6.427   1.655   1.360 -1.2141 -0.4859 -1.0275
 9200TIP3   OH249090   5.813   6.536   2.610 -0.9039  0.1028 -0.0767
 9200TIP3    H149091   5.735   6.531   2.554 -1.0841  1.3151  0.0448
 9200TIP3    H249092   5.883   6.496   2.558 -1.4741 -0.4803 -0.4128
 9201TIP3   OH249093   3.664   2.109   0.189  0.4314 -0.0842  0.6113
 9201TIP3    H149094   3.658   2.201   0.214  1.3676  0.0701  0.2892
 9201TIP3    H249095   3.684   2.063   0.271  2.4322  0.3008  0.3952
 9202TIP3   OH249096   1.396   5.828  13.262 -0.0334  0.0544 -0.3199
 9202TIP3    H149097   1.451   5.843  13.339  2.0769  0.6508 -1.8452
 9202TIP3    H249098   1.310   5.806  13.298  0.9914 -0.2164  2.1939
 9203TIP3   OH249099   0.632   2.079   2.710 -0.5018  0.4044 -0.3224
 9203TIP3    H149100   0.591   2.118   2.787  1.6116  0.2161  0.9974
 9203TIP3    H249101   0.564   2.079   2.643 -1.2728  4.4519  0.2051
 9204TIP3   OH249102   3.135   4.725   6.397  0.0731  0.1754 -0.1555
 9204TIP3    H149103   3.109   4.803   6.348 -1.2415  0.2601  0.6235
 9204TIP3    H249104   3.055   4.696   6.441  1.0111 -0.3561  1.3003
 9205TIP3   OH249105   5.507   6.113   4.916 -0.0532  0.5159  0.3244
 9205TIP3    H149106   5.501   6.168   4.995  0.2341  1.6511 -0.4146
 9205TIP3    H249107   5.417   6.089   4.896 -0.1755  0.6538  0.7070
 9206TIP3   OH249108   2.823   2.030   5.321 -0.2207  0.1290  0.0512
 9206TIP3    H149109   2.765   2.091   5.368 -0.7666 -0.1949 -0.1897
 9206TIP3    H249110   2.774   1.948   5.318  1.4845 -1.1131  2.5255
 9207TIP3   OH249111   6.378   2.806  14.484 -0.3752 -0.7759  0.1080
 9207TIP3    H149112   6.414   2.887  14.519 -0.7231  0.1039 -1.4427
 9207TIP3    H249113   6.298   2.833  14.437  0.4057 -1.7173 -1.8964
 9208TIP3   OH249114   2.234   4.668   0.738 -0.4568  0.0623 -0.1435
 9208TIP3    H149115   2.234   4.727   0.662 -0.7286 -0.4202 -0.5250
 9208TIP3    H249116   2.274   4.588   0.705  1.2988  0.5120  0.7659
 9209TIP3   OH249117   1.766   1.826  11.529  0.4754  0.0931 -0.0890
 9209TIP3    H149118   1.689   1.838  11.474 -0.0840 -2.2823  0.0603
 9209TIP3    H249119   1.733   1.830  11.619  0.8594  0.9312  0.0193
 9210TIP3   OH249120   1.774   1.755   2.382  0.1876 -0.0963 -0.3049
 9210TIP3    H149121   1.858   1.793   2.356  1.7189 -2.0524  1.4185
 9210TIP3    H249122   1.716   1.774   2.308  1.5571  2.9478 -0.7865
 9211TIP3   OH249123   5.266   0.762   5.336  0.0824  0.0379  0.2639
 9211TIP3    H149124   5.323   0.685   5.340 -0.6193 -0.6062 -1.1831
 9211TIP3    H249125   5.199   0.739   5.271 -0.2958  1.7665 -0.0214
 9212TIP3   OH249126   6.135   5.014   0.021  0.7476  0.0669  0.1681
 9212TIP3    H149127   6.047   5.052   0.018  0.8144  0.6439  2.8992
 9212TIP3    H249128   6.120   4.919   0.020  0.2352  0.1406 -1.0370
 9213TIP3   OH249129   4.852   0.716  14.104  1.0273 -0.0849  0.1685
 9213TIP3    H149130   4.915   0.731  14.033  0.8277 -1.7144 -0.4079
 9213TIP3    H249131   4.814   0.802  14.121  0.8484  0.3085 -1.9352
 9214TIP3   OH249132   3.619   1.719  16.039 -0.7512 -0.1925 -0.6889
 9214TIP3    H149133   3.701   1.753  16.003 -0.2643 -2.8235 -2.2947
 9214TIP3    H249134   3.552   1.775  15.999  0.1210  0.7107 -0.9570
 9215TIP3   OH249135   6.477   5.620   0.710  0.1291 -0.0041  0.3991
 9215TIP3    H149136   6.511   5.536   0.677  1.6836 -0.0123  1.8607
 9215TIP3    H249137   6.384   5.604   0.723  0.1187 -1.0492 -0.6621
 9216TIP3   OH249138   2.665   2.521   0.470  0.0779  0.3871  0.6797
 9216TIP3    H149139   2.695   2.556   0.386 -0.1129 -0.1784  0.3729
 9216TIP3    H249140   2.662   2.426   0.458  0.9478  0.2143  1.6223
 9217TIP3   OH249141   0.284   6.121   0.210 -0.3669  0.2709 -0.5944
 9217TIP3    H149142   0.275   6.034   0.171  0.1357 -0.4354  0.8052
 9217TIP3    H249143   0.200   6.138   0.252 -0.1571  0.0669 -0.0917
 9218TIP3   OH249144   2.693   4.773  15.818 -0.6566  0.1543 -0.7305
 9218TIP3    H149145   2.616   4.728  15.851 -0.5284 -0.6029 -1.4187
 9218TIP3    H249146   2.661   4.860  15.792 -0.6792  0.9163  1.6525
 9219TIP3   OH249147   5.546   1.395  10.665  0.7735 -0.1894  0.4112
 9219TIP3    H149148   5.545   1.401  10.569  1.8145 -3.3244  0.1184
 9219TIP3    H249149   5.582   1.480  10.693  0.0073  0.9980 -1.8974
 9220TIP3   OH249150   2.293   6.438  15.432 -0.1004  0.2059 -0.0908
 9220TIP3    H149151   2.299   6.476  15.520 -0.8200 -0.1324  0.1134
 9220TIP3    H249152   2.365   6.478  15.384 -0.4890  1.3847  0.2810
 9221TIP3   OH249153   5.916   4.690   4.015 -0.2576 -0.3387 -0.2663
 9221TIP3    H149154   6.001   4.687   4.059 -0.5796  1.5078  0.5864
 9221TIP3    H249155   5.885   4.779   4.030 -2.4260 -1.0136 -0.4086
 9222TIP3   OH249156   5.327   1.888   4.819  0.2050  0.0990 -0.9618
 9222TIP3    H149157   5.373   1.817   4.864  0.6100 -0.4124 -2.1395
 9222TIP3    H249158   5.260   1.917   4.881  0.6643 -0.6528 -0.0915
 9223TIP3   OH249159   2.285   5.050  10.953  0.4945  0.0098  0.3595
 9223TIP3    H149160   2.331   4.986  11.007  0.4948  0.3638  0.7872
 9223TIP3    H249161   2.283   5.011  10.866 -1.1434 -1.4230  0.9810
 9224TIP3   OH249162   6.585   3.729   1.220  0.2748  0.2345 -0.4362
 9224TIP3    H149163   6.505   3.733   1.168  0.3351  1.4850 -0.4655
 9224TIP3    H249164   6.641   3.669   1.172 -0.7002 -0.7954 -0.3197
 9225TIP3   OH249165   6.158   1.325  17.017  0.3293 -0.0394 -0.0117
 9225TIP3    H149166   6.120   1.413  17.018 -1.7003 -0.8454 -0.4045
 9225TIP3    H249167   6.145   1.294  16.928 -1.0573 -1.5303  0.6563
 9226TIP3   OH249168   2.939   0.425  11.775  0.0702 -0.7840  0.0756
 9226TIP3    H149169   2.902   0.351  11.728  0.2749  0.5463 -2.3447
 9226TIP3    H249170   2.868   0.454  11.833 -0.5693 -1.8741 -0.1389
 9227TIP3   OH249171   2.770   5.228  15.478  0.0646 -0.2233 -0.2441
 9227TIP3    H149172   2.766   5.321  15.501 -0.5700 -0.3734  0.2980
 9227TIP3    H249173   2.681   5.197  15.490  0.4378 -1.0876  0.4114
 9228TIP3   OH249174   3.970   3.725   0.881  0.2550 -0.1970  0.0793
 9228TIP3    H149175   3.991   3.632   0.873 -1.0331 -0.4310 -0.8453
 9228TIP3    H249176   3.924   3.731   0.965 -1.9405 -0.9013 -0.9830
 9229TIP3   OH249177   5.721   1.681  11.605 -0.0314 -0.5442  0.2227
 9229TIP3    H149178   5.675   1.721  11.532 -0.1200 -2.5135 -0.8949
 9229TIP3    H249179   5.807   1.657  11.568  0.2860 -0.7108  1.0458
 9230TIP3   OH249180   0.602   6.417   0.451  0.4165  1.1843 -0.5575
 9230TIP3    H149181   0.599   6.391   0.359  1.5185  2.7829 -1.0786
 9230TIP3    H249182   0.512   6.439   0.473 -0.1213 -0.6155 -0.7890
 9231TIP3   OH249183   1.869   3.232  15.275 -0.3136 -0.2110 -0.0253
 9231TIP3    H149184   1.871   3.159  15.213  0.0470 -0.1863 -0.0414
 9231TIP3    H249185   1.890   3.192  15.360 -1.7041 -0.4080  0.2497
 9232TIP3   OH249186   2.324   6.782  14.369  0.2511  0.1063  0.0783
 9232TIP3    H149187   2.336   6.712  14.304  0.3254  1.9119 -1.9437
 9232TIP3    H249188   2.411   6.818  14.382  0.3646 -0.7053  1.8095
 9233TIP3   OH249189   3.755   5.624  13.428  0.3147  0.3008 -0.4019
 9233TIP3    H149190   3.834   5.642  13.377  0.9347  0.4921  0.5894
 9233TIP3    H249191   3.683   5.633  13.365  1.0619  0.2813 -1.2855
 9234TIP3   OH249192   5.196   6.366   0.077 -0.1250 -0.2500  0.0706
 9234TIP3    H149193   5.190   6.279   0.038 -3.0727  0.0365 -0.3670
 9234TIP3    H249194   5.164   6.425   0.009 -0.8413  0.8370  1.3071
 9235TIP3   OH249195   6.487   5.633   4.893  0.0501  0.3462 -0.0265
 9235TIP3    H149196   6.440   5.677   4.964  0.6498  0.6011  0.2178
 9235TIP3    H249197   6.431   5.559   4.869 -1.6449  1.9400 -1.3172
 9236TIP3   OH249198   4.090   2.735  15.506  0.4071 -0.4316 -0.1220
 9236TIP3    H149199   4.144   2.723  15.584  2.0911 -0.3175 -1.2385
 9236TIP3    H249200   4.000   2.739  15.540  1.2031  1.9285  2.0895
 9237TIP3   OH249201   3.793   0.258   5.575 -0.2808 -0.5106  0.3752
 9237TIP3    H149202   3.882   0.227   5.592 -0.4024 -0.8054  0.4699
 9237TIP3    H249203   3.756   0.195   5.514  0.9361  1.7790 -2.9839
 9238TIP3   OH249204   5.455   6.055   2.003  0.0210  0.0143  0.4582
 9238TIP3    H149205   5.511   6.125   2.036  0.9458 -0.0481 -0.8748
 9238TIP3    H249206   5.457   5.988   2.071  0.1494  0.7499  1.1890
 9239TIP3   OH249207   5.659   0.248   4.260  0.4553 -0.2375 -0.2879
 9239TIP3    H149208   5.634   0.251   4.352  0.1037  0.3160 -0.3958
 9239TIP3    H249209   5.576   0.255   4.212  0.5084 -1.7515 -0.6589
 9240TIP3   OH249210   2.827   5.015  12.023 -0.0190 -0.3958 -0.2481
 9240TIP3    H149211   2.855   4.932  12.060 -0.6148 -0.5192 -0.0645
 9240TIP3    H249212   2.883   5.080  12.066 -0.9547 -0.4890  1.2072
 9241TIP3   OH249213   6.159   0.048  13.472  0.3583 -0.2883  0.4945
 9241TIP3    H149214   6.221   0.013  13.536  1.2695 -2.5342 -1.4532
 9241TIP3    H249215   6.200   0.031  13.387 -2.7948 -1.7392 -0.9037
 9242TIP3   OH249216   5.994   1.770  16.554 -0.2751  0.3969 -0.3612
 9242TIP3    H149217   6.021   1.802  16.468 -1.0929 -0.3547 -0.9157
 9242TIP3    H249218   6.041   1.826  16.616  2.5524 -0.8364 -1.2241
 9243TIP3   OH249219   3.765   4.220   5.501  0.1810  0.7546  0.2430
 9243TIP3    H149220   3.790   4.197   5.591 -0.0691  2.7267  0.8708
 9243TIP3    H249221   3.751   4.136   5.458  0.5276 -0.2539  1.9875
 9244TIP3   OH249222   4.874   3.749   4.038 -0.0317 -0.2395 -0.6010
 9244TIP3    H149223   4.839   3.771   3.951  0.6751  0.0535 -0.8158
 9244TIP3    H249224   4.943   3.686   4.021  1.3724  1.1940 -0.4390
 9245TIP3   OH249225   1.184   2.964  14.245  0.0219 -0.0057  0.2457
 9245TIP3    H149226   1.140   3.010  14.317  0.2612  0.7451 -0.0792
 9245TIP3    H249227   1.243   3.030  14.208  1.3574 -0.9632  0.6142
 9246TIP3   OH249228   6.171   3.198  13.435  0.2765  0.3605 -0.0621
 9246TIP3    H149229   6.237   3.267  13.443  0.1735  0.4331  0.1759
 9246TIP3    H249230   6.200   3.129  13.495  1.6099 -0.8087 -1.9892
 9247TIP3   OH249231   2.418   6.857  12.600 -0.7185 -0.5176  0.0784
 9247TIP3    H149232   2.383   6.853  12.689  0.6431 -0.4862  0.6428
 9247TIP3    H249233   2.487   6.923  12.604 -0.3135 -0.8614 -0.8821
 9248TIP3   OH249234   5.719   1.862  14.512  0.5637  0.3149  0.1388
 9248TIP3    H149235   5.798   1.875  14.461 -1.2304  1.3611 -2.6462
 9248TIP3    H249236   5.711   1.941  14.565  0.9094  0.6457 -0.2962
 9249TIP3   OH249237   2.346   5.895   3.372  0.6747  0.6216 -0.1734
 9249TIP3    H149238   2.439   5.881   3.387  0.8710  1.2850 -0.7338
 9249TIP3    H249239   2.339   5.912   3.278 -0.2659 -1.4583 -0.5457
 9250TIP3   OH249240   4.006   4.444   0.478 -0.3444 -0.4286  0.1075
 9250TIP3    H149241   4.059   4.438   0.557  0.0461 -0.9755 -0.1877
 9250TIP3    H249242   3.975   4.535   0.477  0.6971 -0.0515  0.2283
 9251TIP3   OH249243   1.411   3.048   1.088 -0.4271 -0.0915  0.1714
 9251TIP3    H149244   1.467   3.007   1.154 -0.5556 -1.1492 -0.3583
 9251TIP3    H249245   1.392   3.135   1.124 -0.4799 -0.6278  1.5149
 9252TIP3   OH249246   0.001   6.487   3.740 -0.5999  0.2753 -0.0498
 9252TIP3    H149247  -0.046   6.409   3.710 -0.7243  0.4106 -0.2139
 9252TIP3    H249248   0.041   6.523   3.660 -0.6153  0.4278  0.0107
 9253TIP3   OH249249   0.101   2.224  10.783 -0.7598  0.4487  0.1112
 9253TIP3    H149250   0.148   2.181  10.711 -0.1400  1.5399 -0.1492
 9253TIP3    H249251   0.019   2.254  10.743 -0.4780  0.9306 -0.1075
 9254TIP3   OH249252   1.451   4.360  13.238 -0.2038 -0.3568 -0.2833
 9254TIP3    H149253   1.369   4.378  13.191 -1.2261  0.8016  1.7857
 9254TIP3    H249254   1.436   4.276  13.282 -1.6308  1.3039  2.6480
 9255TIP3   OH249255   0.758   2.618  12.630 -0.1217 -0.0968 -0.3591
 9255TIP3    H149256   0.768   2.671  12.551 -1.3869 -1.4595 -1.5090
 9255TIP3    H249257   0.690   2.662  12.680 -0.5332 -0.1274 -0.8763
 9256TIP3   OH249258   0.551   4.180   4.378 -0.9084  0.6527 -0.3578
 9256TIP3    H149259   0.521   4.264   4.344 -0.3326  1.0305  0.0379
 9256TIP3    H249260   0.641   4.196   4.406 -0.9710  0.0516  0.2391
 9257TIP3   OH249261   0.477   2.453   0.834 -0.2519  0.2564 -0.5095
 9257TIP3    H149262   0.415   2.406   0.891  0.6590 -1.7001 -1.0367
 9257TIP3    H249263   0.425   2.476   0.757 -0.6779 -0.0975 -0.3348
 9258TIP3   OH249264   0.708   6.845   1.252 -0.2401 -0.0534 -0.7848
 9258TIP3    H149265   0.618   6.878   1.244  0.1506  0.9173 -1.3611
 9258TIP3    H249266   0.734   6.826   1.162  0.1490 -0.2936 -0.6199
 9259TIP3   OH249267   3.001   0.204   4.866 -0.0816 -0.3734  0.0406
 9259TIP3    H149268   2.975   0.284   4.821  1.6192  0.0560 -0.2635
 9259TIP3    H249269   3.028   0.232   4.953 -0.7823 -0.8207  0.4102
 9260TIP3   OH249270   3.625   5.444  16.108 -0.2254  0.8179 -0.4559
 9260TIP3    H149271   3.605   5.351  16.095 -1.2399  0.9635 -0.0560
 9260TIP3    H249272   3.699   5.444  16.168  0.1989  0.2618 -0.9646
 9261TIP3   OH249273   0.966   2.162   0.137  0.3661  0.2915 -0.2835
 9261TIP3    H149274   0.939   2.101   0.205 -0.6908  0.5250 -0.4786
 9261TIP3    H249275   1.062   2.164   0.143  0.2634  0.9412  1.7407
 9262TIP3   OH249276   0.130   6.483  16.416  0.3588  0.1131 -0.1313
 9262TIP3    H149277   0.210   6.523  16.449 -1.6162  2.7640  1.9960
 9262TIP3    H249278   0.103   6.422  16.484  0.1392 -0.1081 -0.4122
 9263TIP3   OH249279   3.655   1.186  13.913  0.2477  0.1197 -0.0302
 9263TIP3    H149280   3.566   1.219  13.901  0.6701  0.8752 -1.3308
 9263TIP3    H249281   3.697   1.251  13.969  0.8266  1.4735 -1.8966
 9264TIP3   OH249282   3.080   4.761  12.530  0.5823  0.2382 -0.6394
 9264TIP3    H149283   3.095   4.669  12.553  0.6691  0.2871 -0.4983
 9264TIP3    H249284   3.132   4.774  12.450 -2.6846 -0.9749 -3.1996
 9265TIP3   OH249285   1.341   2.060   1.661 -0.0112 -0.3040 -0.5159
 9265TIP3    H149286   1.398   2.049   1.738 -1.9096  0.9679  1.1751
 9265TIP3    H249287   1.343   2.154   1.643 -1.1892 -0.3083 -0.7234
 9266TIP3   OH249288   2.388   6.524  11.142 -0.0645  0.2119  0.4113
 9266TIP3    H149289   2.323   6.567  11.085  1.2551 -1.0277 -2.2260
 9266TIP3    H249290   2.450   6.593  11.164 -1.4057  1.0670  1.7353
 9267TIP3   OH249291   2.466   0.920  15.294 -0.1206 -0.4662  0.2292
 9267TIP3    H149292   2.427   0.901  15.208  0.6725  1.1061 -0.5227
 9267TIP3    H249293   2.529   0.850  15.307 -0.5851 -0.9890 -0.2459
 9268TIP3   OH249294   5.923   4.399  12.478 -0.2404 -0.1324  0.4922
 9268TIP3    H149295   5.990   4.432  12.538  0.3923 -0.0660 -0.2343
 9268TIP3    H249296   5.857   4.469  12.475  0.5241  0.5829 -0.1358
 9269TIP3   OH249297   4.578   3.209  16.977  0.1795  0.2227  0.4637
 9269TIP3    H149298   4.529   3.269  16.921 -0.0964 -1.3885 -1.1102
 9269TIP3    H249299   4.669   3.236  16.966 -0.0550  1.3488  1.0783
 9270TIP3   OH249300   4.028   3.423  12.231  0.1373  0.2321  0.1576
 9270TIP3    H149301   3.996   3.383  12.150  2.0169  2.3266 -1.7836
 9270TIP3    H249302   4.083   3.356  12.271 -1.5299 -1.1506  0.2262
 9271TIP3   OH249303   2.150   6.338  14.344 -0.2697  0.1883  0.3925
 9271TIP3    H149304   2.129   6.245  14.335  0.7283 -0.1654  1.4099
 9271TIP3    H249305   2.079   6.384  14.300 -0.7102 -1.0615 -0.2356
 9272TIP3   OH249306   4.378   0.404  11.597 -0.3630  0.5057  0.5824
 9272TIP3    H149307   4.370   0.499  11.593  0.4055  0.5810  0.6464
 9272TIP3    H249308   4.382   0.384  11.691 -1.3654  0.3252  0.5971
 9273TIP3   OH249309   1.520   0.863   1.520  0.2904  0.5584 -0.8181
 9273TIP3    H149310   1.559   0.950   1.520 -0.3655  0.8731  0.4720
 9273TIP3    H249311   1.448   0.869   1.583  0.6000 -1.0888 -0.2690
 9274TIP3   OH249312   1.345   5.580   4.050 -0.0327 -0.6052  0.1354
 9274TIP3    H149313   1.434   5.549   4.034  0.7562  1.4514  0.2943
 9274TIP3    H249314   1.306   5.585   3.963  1.2740  1.9576 -0.3934
 9275TIP3   OH249315   3.338   6.374   1.747 -0.5748 -0.2231 -0.6257
 9275TIP3    H149316   3.414   6.318   1.758  0.8387  1.3776 -1.7914
 9275TIP3    H249317   3.324   6.413   1.834 -0.5525 -1.0744 -0.2279
 9276TIP3   OH249318   6.516   2.611  15.685 -0.1734 -0.0912 -0.0830
 9276TIP3    H149319   6.525   2.611  15.590  0.3783 -1.7559 -0.0705
 9276TIP3    H249320   6.503   2.519  15.708 -0.0053  0.2391  1.4871
 9277TIP3   OH249321   5.094   0.442   2.268  0.3172  0.2918 -0.4556
 9277TIP3    H149322   5.027   0.375   2.255 -0.8997  1.2768  0.4158
 9277TIP3    H249323   5.169   0.396   2.306  0.1153 -0.8243 -1.3879
 9278TIP3   OH249324   6.036   4.481   0.692  0.3733 -0.3249 -0.3183
 9278TIP3    H149325   5.992   4.416   0.747 -0.8568  1.9147  1.5473
 9278TIP3    H249326   6.043   4.440   0.606 -1.4781 -2.4229  0.4421
 9279TIP3   OH249327   5.886   6.180   3.531  1.0623 -0.4912  0.8559
 9279TIP3    H149328   5.980   6.197   3.532  1.5294 -2.6232 -0.5492
 9279TIP3    H249329   5.866   6.159   3.440 -0.6825 -0.5776  1.2290
 9280TIP3   OH249330   3.420   2.302   3.403  0.0651 -0.6957 -0.3674
 9280TIP3    H149331   3.400   2.210   3.385  1.2818 -1.0544  0.0681
 9280TIP3    H249332   3.514   2.305   3.418  0.1492  0.7185 -0.9328
 9281TIP3   OH249333   3.292   4.958  13.153  0.3252 -0.2480  0.2252
 9281TIP3    H149334   3.357   4.897  13.188 -1.8241 -2.4451  0.6256
 9281TIP3    H249335   3.325   5.045  13.178  1.3583 -1.4285  3.4723
 9282TIP3   OH249336   1.986   1.470   2.565 -0.3953 -0.1502 -0.1138
 9282TIP3    H149337   2.040   1.548   2.580  2.9110 -1.9336 -1.6232
 9282TIP3    H249338   1.967   1.437   2.653  1.0052  0.5634  0.4955
 9283TIP3   OH249339   6.593   1.061  15.813 -0.4948  0.0942 -0.4825
 9283TIP3    H149340   6.520   1.120  15.794 -0.8167 -0.3164 -0.5339
 9283TIP3    H249341   6.631   1.041  15.728 -0.3938  0.2213 -0.4667
 9284TIP3   OH249342   1.155   2.520   3.597  0.1954 -0.7449  0.0390
 9284TIP3    H149343   1.229   2.485   3.547 -0.5930 -3.0429  0.3969
 9284TIP3    H249344   1.078   2.497   3.546 -0.3857  0.4151  0.3645
 9285TIP3   OH249345   1.791   2.748  11.953  0.1330 -0.5004 -0.0566
 9285TIP3    H149346   1.743   2.820  11.913 -1.6583 -0.2527  2.3169
 9285TIP3    H249347   1.728   2.676  11.955 -0.2071 -0.2370  2.9476
 9286TIP3   OH249348   2.825   1.697   1.493  0.5094 -0.6887  0.2802
 9286TIP3    H149349   2.883   1.767   1.464  0.6494 -0.4452  1.1206
 9286TIP3    H249350   2.746   1.707   1.440  1.4028 -1.3273 -1.2288
 9287TIP3   OH249351   1.441   3.264   2.690 -0.0844 -0.8018  0.3031
 9287TIP3    H149352   1.421   3.259   2.596  1.1508 -0.4263  0.0032
 9287TIP3    H249353   1.355   3.265   2.732 -0.6561 -2.5097 -0.7242
 9288TIP3   OH249354   3.530   6.692  12.116  0.8016 -0.5529  0.8652
 9288TIP3    H149355   3.502   6.604  12.091 -0.7235  0.1303  0.0725
 9288TIP3    H249356   3.566   6.681  12.204 -0.4053 -1.7904  1.2432
 9289TIP3   OH249357   2.611   6.059   5.113  0.3518 -0.4202 -0.0277
 9289TIP3    H149358   2.531   6.105   5.091 -0.1874 -0.7591  1.1270
 9289TIP3    H249359   2.680   6.126   5.110 -0.0022 -0.0862 -0.8059
 9290TIP3   OH249360   1.960   6.076  10.941 -0.6045  0.4610  0.1767
 9290TIP3    H149361   1.933   5.985  10.933  0.1535  0.2961 -0.6694
 9290TIP3    H249362   2.054   6.075  10.922 -0.1991  1.1736  1.9054
 9291TIP3   OH249363   6.392   2.610  13.012 -0.3781 -0.3650 -0.0423
 9291TIP3    H149364   6.427   2.573  13.092 -0.7960 -2.1648 -0.6461
 9291TIP3    H249365   6.416   2.548  12.944 -1.9241 -0.0128 -0.9707
 9292TIP3   OH249366   4.753   0.900   4.562  0.1107  0.3467 -0.0086
 9292TIP3    H149367   4.778   0.931   4.475  0.3977 -0.4455 -0.2164
 9292TIP3    H249368   4.661   0.926   4.570 -1.1891 -2.9719 -2.1873
 9293TIP3   OH249369   2.109   1.401  16.880 -0.2809  0.3642 -0.3283
 9293TIP3    H149370   2.130   1.456  16.955 -0.3962 -0.2712  0.1783
 9293TIP3    H249371   2.184   1.343  16.870 -1.6547 -1.8974  1.4710
 9294TIP3   OH249372   1.644   3.138  11.565  0.4585 -0.6514  0.1452
 9294TIP3    H149373   1.626   3.181  11.481 -0.9138  0.0667  0.7732
 9294TIP3    H249374   1.725   3.180  11.596  1.7564 -1.8730 -1.3948
 9295TIP3   OH249375   1.060   0.847  12.429 -0.1255  0.0518  0.4281
 9295TIP3    H149376   1.027   0.913  12.491 -2.7193 -1.7637  1.1828
 9295TIP3    H249377   1.109   0.785  12.483  1.4821  0.8005 -0.1226
 9296TIP3   OH249378   0.224   6.077  12.569  0.1335  0.0564 -0.2491
 9296TIP3    H149379   0.246   6.017  12.641 -1.7187  0.6476  0.8657
 9296TIP3    H249380   0.308   6.096  12.527  1.0680 -1.4369  0.8458
 9297TIP3   OH249381   1.810   6.790   2.325 -0.3571  0.3189  0.4492
 9297TIP3    H149382   1.855   6.735   2.262  0.8116 -1.9582  3.0400
 9297TIP3    H249383   1.722   6.752   2.331 -0.4896  0.5775  0.1487
 9298TIP3   OH249384   6.835   0.198  12.634  0.4838  0.1810  0.6673
 9298TIP3    H149385   6.810   0.270  12.691 -1.0420 -0.5452  0.9494
 9298TIP3    H249386   6.754   0.148  12.620  1.2794 -0.8805 -0.3687
 9299TIP3   OH249387   0.160   2.815  10.694 -0.0734  0.2211 -0.2270
 9299TIP3    H149388   0.236   2.853  10.651 -0.4481  0.8106 -0.3835
 9299TIP3    H249389   0.195   2.746  10.750  0.6639  1.0009  0.2987
 9300TIP3   OH249390   6.314   2.259   1.418  0.9867  0.3438 -0.0716
 9300TIP3    H149391   6.240   2.313   1.393  1.8901  1.8858  0.4656
 9300TIP3    H249392   6.322   2.195   1.348 -1.4745 -0.5530  0.3738
 9301TIP3   OH249393   3.062   3.548   5.252 -0.3734 -0.1958 -0.2924
 9301TIP3    H149394   3.056   3.530   5.158  1.1493  0.2456 -0.4942
 9301TIP3    H249395   3.142   3.504   5.281  1.2006  2.6218  0.0227
 9302TIP3   OH249396   1.454   6.576   0.442  0.2447 -0.0078  0.0780
 9302TIP3    H149397   1.439   6.670   0.438  2.6801  0.4230 -0.3781
 9302TIP3    H249398   1.423   6.543   0.358 -2.5365 -0.0052  1.0101
 9303TIP3   OH249399   1.475   5.629  12.998 -0.2075  0.4403 -0.4219
 9303TIP3    H149400   1.389   5.651  13.033 -1.3837 -2.5207 -1.1626
 9303TIP3    H249401   1.473   5.662  12.908 -0.6184  0.2778 -0.4739
 9304TIP3   OH249402   0.978   0.002   3.359  0.3107  0.0285  0.5040
 9304TIP3    H149403   0.920  -0.005   3.284  0.7258  1.0995  0.0649
 9304TIP3    H249404   0.933   0.061   3.419  1.3150  1.6430 -0.2507
 9305TIP3   OH249405   5.237   0.135   3.044  0.1671  0.6644  0.0308
 9305TIP3    H149406   5.305   0.119   3.110 -1.6875  1.5516  2.3121
 9305TIP3    H249407   5.196   0.050   3.030 -0.0902  0.6424  0.8490
 9306TIP3   OH249408   4.647   1.968  16.580  0.7111 -0.2583 -0.0052
 9306TIP3    H149409   4.565   2.003  16.545  1.6931  1.3204 -0.8329
 9306TIP3    H249410   4.684   1.916  16.508 -0.1840 -2.1581  0.8342
 9307TIP3   OH249411   3.973   4.143  12.880  0.0241  0.1786  0.0866
 9307TIP3    H149412   4.043   4.099  12.929 -0.3930 -0.8470 -0.2136
 9307TIP3    H249413   3.900   4.146  12.941  0.2569  1.0647  0.3305
 9308TIP3   OH249414   3.256   2.593  16.181  0.1098  0.1827  0.5117
 9308TIP3    H149415   3.233   2.557  16.096 -0.7719  1.0982  0.3452
 9308TIP3    H249416   3.352   2.596  16.181  0.3427 -3.3384  1.0571
 9309TIP3   OH249417   5.050   4.853   0.153  0.1864 -0.2710 -0.4221
 9309TIP3    H149418   5.093   4.768   0.168  0.4564 -0.2499 -1.0415
 9309TIP3    H249419   5.104   4.916   0.200  0.5825 -0.3065 -0.8207
 9310TIP3   OH249420   1.158   6.777   4.293 -0.6353 -0.2716 -0.2688
 9310TIP3    H149421   1.178   6.693   4.334 -0.3783 -0.6092 -1.0677
 9310TIP3    H249422   1.099   6.820   4.355  0.8761 -0.1310  1.1591
 9311TIP3   OH249423   1.254   5.937   1.973 -0.2889 -0.7773  0.2398
 9311TIP3    H149424   1.321   6.006   1.975 -0.9515 -0.0311 -1.4141
 9311TIP3    H249425   1.172   5.983   1.989 -0.9244 -0.8424 -2.4017
 9312TIP3   OH249426   5.393   0.228  13.471 -0.2166 -0.5389 -0.7287
 9312TIP3    H149427   5.448   0.281  13.529  0.1196 -0.1197 -1.4142
 9312TIP3    H249428   5.391   0.278  13.389 -0.7040 -1.1094 -1.0664
 9313TIP3   OH249429   2.673   6.626   3.499  0.7654 -0.1380 -0.0568
 9313TIP3    H149430   2.627   6.680   3.434  0.0016 -2.6884 -1.7918
 9313TIP3    H249431   2.606   6.605   3.564  0.1199 -1.5728 -1.1199
 9314TIP3   OH249432   1.327   0.183   1.049 -0.4713  0.1184  0.5112
 9314TIP3    H149433   1.394   0.194   1.116  0.7295 -0.1944 -0.5845
 9314TIP3    H249434   1.257   0.135   1.092 -0.8462  2.0615  2.2190
 9315TIP3   OH249435   6.099   2.743  13.342 -0.1016 -0.3832 -0.3529
 9315TIP3    H149436   6.120   2.827  13.300  0.6844 -0.1120  0.5424
 9315TIP3    H249437   6.009   2.725  13.316  0.0708  0.2021 -1.4287
 9316TIP3   OH249438   3.373   0.554  16.827 -0.0969  0.0198  0.3409
 9316TIP3    H149439   3.415   0.616  16.886 -1.8558  2.1113 -0.4563
 9316TIP3    H249440   3.296   0.523  16.875  0.7208 -1.5531  0.7003
 9317TIP3   OH249441   6.063   5.179   5.747 -0.0207  0.3325  0.0897
 9317TIP3    H149442   6.140   5.188   5.692 -1.1095 -1.3102 -1.8198
 9317TIP3    H249443   6.009   5.255   5.725 -1.2820 -1.2290 -2.6542
 9318TIP3   OH249444   1.100   2.048   1.496 -0.3291  0.1184  0.2507
 9318TIP3    H149445   1.145   2.074   1.576  1.6602  1.0612 -1.1118
 9318TIP3    H249446   1.142   2.098   1.426 -2.5486 -0.0326 -1.3204
 9319TIP3   OH249447   1.123   1.991  12.107  0.1326  0.1099  0.3038
 9319TIP3    H149448   1.033   2.021  12.090 -1.1587 -2.7401  1.5101
 9319TIP3    H249449   1.156   1.966  12.021  0.3875  2.5241 -0.3734
 9320TIP3   OH249450   0.307   6.823  10.502  0.0476 -0.4032 -0.2491
 9320TIP3    H149451   0.330   6.916  10.507  2.3754 -0.8758 -1.0733
 9320TIP3    H249452   0.215   6.820  10.528 -0.3485  2.2300 -1.0251
 9321TIP3   OH249453   6.286   5.280  16.544 -0.3087 -0.1552 -0.6846
 9321TIP3    H149454   6.308   5.354  16.488 -0.8143  0.0726 -0.5862
 9321TIP3    H249455   6.358   5.219  16.532  0.0883  0.3324 -0.8010
 9322TIP3   OH249456   6.267   1.054   5.728  0.8586  0.3007 -0.0659
 9322TIP3    H149457   6.250   0.988   5.795  1.7971 -0.0320 -0.1354
 9322TIP3    H249458   6.245   1.010   5.646 -0.8070  0.8875  0.0406
 9323TIP3   OH249459   3.533   0.293   2.594  0.4977 -0.1029 -0.0930
 9323TIP3    H149460   3.509   0.355   2.663  0.3675  0.7213 -0.8657
 9323TIP3    H249461   3.474   0.218   2.607 -0.5571  0.6881 -0.2307
 9324TIP3   OH249462   1.828   2.873  13.713  0.4676 -0.2434 -0.1850
 9324TIP3    H149463   1.893   2.930  13.671 -0.6327  0.4743 -0.9823
 9324TIP3    H249464   1.828   2.794  13.659 -0.9769  0.6948 -1.6825
 9325TIP3   OH249465   0.496   1.025   4.479 -0.1611  0.0823  0.1981
 9325TIP3    H149466   0.475   0.976   4.400 -0.4580  0.4196  0.0687
 9325TIP3    H249467   0.539   0.961   4.536 -0.3797 -0.2800 -0.0422
 9326TIP3   OH249468   4.912   4.255  14.133 -0.1150 -0.5181  0.1243
 9326TIP3    H149469   4.925   4.293  14.220 -1.4417  1.3343 -0.4296
 9326TIP3    H249470   4.870   4.170  14.150  1.3599 -1.0606  1.3237
 9327TIP3   OH249471   1.103   2.129   2.401  0.0724 -0.4165 -0.4185
 9327TIP3    H149472   1.169   2.069   2.365  0.2997 -0.9774  0.8754
 9327TIP3    H249473   1.022   2.079   2.400 -0.1662 -0.0191 -1.2337
 9328TIP3   OH249474   3.314   3.499   4.338  0.4518  0.0505 -0.6779
 9328TIP3    H149475   3.376   3.519   4.267  0.5232 -1.5154 -1.0973
 9328TIP3    H249476   3.264   3.579   4.349  2.7512  1.5179 -0.0978
 9329TIP3   OH249477   4.698   0.510  11.948  0.6776  0.2445 -0.3171
 9329TIP3    H149478   4.725   0.497  12.039  0.8799  1.7117 -0.1463
 9329TIP3    H249479   4.618   0.563  11.954  1.3047  1.3067 -1.0034
 9330TIP3   OH249480   4.661   1.070   2.430 -0.3003 -0.7561  0.4898
 9330TIP3    H149481   4.731   1.101   2.489 -1.4658  1.1014  0.9964
 9330TIP3    H249482   4.581   1.084   2.480 -1.1960 -0.7775 -0.9164
 9331TIP3   OH249483   5.718   4.082  12.113 -0.0401 -0.4470  0.1912
 9331TIP3    H149484   5.625   4.062  12.116 -0.3081  0.3760 -1.4570
 9331TIP3    H249485   5.742   4.097  12.205 -0.9122 -3.1084  0.9470
 9332TIP3   OH249486   6.618   4.618   1.893 -0.6623  0.2760 -0.1409
 9332TIP3    H149487   6.612   4.628   1.799 -1.1293 -1.2611 -0.3148
 9332TIP3    H249488   6.561   4.543   1.912 -1.1809  1.0262  1.4526
 9333TIP3   OH249489   6.664   3.126   5.625 -0.6915 -0.2056  0.5683
 9333TIP3    H149490   6.574   3.152   5.641 -0.6124  0.9113 -0.6992
 9333TIP3    H249491   6.689   3.078   5.704 -1.9259  0.7049  1.5521
 9334TIP3   OH249492   4.930   4.747   3.728  0.2792 -0.1667  0.2556
 9334TIP3    H149493   4.969   4.770   3.813  1.1910  2.2520 -0.7439
 9334TIP3    H249494   4.933   4.651   3.726  1.8018 -0.2322  2.2397
 9335TIP3   OH249495   4.000   5.223   5.761  0.4004 -0.6179 -0.1576
 9335TIP3    H149496   4.075   5.273   5.728 -0.7833  2.3975  1.3210
 9335TIP3    H249497   3.926   5.251   5.708 -0.3937 -0.3456  1.0359
 9336TIP3   OH249498   4.069   0.123  15.973  0.1874 -0.2823 -1.0170
 9336TIP3    H149499   4.113   0.039  15.984  2.1002  0.7854  0.1156
 9336TIP3    H249500   4.138   0.182  15.943 -1.4378  0.6039 -3.3377
 9337TIP3   OH249501   4.518   1.375  16.029 -0.1134  0.0067  0.1120
 9337TIP3    H149502   4.594   1.318  16.035  1.3545  1.6490 -1.5927
 9337TIP3    H249503   4.447   1.319  15.999  0.1184 -1.7491  2.5789
 9338TIP3   OH249504   3.939   3.310  11.764 -0.2342  0.1459  1.0087
 9338TIP3    H149505   3.928   3.390  11.711 -1.4574  0.0733  1.1114
 9338TIP3    H249506   4.028   3.316  11.799  0.1425  0.8383 -0.0069
 9339TIP3   OH249507   5.868   6.201  12.632 -0.4369  0.3604  0.4119
 9339TIP3    H149508   5.903   6.289  12.617  0.0531  0.1277  0.1521
 9339TIP3    H249509   5.781   6.202  12.592  0.5608 -0.0323 -1.9084
 9340TIP3   OH249510   5.813   0.714   4.405 -0.5087  0.1054 -0.7374
 9340TIP3    H149511   5.873   0.640   4.421 -0.5395  0.1018 -0.6370
 9340TIP3    H249512   5.862   0.771   4.346 -0.0467  0.5393  0.0467
 9341TIP3   OH249513   6.737   0.508  11.864 -0.5421  0.0253 -0.0993
 9341TIP3    H149514   6.817   0.519  11.916 -1.2060 -1.1409  1.2223
 9341TIP3    H249515   6.669   0.550  11.916 -1.3243 -1.6598  0.2897
 9342TIP3   OH249516   2.435   3.324   4.980  0.0545 -0.1292 -0.0356
 9342TIP3    H149517   2.420   3.370   4.897 -0.2807 -1.3759 -0.6931
 9342TIP3    H249518   2.443   3.393   5.045  0.7940  0.9015 -1.1853
 9343TIP3   OH249519   1.855   5.409   3.682 -0.0594  0.4531 -0.2897
 9343TIP3    H149520   1.914   5.420   3.607  0.3513  1.2718  0.1364
 9343TIP3    H249521   1.780   5.361   3.647 -0.9316  2.7351 -1.7908
 9344TIP3   OH249522   6.451   3.578   3.047  0.4672 -0.5709 -0.3101
 9344TIP3    H149523   6.390   3.526   2.994 -2.3938  1.7725  0.4784
 9344TIP3    H249524   6.431   3.554   3.137 -1.5063  2.3056  0.1316
 9345TIP3   OH249525   5.518   5.774  12.761  0.0434 -0.1905 -0.3157
 9345TIP3    H149526   5.523   5.834  12.835  0.5964 -0.7034  0.0714
 9345TIP3    H249527   5.434   5.793  12.720 -0.5074 -0.2600  0.7563
 9346TIP3   OH249528   4.224   2.466  14.581  0.2435 -0.6860 -0.5843
 9346TIP3    H149529   4.160   2.484  14.512 -1.5722 -1.7768  0.7117
 9346TIP3    H249530   4.302   2.436  14.534 -1.3522 -2.6734 -2.2041
 9347TIP3   OH249531   0.642   3.571   1.795  0.1620  0.2890 -0.4682
 9347TIP3    H149532   0.575   3.629   1.832  0.6300  1.4842 -1.3910
 9347TIP3    H249533   0.723   3.621   1.803  0.7146 -0.5893 -0.5559
 9348TIP3   OH249534   2.743   5.338   1.492 -0.1970 -0.5277  0.0355
 9348TIP3    H149535   2.788   5.278   1.551  0.3765  1.3720  1.6367
 9348TIP3    H249536   2.810   5.365   1.429  0.0424 -0.2061  0.4224
 9349TIP3   OH249537   0.508   3.814   4.539  0.1362 -0.1580 -0.1131
 9349TIP3    H149538   0.465   3.895   4.569  1.2609 -0.6117  3.1104
 9349TIP3    H249539   0.439   3.748   4.544  0.3656 -0.3166  2.2430
 9350TIP3   OH249540   6.637   4.545  15.645 -0.1595 -0.5333 -0.0046
 9350TIP3    H149541   6.613   4.603  15.718  1.4233 -1.2380  1.1385
 9350TIP3    H249542   6.623   4.457  15.678 -0.5510 -0.8573 -0.9954
 9351TIP3   OH249543   0.538   3.015   2.634 -0.2743 -0.1486  0.2900
 9351TIP3    H149544   0.529   2.942   2.573 -0.5132 -1.3344  1.7082
 9351TIP3    H249545   0.580   3.084   2.582 -0.6992 -1.0191 -1.2796
 9352TIP3   OH249546   0.989   6.657   5.172 -0.0759  0.0489 -0.1950
 9352TIP3    H149547   0.997   6.751   5.190  0.3660  0.0495 -0.3611
 9352TIP3    H249548   1.074   6.621   5.197  0.2611 -0.0774 -1.4608
 9353TIP3   OH249549   6.374   6.822  10.966 -0.0116 -0.2533 -0.1342
 9353TIP3    H149550   6.433   6.858  10.900  0.2153 -0.5461 -0.0930
 9353TIP3    H249551   6.361   6.893  11.028 -1.3399  0.5148 -1.2068
 9354TIP3   OH249552   6.621   5.160   5.433 -0.5337 -0.4069  0.5493
 9354TIP3    H149553   6.706   5.126   5.461  0.2727  1.0707  0.0196
 9354TIP3    H249554   6.558   5.116   5.490  0.4972 -2.0768  0.4893
 9355TIP3   OH249555   1.845   5.631   4.040 -0.6412  0.1086  0.3398
 9355TIP3    H149556   1.892   5.713   4.025 -1.1118  0.3363  0.0779
 9355TIP3    H249557   1.889   5.567   3.984 -1.1361  0.5039 -0.5405
 9356TIP3   OH249558   1.997   1.576   3.351  0.2397  0.4054  0.3656
 9356TIP3    H149559   2.052   1.647   3.320  0.0343  1.3159  1.9473
 9356TIP3    H249560   1.978   1.523   3.273  2.2789  0.7767 -0.4234
 9357TIP3   OH249561   0.477   2.756   4.925  0.0584 -0.4187  0.1997
 9357TIP3    H149562   0.408   2.810   4.962 -1.9874 -1.7277 -1.4709
 9357TIP3    H249563   0.500   2.799   4.842 -1.3107 -1.7894 -0.9494
 9358TIP3   OH249564   2.004   2.343   5.147 -0.1284 -0.0024  0.8163
 9358TIP3    H149565   2.067   2.414   5.159 -2.3821  2.0409  1.3067
 9358TIP3    H249566   2.057   2.263   5.148  2.4232  1.5948  1.0799
 9359TIP3   OH249567   0.235   2.771   4.710  0.3927 -0.0466 -0.1876
 9359TIP3    H149568   0.221   2.798   4.801  0.7918 -1.2515  0.2594
 9359TIP3    H249569   0.172   2.823   4.659 -0.4084  0.0621  0.8719
 9360TIP3   OH249570   2.048   2.568  15.481 -0.1678 -0.2628  0.1714
 9360TIP3    H149571   2.041   2.663  15.492  1.5018 -0.0135 -0.5977
 9360TIP3    H249572   2.105   2.540  15.553  0.0421 -0.5593 -0.1106
 9361TIP3   OH249573   3.750   6.427   1.612  0.2793 -0.0078 -0.1485
 9361TIP3    H149574   3.732   6.490   1.543 -1.6274 -1.7124 -1.3071
 9361TIP3    H249575   3.776   6.347   1.566 -0.2953 -0.9552  1.1173
 9362TIP3   OH249576   3.054   3.348  11.273  0.0397  0.2568 -0.4340
 9362TIP3    H149577   3.135   3.372  11.229 -0.6385  0.6108 -1.5193
 9362TIP3    H249578   3.033   3.261  11.239 -0.3028  0.3784 -0.5340
 9363TIP3   OH249579   3.089   6.855   1.898 -0.4377  0.5820  0.3744
 9363TIP3    H149580   3.092   6.951   1.901 -1.6392  0.6662 -0.5575
 9363TIP3    H249581   3.078   6.834   1.806  1.6048 -0.5570  0.3329
 9364TIP3   OH249582   3.721   6.244  12.191 -0.4465  0.3652  0.2708
 9364TIP3    H149583   3.817   6.242  12.187 -0.4701 -1.4051 -1.1944
 9364TIP3    H249584   3.698   6.175  12.253 -0.7542 -0.2285 -0.4745
 9365TIP3   OH249585   3.247   3.898  14.169  0.0948  0.6173 -0.0150
 9365TIP3    H149586   3.327   3.883  14.119 -0.7713 -1.1838 -0.9444
 9365TIP3    H249587   3.179   3.849  14.122 -1.3072  1.0850  1.4277
 9366TIP3   OH249588   1.362   3.200  13.633 -0.6183  0.5104 -0.3178
 9366TIP3    H149589   1.448   3.158  13.640 -0.8115  0.1149 -0.2893
 9366TIP3    H249590   1.360   3.235  13.543 -1.0958 -0.9825 -0.9135
 9367TIP3   OH249591   3.490   3.569   4.143  0.0850 -0.0510 -0.8110
 9367TIP3    H149592   3.510   3.491   4.090 -0.9010 -0.7477 -0.2008
 9367TIP3    H249593   3.525   3.642   4.092 -0.0675 -0.7758 -2.0133
 9368TIP3   OH249594   4.693   5.774   3.969  0.1965  0.4903  0.6691
 9368TIP3    H149595   4.650   5.851   4.006 -0.0754  1.2664 -1.1486
 9368TIP3    H249596   4.622   5.720   3.935  0.4630  0.0880  0.7426
 9369TIP3   OH249597   4.494   5.668   6.434  0.0708  0.5156  0.0475
 9369TIP3    H149598   4.481   5.763   6.432 -0.2916  0.4661 -0.0005
 9369TIP3    H249599   4.409   5.632   6.410 -0.2797  0.1599  1.6793
 9370TIP3   OH249600   0.746   6.812   0.051 -0.0176  0.2654  0.0184
 9370TIP3    H149601   0.836   6.833   0.077 -0.3041 -0.4099  1.6375
 9370TIP3    H249602   0.711   6.760   0.123 -2.4334  2.2987  0.4716
 9371TIP3   OH249603   6.825   6.204  13.367 -0.1272  0.0652  0.3968
 9371TIP3    H149604   6.866   6.185  13.452 -0.4384 -0.2189  0.4862
 9371TIP3    H249605   6.894   6.186  13.303  0.0380  0.0532  0.5754
 9372TIP3   OH249606   3.271   5.272  12.496 -0.3236 -0.1993 -0.0566
 9372TIP3    H149607   3.215   5.252  12.571 -0.8796  0.0781 -0.3900
 9372TIP3    H249608   3.347   5.215  12.507 -1.2329 -1.4898 -0.2445
 9373TIP3   OH249609   0.837   3.928  14.939  0.2624 -0.0725 -0.4090
 9373TIP3    H149610   0.766   3.864  14.940  0.1697 -0.0231 -1.5756
 9373TIP3    H249611   0.856   3.946  15.031 -0.1398 -1.3045 -0.0648
 9374TIP3   OH249612   1.853   0.891  10.982  0.2445  0.2761 -0.0215
 9374TIP3    H149613   1.852   0.965  11.042  0.3863  0.1323  0.1579
 9374TIP3    H249614   1.834   0.929  10.896 -0.5266  0.4095  0.1986
 9375TIP3   OH249615   3.777   0.807   1.191  0.1426  0.8745  0.3584
 9375TIP3    H149616   3.764   0.746   1.263 -0.6754  0.4452 -0.1450
 9375TIP3    H249617   3.696   0.858   1.188 -0.2519  0.2193 -0.8800
 9376TIP3   OH249618   0.182   2.405   0.135 -0.4000 -0.3350 -0.6732
 9376TIP3    H149619   0.097   2.360   0.140 -0.1443 -0.7354  0.2272
 9376TIP3    H249620   0.169   2.473   0.069 -2.0095  0.8519  0.7930
 9377TIP3   OH249621   3.154   6.853  16.440  0.2989  0.2062 -0.3936
 9377TIP3    H149622   3.087   6.919  16.454  0.0869  0.0458 -0.6402
 9377TIP3    H249623   3.237   6.899  16.455  0.1442  0.4619 -0.3202
 9378TIP3   OH249624   3.166   0.395   2.857 -0.0450  0.1549 -0.6571
 9378TIP3    H149625   3.220   0.473   2.865 -2.0846  1.7563 -1.5659
 9378TIP3    H249626   3.133   0.379   2.945 -0.9116  1.3377 -0.7484
 9379TIP3   OH249627   4.714   0.981  15.500  0.3047 -0.0933 -0.0481
 9379TIP3    H149628   4.641   0.920  15.497 -0.4389  0.7620  0.2634
 9379TIP3    H249629   4.681   1.060  15.457  1.3048  0.0480 -0.5944
 9380TIP3   OH249630   1.102   4.111   2.009  0.2069  0.2813  0.7700
 9380TIP3    H149631   1.058   4.061   2.077  0.3554 -0.0976  0.5915
 9380TIP3    H249632   1.192   4.077   2.009 -0.7529 -2.8459 -2.5052
 9381TIP3   OH249633   0.085   4.814  10.171 -0.7321  0.2316  0.3430
 9381TIP3    H149634   0.052   4.894  10.210  1.5678  0.1594  2.7583
 9381TIP3    H249635   0.167   4.839  10.129 -0.0800 -0.7677  0.9570
 9382TIP3   OH249636   5.925   0.964  16.447  0.0470 -0.0917  0.3070
 9382TIP3    H149637   5.866   0.895  16.476 -0.8727  0.1536 -0.8765
 9382TIP3    H249638   6.006   0.948  16.494 -0.7319 -0.8640  1.4510
 9383TIP3   OH249639   3.091   1.777   0.268  0.2220  0.4378  0.0761
 9383TIP3    H149640   3.089   1.698   0.322  0.9096 -0.1329 -0.7135
 9383TIP3    H249641   3.006   1.819   0.285 -0.1083 -0.4064  0.5966
 9384TIP3   OH249642   2.282   3.233  14.835  0.4121 -0.2624 -0.1245
 9384TIP3    H149643   2.303   3.184  14.915  0.4295  1.4584  0.9814
 9384TIP3    H249644   2.259   3.321  14.866 -1.2675 -0.0092 -1.8848
 9385TIP3   OH249645   1.353   0.624   5.281  0.4171 -0.0118  0.3728
 9385TIP3    H149646   1.436   0.577   5.276  1.2889  1.0976  2.7487
 9385TIP3    H249647   1.372   0.712   5.250 -0.1480 -0.0545 -0.1054
 9386TIP3   OH249648   1.752   2.262   4.967 -0.2316 -0.1947  0.1629
 9386TIP3    H149649   1.719   2.258   5.057  0.1146 -1.4840  0.2402
 9386TIP3    H249650   1.836   2.217   4.969  0.3401  0.7740 -0.5831
 9387TIP3   OH249651   5.982   2.122   5.250  0.3932  0.3970  0.2216
 9387TIP3    H149652   5.934   2.129   5.168 -1.0468  0.0561  0.9989
 9387TIP3    H249653   5.946   2.191   5.306 -1.0018 -1.3836  1.6579
 9388TIP3   OH249654   4.844   5.223  12.355  0.2880 -0.4073 -0.2640
 9388TIP3    H149655   4.789   5.296  12.384  2.4814  0.9305  0.7847
 9388TIP3    H249656   4.782   5.152  12.338 -1.8354  1.3170 -0.2216
 9389TIP3   OH249657   0.939   4.600   0.560  0.5658 -0.5477  0.1427
 9389TIP3    H149658   0.987   4.628   0.481 -0.5201  2.2304  0.3381
 9389TIP3    H249659   1.008   4.583   0.625  1.4397 -2.1391 -1.1218
 9390TIP3   OH249660   0.157   3.990  17.092  0.0458  0.8500 -0.2865
 9390TIP3    H149661   0.064   4.010  17.101 -0.6645 -2.5670  1.3289
 9390TIP3    H249662   0.161   3.927  17.020  0.7265 -0.7020  1.0441
 9391TIP3   OH249663   1.068   1.027  10.938  0.3258  0.3448 -0.1232
 9391TIP3    H149664   1.080   0.939  10.974  1.6846  0.4894 -0.1820
 9391TIP3    H249665   0.991   1.019  10.882  0.2160 -0.7254  0.1527
 9392TIP3   OH249666   0.266   6.591  15.063 -0.3027 -0.0142  0.1043
 9392TIP3    H149667   0.246   6.497  15.069 -2.5612  0.4949  2.6098
 9392TIP3    H249668   0.323   6.607  15.138 -0.5892  0.7346  0.1694
 9393TIP3   OH249669   0.863   6.479   0.533  0.5092 -0.1980 -0.2275
 9393TIP3    H149670   0.776   6.470   0.495  0.2782  1.5722 -0.2126
 9393TIP3    H249671   0.908   6.398   0.510 -0.6441 -0.5003 -1.5613
 9394TIP3   OH249672   4.600   0.400  16.372  0.8216  0.2453 -0.5733
 9394TIP3    H149673   4.583   0.309  16.398 -0.8633  0.6921  0.0609
 9394TIP3    H249674   4.680   0.424  16.419  1.1261 -0.8144 -0.5218
 9395TIP3   OH249675   3.676   2.847   2.015 -0.0255 -0.7722  0.1654
 9395TIP3    H149676   3.752   2.809   2.059  0.1030 -0.1775  0.4711
 9395TIP3    H249677   3.680   2.940   2.037 -0.0669 -0.4914 -0.9524
 9396TIP3   OH249678   2.950   1.016   3.439 -0.3116 -0.6865 -0.0911
 9396TIP3    H149679   3.004   0.981   3.510 -2.6602 -2.8359  0.7891
 9396TIP3    H249680   2.880   0.952   3.428 -0.9894  0.4175 -3.2671
 9397TIP3   OH249681   1.024   0.419   0.535 -0.3018  0.1585  0.8162
 9397TIP3    H149682   0.933   0.397   0.515 -0.1777 -0.5556  1.0080
 9397TIP3    H249683   1.018   0.498   0.588 -0.8953 -0.5580  1.8684
 9398TIP3   OH249684   1.301   2.755  15.158 -0.1012  0.8334 -0.2136
 9398TIP3    H149685   1.341   2.669  15.148  1.7912  1.5632  0.6483
 9398TIP3    H249686   1.262   2.773  15.073  2.4113  0.5124 -1.5279
 9399TIP3   OH249687   3.899   2.484   3.448 -0.5396 -0.0794  0.4816
 9399TIP3    H149688   3.950   2.403   3.442 -1.6698 -0.7326 -1.0011
 9399TIP3    H249689   3.921   2.531   3.367  2.3086  2.5398  2.5619
 9400TIP3   OH249690   0.525   2.550  15.644  0.2204  0.2946  0.2811
 9400TIP3    H149691   0.621   2.551  15.648  0.2298  0.4694  0.0523
 9400TIP3    H249692   0.500   2.642  15.648 -0.0143  0.1895  1.8919
 9401TIP3   OH249693   3.303   5.407   5.142 -0.1924  0.1287  0.4699
 9401TIP3    H149694   3.342   5.357   5.070 -1.2565 -0.1520  0.0541
 9401TIP3    H249695   3.284   5.493   5.104 -1.0479 -0.1230  0.3073
 9402TIP3   OH249696   1.887   3.086   1.969 -0.0801  0.7036 -0.0635
 9402TIP3    H149697   1.894   3.160   1.909  0.7074 -0.1650 -1.0899
 9402TIP3    H249698   1.969   3.038   1.957  0.4690  0.9249  2.3141
 9403TIP3   OH249699   1.240   4.662  12.295 -0.1901 -0.2118 -0.1746
 9403TIP3    H149700   1.251   4.567  12.295 -1.5436 -0.3886 -0.2819
 9403TIP3    H249701   1.198   4.682  12.379  1.5826  0.5172  0.5975
 9404TIP3   OH249702   6.533   4.785   2.623 -0.0838 -0.5136  0.0418
 9404TIP3    H149703   6.508   4.790   2.715  0.8712 -0.7807  0.3274
 9404TIP3    H249704   6.540   4.877   2.595  1.0485 -0.3905  0.6535
 9405TIP3   OH249705   4.541   1.202  16.709  0.2059  0.2388  0.0543
 9405TIP3    H149706   4.553   1.283  16.660 -1.2185 -1.1572 -2.8165
 9405TIP3    H249707   4.631   1.171  16.725  0.7772  0.5301 -2.1971
 9406TIP3   OH249708   2.818   2.551  14.221  0.4118 -1.0687  0.5112
 9406TIP3    H149709   2.910   2.534  14.198  0.7676  2.0584 -0.8467
 9406TIP3    H249710   2.769   2.530  14.141  0.3782  0.1901  0.1794
 9407TIP3   OH249711   0.273   6.080   2.157 -0.1777 -0.9267 -0.4133
 9407TIP3    H149712   0.343   6.040   2.106  0.4120 -0.1570 -0.2232
 9407TIP3    H249713   0.267   6.170   2.124  2.9160  0.9954  3.3601
 9408TIP3   OH249714   5.088   3.181   2.292  0.6834 -0.1470 -0.2467
 9408TIP3    H149715   5.128   3.151   2.211 -0.6956  2.4699 -2.0423
 9408TIP3    H249716   5.155   3.234   2.335  0.7735  0.1633 -0.7606
 9409TIP3   OH249717   6.765   4.525   2.273  0.2967  0.1147  0.2071
 9409TIP3    H149718   6.746   4.529   2.367  1.7299 -2.5443  0.6970
 9409TIP3    H249719   6.686   4.485   2.235  0.9386 -1.8720  0.8283
 9410TIP3   OH249720   1.259   3.501   2.842  0.0506 -0.8393  1.0128
 9410TIP3    H149721   1.205   3.554   2.900 -1.0612 -2.2928  1.3367
 9410TIP3    H249722   1.349   3.533   2.858 -0.1185 -1.5434  3.9419
 9411TIP3   OH249723   6.259   0.421   0.152  0.3131 -0.3982  0.0173
 9411TIP3    H149724   6.327   0.445   0.089 -0.3039  2.7233  0.3619
 9411TIP3    H249725   6.177   0.429   0.103 -0.0231 -0.4237  0.5707
 9412TIP3   OH249726   1.389   0.045   3.637  0.3377 -0.1654  0.1148
 9412TIP3    H149727   1.338   0.060   3.717  0.1681 -2.7921  0.5892
 9412TIP3    H249728   1.480   0.050   3.665  0.3330  1.1146 -0.0295
 9413TIP3   OH249729   4.451   2.267   2.479  0.1490 -0.0509  0.6909
 9413TIP3    H149730   4.462   2.220   2.396  0.5633  0.2374  0.5776
 9413TIP3    H249731   4.359   2.257   2.501  0.4578 -2.0110  1.3218
 9414TIP3   OH249732   0.137   6.420   3.268 -0.1056  0.7042  0.5234
 9414TIP3    H149733   0.165   6.461   3.186 -0.1102 -0.6105 -0.1581
 9414TIP3    H249734   0.044   6.441   3.274  0.4461  3.2228  1.6849
 9415TIP3   OH249735   4.638   2.371   5.782  0.2755 -0.4157 -0.8160
 9415TIP3    H149736   4.573   2.428   5.742  0.0873 -0.5724 -0.7365
 9415TIP3    H249737   4.625   2.286   5.739  0.0890 -0.5766 -0.4440
 9416TIP3   OH249738   1.152   2.888   4.845 -0.3208 -0.4767  0.4997
 9416TIP3    H149739   1.199   2.961   4.884 -0.1232 -1.8051  2.9471
 9416TIP3    H249740   1.143   2.824   4.916 -2.3083 -1.9631 -0.9616
 9417TIP3   OH249741   6.810   6.507   4.852 -0.2500 -0.1211 -0.1147
 9417TIP3    H149742   6.725   6.545   4.833 -1.6869 -2.7373  0.5949
 9417TIP3    H249743   6.811   6.424   4.804  0.6801 -1.4851  2.0783
 9418TIP3   OH249744   3.349   5.159  16.072 -0.2597 -0.4028 -0.3626
 9418TIP3    H149745   3.345   5.117  16.158 -0.2021 -0.3877 -0.3518
 9418TIP3    H249746   3.341   5.253  16.092 -1.8638 -0.4935 -0.4959
 9419TIP3   OH249747   5.359   3.610  12.424 -0.4266 -0.2215 -0.8124
 9419TIP3    H149748   5.270   3.596  12.458 -0.6612  0.8007 -0.9849
 9419TIP3    H249749   5.414   3.554  12.478 -1.0126  0.1204  0.1545
 9420TIP3   OH249750   5.875   5.229   4.358 -0.3714  0.0471  0.4179
 9420TIP3    H149751   5.936   5.214   4.286 -1.4132 -1.6591 -0.1603
 9420TIP3    H249752   5.850   5.321   4.349  0.7270  0.2835 -0.4185
 9421TIP3   OH249753   1.009   3.333   4.312 -0.1605 -0.1979 -0.1558
 9421TIP3    H149754   1.084   3.301   4.261  0.0377 -0.9888  0.6096
 9421TIP3    H249755   0.933   3.314   4.257  0.0912 -0.6406 -0.3623
 9422TIP3   OH249756   2.418   6.505  13.208  0.1516 -0.0149 -0.1288
 9422TIP3    H149757   2.329   6.528  13.184 -0.2481 -1.2971  0.0706
 9422TIP3    H249758   2.454   6.586  13.245  0.0066  1.3143 -2.6856
 9423TIP3   OH249759   0.388   1.570  12.670  0.2666 -0.3735 -0.0556
 9423TIP3    H149760   0.464   1.531  12.628  0.8222  1.4681 -0.8866
 9423TIP3    H249761   0.353   1.631  12.604 -1.4343 -0.5807  0.6095
 9424TIP3   OH249762   6.514   3.050  15.785  0.5993 -0.3204 -0.0201
 9424TIP3    H149763   6.610   3.055  15.792  0.7417 -2.2324  0.0322
 9424TIP3    H249764   6.499   3.021  15.695  0.2125 -2.0265  0.5548
 9425TIP3   OH249765   2.330   3.049  14.169  0.1181  0.4547  0.5394
 9425TIP3    H149766   2.249   3.014  14.132 -1.1390  2.5666  1.1346
 9425TIP3    H249767   2.350   2.991  14.242 -1.4316  0.4674  0.9953
 9426TIP3   OH249768   5.322   4.184  15.109  0.6177 -0.2765 -0.1491
 9426TIP3    H149769   5.370   4.246  15.054  1.8722 -1.3476 -0.3233
 9426TIP3    H249770   5.374   4.178  15.189  0.6100 -1.2048 -0.2044
 9427TIP3   OH249771   6.213   5.073  12.892 -0.1088 -0.5577 -1.1489
 9427TIP3    H149772   6.203   5.160  12.929 -0.0465 -0.5267 -1.2055
 9427TIP3    H249773   6.279   5.031  12.946 -0.4059 -0.6973 -0.8906
 9428TIP3   OH249774   5.810   0.227   1.663  0.2378  0.2217  0.4781
 9428TIP3    H149775   5.830   0.291   1.731  0.9136  0.7093 -0.1719
 9428TIP3    H249776   5.890   0.221   1.611  0.4640 -1.7183  0.9691
 9429TIP3   OH249777   5.800   0.287  16.324  0.2245  0.0678  0.4384
 9429TIP3    H149778   5.882   0.257  16.285  0.3289 -0.9700  1.4053
 9429TIP3    H249779   5.771   0.358  16.267  1.7524  0.4025  0.0275
 9430TIP3   OH249780   5.229   1.039   2.005  0.2818 -0.3160 -0.3024
 9430TIP3    H149781   5.233   0.951   1.968 -0.1498  0.4359 -2.2615
 9430TIP3    H249782   5.305   1.044   2.063  0.2889 -1.9786 -0.1273
 9431TIP3   OH249783   1.236   4.081   1.449 -0.0580  0.0279 -0.3117
 9431TIP3    H149784   1.223   4.125   1.534 -0.3790  1.6177 -1.1350
 9431TIP3    H249785   1.149   4.074   1.412  0.2183  0.7135 -1.1352
 9432TIP3   OH249786   0.149   0.938   4.103  0.2507  0.1098 -0.3018
 9432TIP3    H149787   0.095   0.923   4.181 -1.1420 -0.4208 -1.3290
 9432TIP3    H249788   0.132   1.028   4.078  0.6251  0.2509 -0.0584
 9433TIP3   OH249789   0.318   0.986   0.037  0.7058 -0.2832 -0.0094
 9433TIP3    H149790   0.264   0.997   0.115  0.0401 -0.2016 -0.4786
 9433TIP3    H249791   0.362   0.902   0.049  0.4841 -0.3414  0.3761
 9434TIP3   OH249792   6.306   3.797  13.037  0.2731  0.0535 -0.1899
 9434TIP3    H149793   6.252   3.828  13.110  0.5641 -1.3604  0.6573
 9434TIP3    H249794   6.390   3.842  13.048 -0.2113  1.1006 -0.6332
 9435TIP3   OH249795   1.596   3.893   2.146 -0.5222 -0.2630 -0.0694
 9435TIP3    H149796   1.686   3.877   2.173 -0.4339  0.2765 -0.0234
 9435TIP3    H249797   1.544   3.835   2.202 -0.3018  0.4740  0.9341
 9436TIP3   OH249798   1.839   4.593   4.868  0.0614  0.0746  0.2831
 9436TIP3    H149799   1.910   4.568   4.810  1.2291  1.5790  0.9831
 9436TIP3    H249800   1.780   4.645   4.813 -0.2060 -0.6848 -0.1587
 9437TIP3   OH249801   1.660   3.164   0.975  0.0908 -0.6989 -0.0635
 9437TIP3    H149802   1.607   3.084   0.982 -1.4903  0.4188  2.6728
 9437TIP3    H249803   1.726   3.156   1.044 -0.0612  0.2887  0.2223
 9438TIP3   OH249804   2.909   5.452  13.675 -0.5720  0.4244  0.1530
 9438TIP3    H149805   2.864   5.369  13.656 -2.0032  0.9908  0.9536
 9438TIP3    H249806   2.985   5.451  13.617 -1.8693 -0.3343 -1.6458
 9439TIP3   OH249807   1.725   1.147  12.882  0.2995 -0.2129  0.0267
 9439TIP3    H149808   1.717   1.223  12.939  1.0059 -0.2072  0.1300
 9439TIP3    H249809   1.670   1.080  12.923  0.5917 -0.1242  0.5707
 9440TIP3   OH249810   5.480   6.112  12.801 -0.3554 -0.1418 -0.3833
 9440TIP3    H149811   5.449   6.190  12.848  2.2355  0.3199  0.7223
 9440TIP3    H249812   5.491   6.045  12.868 -2.4482 -1.5116 -1.3100
 9441TIP3   OH249813   4.162   5.176  13.136  0.4896 -0.6237  0.5876
 9441TIP3    H149814   4.231   5.241  13.145  1.6088 -1.3737 -1.7892
 9441TIP3    H249815   4.095   5.218  13.082  0.9714 -1.2156 -0.5038
 9442TIP3   OH249816   4.878   5.487  16.415 -0.4527  0.1235 -0.9597
 9442TIP3    H149817   4.863   5.414  16.355 -1.5429 -0.9746  0.5844
 9442TIP3    H249818   4.932   5.449  16.485 -1.1003  0.7716 -0.1022
 9443TIP3   OH249819   1.090   4.230  13.439 -0.4269 -0.3099  0.1289
 9443TIP3    H149820   1.048   4.144  13.443 -0.2073 -0.3893  0.8854
 9443TIP3    H249821   1.043   4.283  13.505  0.5262 -0.3492  0.8646
 9444TIP3   OH249822   5.381   0.640  12.673 -0.3733 -0.1154 -0.1109
 9444TIP3    H149823   5.346   0.579  12.739 -4.0664  0.7866 -0.9694
 9444TIP3    H249824   5.449   0.688  12.718 -0.8954 -1.3826  2.1930
 9445TIP3   OH249825   5.977   5.096   3.669  0.0711  0.3707 -0.4775
 9445TIP3    H149826   6.013   5.008   3.666 -0.8689 -0.0007 -1.6765
 9445TIP3    H249827   5.967   5.121   3.577 -0.6018  1.3283 -0.1587
 9446TIP3   OH249828   3.231   1.221   3.373 -0.5266 -0.3822 -0.1363
 9446TIP3    H149829   3.240   1.126   3.376 -3.4028 -0.7188  1.1805
 9446TIP3    H249830   3.250   1.244   3.282 -0.4678 -2.3148 -0.6594
 9447TIP3   OH249831   3.158   5.065   2.584  0.3092  0.4749  0.8221
 9447TIP3    H149832   3.128   5.111   2.663 -1.2189  1.0840 -0.0738
 9447TIP3    H249833   3.224   5.122   2.547 -0.0186  0.8969  0.8823
 9448TIP3   OH249834   6.722   4.265  15.986 -0.0780 -0.0466  0.4591
 9448TIP3    H149835   6.774   4.345  15.993 -0.0203 -0.1230  0.8961
 9448TIP3    H249836   6.637   4.288  16.023  0.0741 -0.3104  0.9708
 9449TIP3   OH249837   3.986   3.169   3.430  0.4527 -0.5464  0.1165
 9449TIP3    H149838   3.956   3.155   3.340  1.2099 -0.9967 -0.0842
 9449TIP3    H249839   4.061   3.228   3.421  0.8093 -0.9454  0.3999
 9450TIP3   OH249840   6.150   0.519  12.663  0.2881  0.3092  0.4220
 9450TIP3    H149841   6.077   0.518  12.602 -0.0953 -1.9739  0.8244
 9450TIP3    H249842   6.183   0.429  12.663  2.0132  0.8747  1.5475
 9451TIP3   OH249843   0.892   1.935   2.391 -0.1807 -0.4480 -0.6387
 9451TIP3    H149844   0.911   1.863   2.330  0.1023  0.0104 -1.1024
 9451TIP3    H249845   0.853   2.003   2.336  0.8040  0.2828 -0.4711
 9452TIP3   OH249846   1.008   3.754   5.429 -0.4041 -0.4883  0.1075
 9452TIP3    H149847   1.093   3.791   5.408 -0.4595 -0.6510 -0.4170
 9452TIP3    H249848   1.027   3.686   5.494 -0.2027 -0.1516  0.4052
 9453TIP3   OH249849   5.281   2.954   3.208 -0.2129  0.1616  0.3089
 9453TIP3    H149850   5.222   2.924   3.278 -0.6977  1.5835  0.5267
 9453TIP3    H249851   5.367   2.962   3.251 -0.1796 -0.4293  0.3619
 9454TIP3   OH249852   2.349   3.759   3.512  0.1421 -0.1284 -0.2372
 9454TIP3    H149853   2.326   3.790   3.599  1.4940 -0.2952  0.2012
 9454TIP3    H249854   2.404   3.828   3.475  0.9463 -0.7920 -0.2985
 9455TIP3   OH249855   2.325   0.324   4.904  0.4571 -0.2561  0.1740
 9455TIP3    H149856   2.412   0.327   4.945  0.7875 -0.9719 -0.4353
 9455TIP3    H249857   2.336   0.372   4.822 -0.1489  1.0039  0.8124
 9456TIP3   OH249858   2.849   2.975  16.563  0.3868 -0.5310  0.0394
 9456TIP3    H149859   2.754   2.962  16.554  0.4091 -1.3794  0.9139
 9456TIP3    H249860   2.886   2.887  16.561  1.0870 -0.2588  0.4914
 9457TIP3   OH249861   4.192   4.376   1.589  0.3960 -0.7800 -0.4269
 9457TIP3    H149862   4.162   4.461   1.621  1.5091  0.0074 -1.3943
 9457TIP3    H249863   4.180   4.317   1.663 -0.7495  0.1200  0.1434
 9458TIP3   OH249864   4.621   6.189   4.693  0.0973  0.3756  0.2774
 9458TIP3    H149865   4.635   6.125   4.763  0.1221  0.1485  0.0637
 9458TIP3    H249866   4.702   6.241   4.691  1.4721 -1.6726 -1.7432
 9459TIP3   OH249867   1.883   0.160  12.956 -0.6160  0.8520  0.0078
 9459TIP3    H149868   1.942   0.235  12.965 -0.4780  0.7573 -0.0886
 9459TIP3    H249869   1.918   0.095  13.017  0.9895 -0.2098 -1.9340
 9460TIP3   OH249870   0.942   1.507   5.504  0.3550  0.4656  0.5179
 9460TIP3    H149871   0.867   1.561   5.481  0.6261  0.1356 -1.2704
 9460TIP3    H249872   0.997   1.564   5.559 -0.3453  1.2979  0.3683
 9461TIP3   OH249873   5.639   1.100   3.335 -0.0401 -0.0895 -0.1780
 9461TIP3    H149874   5.600   1.168   3.280 -0.6593 -0.8292 -0.6669
 9461TIP3    H249875   5.646   1.141   3.422  0.7078  0.9945 -0.7257
 9462TIP3   OH249876   6.472   1.358  12.261  0.1015  0.0182 -0.0195
 9462TIP3    H149877   6.484   1.270  12.295  3.2319  0.9958  1.8524
 9462TIP3    H249878   6.492   1.351  12.168  1.8995 -1.0217  0.4038
 9463TIP3   OH249879   1.844   1.001  10.674  0.2036 -0.3863  0.3559
 9463TIP3    H149880   1.798   1.081  10.650 -0.4361 -0.5612  0.9850
 9463TIP3    H249881   1.927   1.031  10.711 -0.3655  0.0272  1.3304
 9464TIP3   OH249882   4.763   0.566   2.136  0.8607 -0.9741 -0.0958
 9464TIP3    H149883   4.706   0.566   2.059  1.3358 -0.0210 -0.4583
 9464TIP3    H249884   4.711   0.604   2.206  0.8495 -0.6638 -0.2733
 9465TIP3   OH249885   1.900   3.519  11.451  0.3071 -0.0330  0.4728
 9465TIP3    H149886   1.971   3.513  11.515 -0.1758 -0.6338  0.9640
 9465TIP3    H249887   1.930   3.466  11.377  0.0329 -0.9731  1.0154
 9466TIP3   OH249888   6.241   3.296   2.550  0.0285  0.5773  0.4875
 9466TIP3    H149889   6.155   3.337   2.546 -0.0041  0.6230  1.3137
 9466TIP3    H249890   6.302   3.364   2.522 -0.3072  0.0958 -1.5378
 9467TIP3   OH249891   0.852   2.442   4.148 -0.0966 -0.3406 -0.1367
 9467TIP3    H149892   0.783   2.387   4.110 -0.2137 -0.2669 -0.0325
 9467TIP3    H249893   0.808   2.489   4.219  0.0904 -0.3854  0.0101
 9468TIP3   OH249894   6.512   1.051   5.217  0.3639 -0.2789  0.1094
 9468TIP3    H149895   6.434   1.104   5.199  0.5108 -0.2286 -0.4104
 9468TIP3    H249896   6.546   1.085   5.299 -0.1832 -0.3224  0.3580
 9469TIP3   OH249897   4.508   1.013  17.016 -0.2206  0.7064 -0.5983
 9469TIP3    H149898   4.569   1.053  17.077 -0.5702 -2.0481  1.7407
 9469TIP3    H249899   4.424   1.056  17.035 -0.6399 -1.0734  2.0298
 9470TIP3   OH249900   3.786   4.624   1.626  0.4255  0.0036 -0.1012
 9470TIP3    H149901   3.780   4.543   1.576 -0.1632 -0.3751  0.5633
 9470TIP3    H249902   3.709   4.674   1.601  0.8302  0.4056 -0.5715
 9471TIP3   OH249903   3.899   6.209  12.520 -0.1870 -0.0271  0.5869
 9471TIP3    H149904   3.933   6.163  12.443  1.5773  1.0748  0.6338
 9471TIP3    H249905   3.816   6.167  12.539  0.5873 -2.1068 -0.3182
 9472TIP3   OH249906   5.390   5.562   2.870 -0.5298 -0.0682  0.4193
 9472TIP3    H149907   5.422   5.651   2.862  1.2686 -0.7573 -0.9179
 9472TIP3    H249908   5.407   5.537   2.961 -0.4641  0.7410  0.6292
 9473TIP3   OH249909   3.066   0.919   4.542 -0.2567 -0.0607 -0.3975
 9473TIP3    H149910   3.016   0.839   4.530  0.6657 -0.4282 -2.1518
 9473TIP3    H249911   3.134   0.896   4.604  0.8477 -1.1070 -1.9202
 9474TIP3   OH249912   2.810   3.054   5.491 -0.5302  0.1599 -0.3497
 9474TIP3    H149913   2.818   3.087   5.401 -0.7103  0.1597 -0.3664
 9474TIP3    H249914   2.755   2.975   5.482  0.4001 -0.4978 -0.3962
 9475TIP3   OH249915   4.164   5.235  15.287 -0.7981  0.1437  0.0141
 9475TIP3    H149916   4.109   5.201  15.216  0.3195  1.0038 -1.3166
 9475TIP3    H249917   4.180   5.159  15.343 -1.3005 -0.6833 -0.9264
 9476TIP3   OH249918   3.180   6.783  12.999  0.1937 -0.2736 -0.3629
 9476TIP3    H149919   3.096   6.823  12.975 -1.4135 -2.6263  0.9518
 9476TIP3    H249920   3.182   6.701  12.950  0.8652 -1.0816  0.9567
 9477TIP3   OH249921   3.392   6.470   0.020 -0.1543  0.0963 -0.4073
 9477TIP3    H149922   3.477   6.429   0.005  0.6957  0.3851  2.7386
 9477TIP3    H249923   3.362   6.496  -0.067  2.3439 -1.2000 -1.7865
 9478TIP3   OH249924   3.758   3.093   5.869  0.1939 -0.7225 -0.3939
 9478TIP3    H149925   3.747   3.153   5.796 -1.7634 -1.5232 -0.7964
 9478TIP3    H249926   3.742   3.006   5.832 -1.0915 -1.1220  1.0204
 9479TIP3   OH249927   3.601   2.944  14.872  0.4456 -0.3787  0.0976
 9479TIP3    H149928   3.571   2.969  14.785 -1.6114 -0.9150  0.5965
 9479TIP3    H249929   3.641   3.023  14.908 -2.3266  1.1087  0.1496
 9480TIP3   OH249930   2.788   4.946   2.769  0.5678 -0.4321 -0.1642
 9480TIP3    H149931   2.707   4.976   2.727  1.0943 -0.2905 -1.1148
 9480TIP3    H249932   2.791   4.852   2.750  0.0279 -0.6797  0.9158
 9481TIP3   OH249933   0.851   4.409  13.595  0.6883 -0.1472  0.2185
 9481TIP3    H149934   0.785   4.473  13.623  0.2741 -0.8019  0.7495
 9481TIP3    H249935   0.919   4.462  13.554  0.5227  0.6740  0.9864
 9482TIP3   OH249936   5.913   5.122  10.527 -0.3870  0.3602 -0.5805
 9482TIP3    H149937   5.980   5.082  10.472 -0.0643  3.2442 -2.5353
 9482TIP3    H249938   5.951   5.205  10.555 -2.2521  0.9919  0.2336
 9483TIP3   OH249939   1.001   4.929  15.590 -0.1354  0.1016 -0.1803
 9483TIP3    H149940   1.069   4.965  15.533 -1.0384  0.4172 -1.1076
 9483TIP3    H249941   1.046   4.863  15.643  0.7203 -0.3464 -1.4089
 9484TIP3   OH249942   5.267   3.708  14.489  0.0808 -0.2006  0.1097
 9484TIP3    H149943   5.185   3.688  14.535  0.3966  0.7637  1.1448
 9484TIP3    H249944   5.334   3.660  14.538  0.4549  1.0332  0.8652
 9485TIP3   OH249945   2.122   5.098  14.382  0.5775 -0.0663 -0.2694
 9485TIP3    H149946   2.083   5.170  14.431  0.5746  0.0873 -0.4998
 9485TIP3    H249947   2.105   5.021  14.437  0.1439  0.0312 -0.2596
 9486TIP3   OH249948   4.511   1.250  14.570 -0.4014  0.5044 -0.0541
 9486TIP3    H149949   4.510   1.265  14.475 -0.8354  1.1731  0.0487
 9486TIP3    H249950   4.604   1.254  14.593 -0.2232 -0.3946 -0.5511
 9487TIP3   OH249951   0.013   6.198   4.970 -0.4530  0.2404 -0.3396
 9487TIP3    H149952   0.002   6.231   4.881 -3.1102  0.0208 -0.1759
 9487TIP3    H249953  -0.049   6.126   4.977  0.0248 -0.0452  1.5503
 9488TIP3   OH249954   0.262   1.030   1.589  0.0431  0.5985  0.7301
 9488TIP3    H149955   0.322   1.090   1.633  0.9490  1.1044 -1.1005
 9488TIP3    H249956   0.175   1.060   1.614  0.4964  2.0215  0.6737
 9489TIP3   OH249957   3.681   3.915   1.275 -0.0327 -0.0516  0.3988
 9489TIP3    H149958   3.642   3.828   1.271 -0.4003  0.1209  0.1710
 9489TIP3    H249959   3.648   3.953   1.356  0.6972 -0.3878  0.8626
 9490TIP3   OH249960   2.708   3.811  12.975  0.2730  0.1041  0.0996
 9490TIP3    H149961   2.631   3.864  12.954 -0.2358 -1.1606 -1.4152
 9490TIP3    H249962   2.729   3.766  12.894  2.5655  0.2991  0.5138
 9491TIP3   OH249963   3.224   2.469  12.151 -0.1717 -0.3296  0.0142
 9491TIP3    H149964   3.299   2.509  12.108  0.2249  0.4553  1.3879
 9491TIP3    H249965   3.173   2.430  12.079 -0.7625  2.8438 -1.4886
 9492TIP3   OH249966   2.738   5.040  15.114  0.3644  0.0934  0.0812
 9492TIP3    H149967   2.815   5.016  15.166 -0.4607  0.2455  1.4329
 9492TIP3    H249968   2.716   4.960  15.065  1.4706  0.1055 -0.4614
 9493TIP3   OH249969   1.752   1.002  13.626  0.3647  0.0257 -0.2214
 9493TIP3    H149970   1.659   1.025  13.621  0.5330  0.4816 -3.2802
 9493TIP3    H249971   1.757   0.913  13.591  1.1715  0.3179 -0.8760
 9494TIP3   OH249972   6.494   6.217  13.604  0.3255  0.0043  0.5452
 9494TIP3    H149973   6.546   6.183  13.677 -0.9228 -0.2791  1.3285
 9494TIP3    H249974   6.525   6.168  13.528  0.0476 -1.3734  1.2926
 9495TIP3   OH249975   0.250   2.939  10.989  0.1318 -0.6889  0.4918
 9495TIP3    H149976   0.203   2.999  10.931  2.5869  1.4142  0.4908
 9495TIP3    H249977   0.286   2.872  10.932  1.2994  0.5364 -0.2481
 9496TIP3   OH249978   0.151   3.337  15.146 -0.2554  0.5119  0.4316
 9496TIP3    H149979   0.208   3.261  15.142 -1.7151 -0.6519  0.6679
 9496TIP3    H249980   0.184   3.396  15.078 -0.6625 -1.4893 -1.6194
 9497TIP3   OH249981   2.148   3.466  14.414 -0.6012 -0.3607 -0.5276
 9497TIP3    H149982   2.159   3.440  14.322  0.7076 -0.0698 -0.4611
 9497TIP3    H249983   2.221   3.425  14.460 -0.3467  0.7750  0.1136
 9498TIP3   OH249984   1.723   6.020   3.580 -0.4189  0.2907  0.2882
 9498TIP3    H149985   1.717   6.072   3.661 -0.7179 -0.3140  0.6684
 9498TIP3    H249986   1.693   5.933   3.606  1.4346 -0.4685  0.0041
 9499TIP3   OH249987   1.776   4.527  12.492 -0.3012  0.0714 -0.0589
 9499TIP3    H149988   1.815   4.606  12.529  0.7027 -1.1656  1.6395
 9499TIP3    H249989   1.695   4.514  12.541 -0.1464 -0.3053  0.0979
 9500TIP3   OH249990   4.921   3.141   4.101  0.4056  0.1505 -0.6012
 9500TIP3    H149991   5.013   3.121   4.118  0.2245  1.2254  2.0495
 9500TIP3    H249992   4.875   3.058   4.113  0.9702 -0.3189 -1.6092
 9501TIP3   OH249993   4.022   3.696   3.650  0.8001  0.4462 -0.2058
 9501TIP3    H149994   4.102   3.647   3.670  1.4854  0.7681 -1.9328
 9501TIP3    H249995   4.032   3.721   3.558 -2.4286 -1.6745 -1.3015
 9502TIP3   OH249996   6.509   2.784  10.631 -0.2333 -0.2486  0.1524
 9502TIP3    H149997   6.450   2.859  10.631 -0.1667 -0.1742 -1.0746
 9502TIP3    H249998   6.596   2.822  10.643 -0.1402 -0.0622 -1.0453
 9503TIP3   OH249999   4.559   6.352   6.621  0.6329 -0.6468  0.0343
 9503TIP3    H150000   4.602   6.294   6.559 -1.1899  0.7212 -2.7377
 9503TIP3    H250001   4.467   6.327   6.618  0.4725 -0.5691  2.3451
 9504TIP3   OH250002   6.679   1.783  13.225 -0.0369 -0.1768 -0.2786
 9504TIP3    H150003   6.669   1.744  13.138  1.7436 -0.7328 -0.2622
 9504TIP3    H250004   6.618   1.735  13.281 -0.8237 -0.1553 -1.0959
 9505TIP3   OH250005   4.154   2.216  11.559  0.3048  0.1733 -0.3796
 9505TIP3    H150006   4.230   2.262  11.523  0.3375 -0.7984 -1.6108
 9505TIP3    H250007   4.084   2.230  11.495  0.7562 -2.7679 -1.6895
 9506TIP3   OH250008   1.802   2.414  14.246 -0.4879 -0.3979 -0.0842
 9506TIP3    H150009   1.800   2.328  14.203  1.2040 -0.2813 -0.4812
 9506TIP3    H250010   1.886   2.416  14.292  0.2629  1.5994 -1.3562
 9507TIP3   OH250011   0.783   1.457   4.212 -0.6385 -0.0314 -0.0617
 9507TIP3    H150012   0.779   1.393   4.283  0.6136  1.1458  1.1354
 9507TIP3    H250013   0.799   1.541   4.256  1.7871  0.5327 -1.7951
 9508TIP3   OH250014   2.453   5.342   3.009 -0.5835  0.6673  0.0379
 9508TIP3    H150015   2.364   5.324   2.980 -0.2094 -1.2883 -0.0957
 9508TIP3    H250016   2.487   5.256   3.035  0.9033  1.5290  1.1201
 9509TIP3   OH250017   2.911   2.673  15.956 -0.5346  0.1486 -0.1658
 9509TIP3    H150018   2.889   2.597  16.010 -1.5564  1.1480  0.8710
 9509TIP3    H250019   2.897   2.643  15.866 -2.4611 -0.4384  0.2928
 9510TIP3   OH250020   4.961   1.830   6.166 -0.4610  0.6665 -0.4550
 9510TIP3    H150021   5.056   1.822   6.156 -0.5213  0.4953 -0.9283
 9510TIP3    H250022   4.949   1.901   6.229  0.0884 -2.3234  3.3817
 9511TIP3   OH250023   6.818   1.534  13.518  0.5496  0.0712  0.1212
 9511TIP3    H150024   6.879   1.462  13.535  0.5116 -0.4210 -1.6338
 9511TIP3    H250025   6.749   1.495  13.465  0.3551  1.3181 -0.5731
 9512TIP3   OH250026   4.175   6.795   1.126 -0.1540  0.4394  1.0249
 9512TIP3    H150027   4.271   6.796   1.118  0.0357 -2.2221  1.9060
 9512TIP3    H250028   4.155   6.871   1.181  1.0681  2.7647 -1.4728
 9513TIP3   OH250029   5.102   1.398  12.828  0.0258  0.1256 -0.1890
 9513TIP3    H150030   5.162   1.347  12.882  0.0199 -1.6211 -1.7350
 9513TIP3    H250031   5.028   1.416  12.886 -0.0374 -1.7942  0.4000
 9514TIP3   OH250032   0.098   5.233  14.921 -0.9858  0.7549 -0.2576
 9514TIP3    H150033   0.148   5.314  14.935 -0.8230  0.3688  1.6406
 9514TIP3    H250034   0.057   5.246  14.836  1.9538  1.2801 -1.7534
 9515TIP3   OH250035   1.661   4.263  16.673  0.5173 -0.1465 -0.0066
 9515TIP3    H150036   1.691   4.329  16.737  1.4428 -1.2677  0.7469
 9515TIP3    H250037   1.712   4.281  16.594  0.8242 -0.0188  0.2200
 9516TIP3   OH250038   1.933   2.065   1.130 -0.4128 -0.1767 -0.7517
 9516TIP3    H150039   1.986   2.048   1.052 -1.2865 -1.6389 -1.0627
 9516TIP3    H250040   1.846   2.032   1.108 -0.1692 -2.8566  1.6175
 9517TIP3   OH250041   4.149   2.910  14.259  0.1182  0.5685 -0.0315
 9517TIP3    H150042   4.104   2.896  14.342  1.9408  0.6237  1.0249
 9517TIP3    H250043   4.217   2.974  14.279  0.8094  0.3335 -1.4915
 9518TIP3   OH250044   2.410   0.188   0.881 -0.2676  0.2159  0.7710
 9518TIP3    H150045   2.388   0.262   0.824 -0.8585  2.6742  3.8799
 9518TIP3    H250046   2.345   0.121   0.861 -1.5051  1.6558 -0.2495
 9519TIP3   OH250047   1.226   3.377   0.900  0.9855 -0.4429 -0.6468
 9519TIP3    H150048   1.259   3.410   0.816  0.0975 -0.7728 -1.1424
 9519TIP3    H250049   1.287   3.412   0.965  1.1400  0.6153 -1.3298
 9520TIP3   OH250050   1.560   5.765  12.737 -0.0414 -0.4321  0.1628
 9520TIP3    H150051   1.613   5.845  12.734 -0.1881 -0.3434 -0.0991
 9520TIP3    H250052   1.606   5.705  12.679  0.5375 -0.8307  1.0137
 9521TIP3   OH250053   0.561   6.203  12.722 -0.3203  0.2525  0.0905
 9521TIP3    H150054   0.546   6.267  12.792 -1.8603  0.7835 -0.6702
 9521TIP3    H250055   0.579   6.256  12.644 -0.4827 -0.2585 -0.3018
 9522TIP3   OH250056   3.161   1.680  12.924  0.6641  0.1060  0.0430
 9522TIP3    H150057   3.091   1.618  12.940  1.9313 -1.0612  1.2708
 9522TIP3    H250058   3.219   1.672  13.000  1.8580  1.4149 -0.6778
 9523TIP3   OH250059   1.367   1.072  15.112 -0.0596 -0.3681 -0.3497
 9523TIP3    H150060   1.276   1.045  15.118 -0.2401 -0.3130 -2.3396
 9523TIP3    H250061   1.366   1.166  15.132 -0.3540 -0.4589  0.0724
 9524TIP3   OH250062   2.805   2.059  16.116 -0.3530 -0.0300 -0.5124
 9524TIP3    H150063   2.741   2.129  16.106 -0.4565 -0.2687 -1.6966
 9524TIP3    H250064   2.789   2.000  16.042  0.2962 -0.8519 -0.0293
 9525TIP3   OH250065   0.128   0.701  14.480  0.5161 -0.3364 -0.1075
 9525TIP3    H150066   0.056   0.642  14.457 -0.5059  1.0866 -0.7733
 9525TIP3    H250067   0.180   0.707  14.400 -0.3459  0.9283 -0.6107
 9526TIP3   OH250068   5.962   2.506   5.283 -0.4398  0.1917 -0.2163
 9526TIP3    H150069   5.935   2.549   5.202 -1.5199  0.9190  0.5057
 9526TIP3    H250070   5.887   2.452   5.307  0.8270 -2.0954 -1.0450
 9527TIP3   OH250071   2.836   5.665   6.428  0.2917  0.4856  0.6938
 9527TIP3    H150072   2.790   5.746   6.450  0.6322  0.0661  3.2109
 9527TIP3    H250073   2.926   5.680   6.455  0.7111 -0.2093 -0.2599
 9528TIP3   OH250074   3.820   5.083  10.830  0.0022  0.6696 -0.2536
 9528TIP3    H150075   3.792   4.992  10.818  0.9420  0.2152  0.7754
 9528TIP3    H250076   3.741   5.135  10.814 -0.6678 -0.3539 -0.3685
 9529TIP3   OH250077   5.840   6.793   2.313  0.2340 -0.3509 -0.1832
 9529TIP3    H150078   5.915   6.812   2.369 -0.6263  0.8518  0.5994
 9529TIP3    H250079   5.843   6.698   2.300  1.1820 -0.4799  0.8575
 9530TIP3   OH250080   3.976   1.361   5.268 -0.5288  0.2293  0.1091
 9530TIP3    H150081   3.928   1.324   5.342  1.0627  0.6274  1.3997
 9530TIP3    H250082   3.981   1.454   5.287 -0.1964  0.3578 -0.5688
 9531TIP3   OH250083   2.473   0.267  16.905 -0.1922  0.1745  0.2758
 9531TIP3    H150084   2.498   0.175  16.916 -3.0215 -0.6807  0.3729
 9531TIP3    H250085   2.531   0.299  16.835  3.0218 -0.6616  2.3303
 9532TIP3   OH250086   3.057   1.881   2.299  0.1130 -0.3128 -0.0855
 9532TIP3    H150087   3.101   1.966   2.307 -1.1105  0.5526 -1.7473
 9532TIP3    H250088   3.003   1.875   2.377  1.6720 -0.5090  1.0255
 9533TIP3   OH250089   0.687   5.924   0.427  0.2728 -0.0023 -0.0540
 9533TIP3    H150090   0.675   5.932   0.521  1.6759 -0.2571  0.1734
 9533TIP3    H250091   0.782   5.924   0.415  0.1283 -0.7353 -1.4015
 9534TIP3   OH250092   5.586   3.434   6.258 -0.1202 -0.0485  0.1073
 9534TIP3    H150093   5.646   3.396   6.322  1.5546 -0.6193 -1.6806
 9534TIP3    H250094   5.517   3.475   6.310  1.1316 -0.5024  2.2361
 9535TIP3   OH250095   2.829   2.083   3.821  0.0129  0.6499  0.5869
 9535TIP3    H150096   2.774   2.150   3.861  0.5938  0.3886  1.8881
 9535TIP3    H250097   2.836   2.108   3.729  0.1668  2.3338  1.0327
 9536TIP3   OH250098   3.359   4.832   4.714 -0.8757  0.0055 -0.4223
 9536TIP3    H150099   3.381   4.883   4.636  0.3511 -0.7824 -0.6222
 9536TIP3    H250100   3.378   4.890   4.788 -1.0944  0.4060 -0.6767
 9537TIP3   OH250101   4.560   3.482   1.569 -0.2026 -0.2234 -0.3717
 9537TIP3    H150102   4.474   3.487   1.610 -0.2501  2.0003 -0.6488
 9537TIP3    H250103   4.592   3.572   1.569  1.4141 -0.7495 -1.8038
 9538TIP3   OH250104   0.789   1.780   3.288  0.2043 -0.0029 -0.9660
 9538TIP3    H150105   0.820   1.868   3.266 -0.4047  0.3743 -0.3570
 9538TIP3    H250106   0.811   1.770   3.381 -2.0160  0.5240 -0.3414
 9539TIP3   OH250107   1.722   1.120  16.649  0.0963  0.3638 -0.5731
 9539TIP3    H150108   1.687   1.208  16.634  0.0365  0.2502 -1.0941
 9539TIP3    H250109   1.736   1.117  16.744 -0.3036  0.7853 -0.4915
 9540TIP3   OH250110   2.617   0.136   1.042  0.1164  0.0971 -0.0494
 9540TIP3    H150111   2.601   0.207   1.104  1.3550  0.3983 -0.0512
 9540TIP3    H250112   2.550   0.147   0.975 -0.7773  0.2138  0.8319
 9541TIP3   OH250113   0.633   2.546  13.393  0.4086 -0.0062 -0.5005
 9541TIP3    H150114   0.713   2.548  13.339 -0.4684  2.6165 -1.8727
 9541TIP3    H250115   0.650   2.610  13.462 -1.1248  2.0468 -1.9146
 9542TIP3   OH250116   1.581   2.474   6.130  0.3553 -0.1591 -0.1823
 9542TIP3    H150117   1.515   2.499   6.065 -0.7554 -0.4498  0.8158
 9542TIP3    H250118   1.583   2.379   6.127 -0.1657 -0.2001  0.6629
 9543TIP3   OH250119   2.469   2.567   1.937  0.4187 -0.8607  0.5053
 9543TIP3    H150120   2.439   2.656   1.919  0.6354 -0.7089  0.8745
 9543TIP3    H250121   2.393   2.512   1.919  0.6769 -0.7503 -1.0318
 9544TIP3   OH250122   5.328   4.317   0.733  0.3179  0.1777 -0.0165
 9544TIP3    H150123   5.324   4.272   0.817  2.3350 -1.0619 -0.5113
 9544TIP3    H250124   5.360   4.404   0.754  1.5771 -0.3779  0.4472
 9545TIP3   OH250125   5.424   1.241  15.382  0.1683  0.1412 -0.5084
 9545TIP3    H150126   5.365   1.289  15.323  0.6482  0.6326 -0.6018
 9545TIP3    H250127   5.378   1.160  15.401 -1.4171  1.2908  0.9347
 9546TIP3   OH250128   4.186   5.456  15.516 -0.2122 -0.0667  0.0789
 9546TIP3    H150129   4.130   5.444  15.593 -0.5633 -2.2528 -0.4623
 9546TIP3    H250130   4.129   5.436  15.441  1.0998 -1.8765 -0.5177
 9547TIP3   OH250131   2.040   3.980  10.545  0.1944  0.1688  0.9203
 9547TIP3    H150132   1.951   4.014  10.549 -0.0743 -0.5961  1.9658
 9547TIP3    H250133   2.093   4.046  10.591  0.4601  1.3967 -1.0529
 9548TIP3   OH250134   0.933   0.630  12.062  0.2522  0.0024  0.4224
 9548TIP3    H150135   0.883   0.656  12.140 -0.5659 -0.7214  0.1608
 9548TIP3    H250136   1.017   0.675  12.071  0.0675  0.1487  1.5857
 9549TIP3   OH250137   0.152   2.293  12.392  0.8870  0.5652  0.0155
 9549TIP3    H150138   0.236   2.266  12.430  1.3542  3.0028  0.9159
 9549TIP3    H250139   0.094   2.302  12.468  0.7293  1.8557 -0.2412
 9550TIP3   OH250140   5.863   4.776   6.079 -0.3614  0.1455  0.1380
 9550TIP3    H150141   5.819   4.718   6.017 -2.1696 -0.0505  1.5330
 9550TIP3    H250142   5.820   4.759   6.162  0.8634  1.6096  1.1197
 9551TIP3   OH250143   0.424   5.454   4.594 -0.3298 -0.1074 -0.0528
 9551TIP3    H150144   0.392   5.505   4.519 -2.3051  0.6988  1.2515
 9551TIP3    H250145   0.519   5.455   4.585 -0.4559  1.0224 -1.8527
 9552TIP3   OH250146   2.825   4.826  12.281 -0.3663  0.1872 -0.5826
 9552TIP3    H150147   2.825   4.743  12.328 -0.9965  0.1775 -0.5873
 9552TIP3    H250148   2.810   4.892  12.348 -1.9141  0.1223 -0.8233
 9553TIP3   OH250149   5.080   3.405  16.690 -0.5073  0.2280 -0.4977
 9553TIP3    H150150   5.040   3.491  16.700  1.0183  0.9240 -0.0707
 9553TIP3    H250151   5.101   3.399  16.596 -1.2782 -0.0006 -0.6596
 9554TIP3   OH250152   0.292   0.362   5.713  0.0901  0.5636 -0.1364
 9554TIP3    H150153   0.336   0.385   5.631 -0.6213  2.3062 -0.0673
 9554TIP3    H250154   0.329   0.422   5.777 -0.7461  0.5087  0.4059
 9555TIP3   OH250155   3.296   5.618   2.408  0.0963  0.1837 -0.3455
 9555TIP3    H150156   3.318   5.631   2.500  2.4961  2.8932 -1.1737
 9555TIP3    H250157   3.203   5.640   2.402  0.3448  1.7968  1.1615
 9556TIP3   OH250158   5.556   6.671  10.389  0.2563 -0.1334 -0.5203
 9556TIP3    H150159   5.643   6.710  10.383 -0.2517  1.1814  0.4053
 9556TIP3    H250160   5.500   6.727  10.335 -0.5193  0.6017  0.9856
 9557TIP3   OH250161   1.990   4.461  13.618  0.1681 -0.6267  0.6986
 9557TIP3    H150162   1.900   4.493  13.602  0.0482 -0.0511  2.3648
 9557TIP3    H250163   2.042   4.503  13.549 -1.2397 -3.5533 -2.4662
 9558TIP3   OH250164   4.984   6.222   1.295 -0.4083  0.9300 -0.0212
 9558TIP3    H150165   4.931   6.148   1.326 -0.6580  0.8188 -0.6886
 9558TIP3    H250166   4.920   6.283   1.259 -0.1173  0.9655 -0.4920
 9559TIP3   OH250167   3.115   3.999  10.705  0.3427 -0.1332 -0.7988
 9559TIP3    H150168   3.039   4.043  10.669  0.2277  0.4144  0.0804
 9559TIP3    H250169   3.110   3.910  10.670 -0.8557 -0.1832 -0.5534
 9560TIP3   OH250170   4.209   1.901   1.378 -0.2846 -0.5857  0.8061
 9560TIP3    H150171   4.236   1.863   1.294 -0.7091  1.1570 -0.1620
 9560TIP3    H250172   4.195   1.825   1.434  2.0092 -1.7469 -0.0344
 9561TIP3   OH250173   4.500   0.160  11.438  0.0170 -0.0900 -0.4775
 9561TIP3    H150174   4.477   0.251  11.453 -1.2192 -0.8171  2.9923
 9561TIP3    H250175   4.428   0.125  11.385 -0.7717  0.4272  0.2307
 9562TIP3   OH250176   3.175   6.798   2.722 -0.0052  0.0280  0.5902
 9562TIP3    H150177   3.129   6.817   2.640 -0.1437 -0.3213  0.5811
 9562TIP3    H250178   3.212   6.881   2.749 -1.2139  0.4754  0.9426
 9563TIP3   OH250179   1.658   2.857   0.844 -0.5164  0.6461 -0.4075
 9563TIP3    H150180   1.747   2.824   0.827 -0.2596  0.8675  0.4445
 9563TIP3    H250181   1.655   2.941   0.798 -1.2337 -0.5615 -2.7445
 9564TIP3   OH250182   5.416   3.441  16.264 -0.3384  0.2585  0.1884
 9564TIP3    H150183   5.456   3.418  16.180  0.2969  2.3909 -0.1454
 9564TIP3    H250184   5.394   3.357  16.303  1.6660 -0.9105 -0.9913
 9565TIP3   OH250185   6.427   0.136   4.754  0.3760 -0.5909  0.1055
 9565TIP3    H150186   6.450   0.076   4.825 -0.2027  1.2063  1.8920
 9565TIP3    H250187   6.511   0.176   4.729  0.2499  0.9460  1.9069
 9566TIP3   OH250188   2.005   6.037  11.230  0.1168  0.9079 -0.2666
 9566TIP3    H150189   1.942   5.975  11.267  0.5576  0.6166  0.0074
 9566TIP3    H250190   1.968   6.061  11.145  0.4926 -0.6157 -0.8915
 9567TIP3   OH250191   2.945   0.912  11.375  0.3106 -0.0384  0.1822
 9567TIP3    H150192   2.971   0.918  11.283  0.6782  1.4765  0.3618
 9567TIP3    H250193   2.937   0.818  11.391 -0.8587 -0.3250 -1.6855
 9568TIP3   OH250194   2.143   4.861  11.779 -0.7146 -0.1567  0.6686
 9568TIP3    H150195   2.082   4.787  11.784  0.3971 -1.0031  2.8623
 9568TIP3    H250196   2.207   4.844  11.847  0.6848  1.8950 -0.0457
 9569TIP3   OH250197   1.520   6.092   0.071  0.0801  0.5541 -0.1678
 9569TIP3    H150198   1.606   6.050   0.076  0.2277  0.4840 -2.5534
 9569TIP3    H250199   1.535   6.179   0.107  0.1775 -0.6695  3.1328
 9570TIP3   OH250200   6.061   3.050  15.036 -0.2022  0.1760  0.3763
 9570TIP3    H150201   5.999   3.020  15.103  1.0523 -1.4246  0.9030
 9570TIP3    H250202   6.095   2.969  14.998  0.8348  1.0352 -0.5784
 9571TIP3   OH250203   6.270   3.112  14.352 -0.0531 -0.2425 -0.1116
 9571TIP3    H150204   6.226   3.189  14.316  0.1206 -0.6436 -1.2202
 9571TIP3    H250205   6.342   3.095  14.291 -0.1168 -1.2978  0.0896
 9572TIP3   OH250206   4.030   0.820   5.461  0.5435 -0.2260  0.3236
 9572TIP3    H150207   4.031   0.784   5.373 -1.4653  2.0996 -0.7736
 9572TIP3    H250208   4.047   0.745   5.518 -1.9537 -2.6150 -1.8205
 9573TIP3   OH250209   0.085   5.713  16.813  0.2495 -0.0411  0.4899
 9573TIP3    H150210   0.055   5.795  16.853  2.6366  0.3710  1.6508
 9573TIP3    H250211   0.104   5.655  16.887 -0.5567 -1.3533 -0.2912
 9574TIP3   OH250212   1.886   5.696  10.611 -0.1026  0.2732  0.2640
 9574TIP3    H150213   1.946   5.684  10.538 -1.7263  0.8629 -1.2304
 9574TIP3    H250214   1.800   5.707  10.571 -0.8473  2.2555  2.1806
 9575TIP3   OH250215   4.871   2.184  16.561  0.4228 -0.0301  0.5113
 9575TIP3    H150216   4.784   2.152  16.583 -0.3036  0.6985 -1.1383
 9575TIP3    H250217   4.857   2.240  16.484  2.3141  0.2798  0.3516
 9576TIP3   OH250218   5.881   0.746   3.068  0.3807  0.2349  0.5363
 9576TIP3    H150219   5.975   0.758   3.067  0.5786 -1.1318 -0.3414
 9576TIP3    H250220   5.867   0.666   3.119 -0.3288  0.5426  0.8474
 9577TIP3   OH250221   1.820   1.295   4.437 -0.1167 -0.0295 -0.7339
 9577TIP3    H150222   1.900   1.250   4.465  1.6216  2.2548 -1.6657
 9577TIP3    H250223   1.777   1.319   4.520  2.2824  2.1170  0.0455
 9578TIP3   OH250224   1.038   4.264   6.116  0.4609 -0.3402 -0.4536
 9578TIP3    H150225   0.999   4.178   6.103  1.1003 -0.5538 -1.0050
 9578TIP3    H250226   0.966   4.325   6.099  0.1914 -0.7458 -0.7928
 9579TIP3   OH250227   0.647   2.795   4.059  0.0765  1.1103 -0.0886
 9579TIP3    H150228   0.738   2.776   4.083 -0.1603  0.1565  0.0784
 9579TIP3    H250229   0.608   2.831   4.139 -0.4272 -1.0783  0.7069
 9580TIP3   OH250230   2.912   0.957  15.485  0.4838  0.2791  0.2406
 9580TIP3    H150231   2.857   0.933  15.411  0.4151  0.4688  0.2293
 9580TIP3    H250232   2.854   1.007  15.543  0.0614 -1.2993  1.2486
 9581TIP3   OH250233   6.077   4.855  10.982 -0.8774  0.0682  0.1798
 9581TIP3    H150234   6.100   4.867  11.074  0.8686 -1.0032 -0.0769
 9581TIP3    H250235   5.981   4.852  10.982 -0.9739  1.8099  1.7094
 9582TIP3   OH250236   3.078   0.749  16.524  0.5202 -0.3604  0.2648
 9582TIP3    H150237   3.170   0.730  16.546  0.3464 -2.1970 -0.3876
 9582TIP3    H250238   3.031   0.739  16.607  0.8407  0.2297  0.5267
 9583TIP3   OH250239   1.845   4.655   4.310 -0.6603  0.0728 -0.2526
 9583TIP3    H150240   1.845   4.639   4.216  2.1731 -0.5409 -0.2413
 9583TIP3    H250241   1.911   4.595   4.345 -1.9200  0.0072  2.1971
 9584TIP3   OH250242   1.771   3.984  13.077  0.0471 -0.0878  0.0928
 9584TIP3    H150243   1.756   4.078  13.079  1.0839  0.0931 -0.1176
 9584TIP3    H250244   1.730   3.951  13.157 -0.0288  0.5848  0.3333
 9585TIP3   OH250245   5.377   5.201   1.415  0.1407 -0.1912  0.4006
 9585TIP3    H150246   5.379   5.289   1.454  1.5106 -0.2705  0.5582
 9585TIP3    H250247   5.348   5.144   1.487 -1.0931  0.1508  0.2041
 9586TIP3   OH250248   4.891   3.981   0.955  0.1582 -0.1678  0.2322
 9586TIP3    H150249   4.957   4.048   0.970  0.8640 -0.6186 -0.7039
 9586TIP3    H250250   4.833   4.018   0.888  0.6767 -0.5656 -0.4443
 9587TIP3   OH250251   3.672   3.490  12.070  0.2289 -0.5847  0.6165
 9587TIP3    H150252   3.724   3.551  12.017 -1.5469 -0.0751 -0.6266
 9587TIP3    H250253   3.719   3.407  12.063 -0.3374 -0.7637 -2.5267
 9588TIP3   OH250254   2.823   4.970   6.389  0.0397  0.2527 -0.1296
 9588TIP3    H150255   2.901   4.961   6.335 -0.4117 -0.5473 -0.6718
 9588TIP3    H250256   2.855   5.001   6.474  0.9724 -0.4258 -0.2276
 9589TIP3   OH250257   5.523   1.961  16.969 -0.5598  0.1142 -0.1940
 9589TIP3    H150258   5.540   1.875  17.006  1.3087 -0.7034 -2.6591
 9589TIP3    H250259   5.458   1.945  16.901  0.0298  0.5523 -0.8779
 9590TIP3   OH250260   6.258   0.650   2.121 -0.2622  0.4645  0.0839
 9590TIP3    H150261   6.203   0.711   2.171 -1.0996 -1.4303  1.6217
 9590TIP3    H250262   6.347   0.678   2.139 -0.5971  0.7806  1.4396
 9591TIP3   OH250263   0.688   5.573  11.523  0.1234  0.3690 -0.6772
 9591TIP3    H150264   0.634   5.497  11.504  1.9330 -1.1875  0.0448
 9591TIP3    H250265   0.754   5.574  11.454  2.2013 -0.8705  1.1309
 9592TIP3   OH250266   5.690   2.254  12.499 -0.0607  0.3705 -0.9078
 9592TIP3    H150267   5.602   2.276  12.467  0.5615  1.2984 -2.1027
 9592TIP3    H250268   5.721   2.185  12.439  0.4075  0.7982 -1.1728
 9593TIP3   OH250269   1.884   2.776   0.703  0.3345 -0.4715  0.2413
 9593TIP3    H150270   1.943   2.721   0.650 -1.2078 -0.2405 -1.8007
 9593TIP3    H250271   1.839   2.831   0.640 -0.9411  0.4802  1.9137
 9594TIP3   OH250272   1.879   0.503  10.382 -0.3991 -0.0025 -0.0643
 9594TIP3    H150273   1.827   0.577  10.415  1.4052  0.9549  0.7936
 9594TIP3    H250274   1.945   0.544  10.325  0.4770 -0.9828  0.2245
 9595TIP3   OH250275   6.667   0.311   6.235  0.5752  0.6837 -0.3080
 9595TIP3    H150276   6.598   0.365   6.196 -0.2479  0.4597  0.7721
 9595TIP3    H250277   6.725   0.374   6.277  0.5117  0.8253 -0.4312
 9596TIP3   OH250278   5.682   3.019   2.853 -0.2739  0.0621 -0.1819
 9596TIP3    H150279   5.601   2.999   2.900  0.0906 -0.3434  0.2780
 9596TIP3    H250280   5.654   3.074   2.780 -0.8763  0.4688  0.3507
 9597TIP3   OH250281   4.864   2.192  14.924  0.0101 -0.1232 -0.3220
 9597TIP3    H150282   4.958   2.172  14.927  0.7867  2.6119 -2.2143
 9597TIP3    H250283   4.833   2.152  14.843 -0.3413 -0.5460  0.0174
 9598TIP3   OH250284   1.781   4.776   3.436  0.7241  0.2750  0.1328
 9598TIP3    H150285   1.831   4.704   3.474  2.1791  0.9135 -0.4985
 9598TIP3    H250286   1.759   4.745   3.347 -1.1971 -0.5261  0.8238
 9599TIP3   OH250287   1.864   5.935  16.518 -0.1149  0.2522  0.2447
 9599TIP3    H150288   1.819   5.861  16.559 -0.5802  0.0006 -0.7011
 9599TIP3    H250289   1.844   6.009  16.575  0.4883 -0.3666  1.2961
 9600TIP3   OH250290   0.860   6.675   1.476  0.8316 -0.1408  0.4527
 9600TIP3    H150291   0.855   6.735   1.401 -3.3145 -1.4287 -0.5996
 9600TIP3    H250292   0.862   6.732   1.553  0.5266  1.3180 -0.5820
 9601TIP3   OH250293   6.221   4.473   2.105  0.3408  0.6883  0.1734
 9601TIP3    H150294   6.193   4.520   2.025  0.5652  0.0525 -0.2867
 9601TIP3    H250295   6.171   4.392   2.104  0.3776  0.6569  0.6670
 9602TIP3   OH250296   5.801   1.718  11.971 -0.0446 -0.4320  0.5756
 9602TIP3    H150297   5.870   1.779  11.948  0.0986 -1.3759 -1.7356
 9602TIP3    H250298   5.726   1.773  11.992  0.8338  0.5505  1.2203
 9603TIP3   OH250299   6.736   1.885   5.501 -0.1135  0.0274  0.0791
 9603TIP3    H150300   6.698   1.925   5.579  0.9182  0.5888  0.2992
 9603TIP3    H250301   6.672   1.818   5.476 -0.8465  0.3858  0.9225
 9604TIP3   OH250302   6.191   0.613  13.536 -0.1658  0.5810  0.7153
 9604TIP3    H150303   6.119   0.587  13.593 -2.2201  1.9501 -1.1146
 9604TIP3    H250304   6.241   0.533  13.523 -1.0017 -0.2840  2.4798
 9605TIP3   OH250305   4.718   1.609  15.272  0.0772 -0.0449  0.1328
 9605TIP3    H150306   4.763   1.535  15.312  1.9993  0.9464 -0.0576
 9605TIP3    H250307   4.713   1.674  15.342 -0.3173  0.1678 -0.0928
 9606TIP3   OH250308   3.832   2.763  15.587 -0.5702 -0.0055  0.0161
 9606TIP3    H150309   3.778   2.705  15.641 -0.8669  0.0843 -0.1811
 9606TIP3    H250310   3.816   2.736  15.497 -2.5145  1.8257 -0.2771
 9607TIP3   OH250311   5.345   1.402  15.085 -0.0325 -0.2393  0.8055
 9607TIP3    H150312   5.378   1.344  15.015 -0.3529  0.0324  0.4292
 9607TIP3    H250313   5.250   1.397  15.077 -0.1480 -1.7646  2.4969
 9608TIP3   OH250314   0.994   1.631  12.033  0.3341 -0.1361 -0.9789
 9608TIP3    H150315   0.919   1.664  12.082  0.4438  2.9637 -2.6194
 9608TIP3    H250316   0.999   1.538  12.056 -3.0173 -0.1284  0.3897
 9609TIP3   OH250317   5.896   0.325   2.446 -0.1101  0.2113 -0.1292
 9609TIP3    H150318   5.914   0.235   2.473 -0.2174  0.3730  0.4779
 9609TIP3    H250319   5.977   0.354   2.404 -0.1195 -0.2083 -0.4431
 9610TIP3   OH250320   0.712   3.970  13.340 -0.0483  0.1035  0.0923
 9610TIP3    H150321   0.666   3.998  13.419 -0.2167  0.8170 -0.2454
 9610TIP3    H250322   0.679   4.028  13.271 -0.3909 -0.9388 -0.6442
 9611TIP3   OH250323   6.751   2.478  15.289 -0.4801 -0.1774  0.4957
 9611TIP3    H150324   6.803   2.551  15.258 -0.6990 -0.8207 -1.5044
 9611TIP3    H250325   6.816   2.410  15.310 -0.3976 -0.1670  0.2723
 9612TIP3   OH250326   2.265   3.119  12.786  0.6679  0.3810  0.5371
 9612TIP3    H150327   2.274   3.081  12.699  0.5502  0.2297  0.5909
 9612TIP3    H250328   2.353   3.148  12.809  0.8771 -0.3931  0.7463
 9613TIP3   OH250329   1.135   1.294  14.273  0.2457  0.3737 -0.1605
 9613TIP3    H150330   1.064   1.246  14.231  1.4791 -1.3381 -0.4340
 9613TIP3    H250331   1.093   1.368  14.316 -1.9463 -1.5083  1.1684
 9614TIP3   OH250332   1.060   3.320  11.531  0.0947 -0.5477 -0.0589
 9614TIP3    H150333   1.132   3.378  11.556 -0.6453  0.5755 -0.4240
 9614TIP3    H250334   0.983   3.377  11.528 -0.8080 -1.6968  0.2317
 9615TIP3   OH250335   4.062   3.077  12.560  0.2927 -0.4378  0.1207
 9615TIP3    H150336   4.123   3.017  12.604 -0.1853 -0.4906  0.7233
 9615TIP3    H250337   3.982   3.070  12.611 -0.2368 -0.4047 -0.6970
 9616TIP3   OH250338   0.745   1.663   4.038 -0.2117 -0.2989  0.2109
 9616TIP3    H150339   0.737   1.572   4.067  0.7456 -0.8217 -1.0696
 9616TIP3    H250340   0.747   1.713   4.120 -0.6063 -1.4252  0.9470
 9617TIP3   OH250341   3.009   0.809  11.114 -0.3896 -0.7976  0.6522
 9617TIP3    H150342   2.937   0.749  11.130  0.0845 -1.6146 -0.1867
 9617TIP3    H250343   2.995   0.842  11.026 -0.3017 -0.1493  0.8733
 9618TIP3   OH250344   1.155   5.297   0.558  0.3747 -0.1773 -0.5998
 9618TIP3    H150345   1.138   5.248   0.477  0.3433 -0.9341 -0.1475
 9618TIP3    H250346   1.243   5.272   0.583 -0.0318 -0.8503  0.2061
 9619TIP3   OH250347   4.475   5.412  15.121  0.3660 -0.0004 -0.6317
 9619TIP3    H150348   4.382   5.434  15.123  0.3595  0.0790 -1.6052
 9619TIP3    H250349   4.503   5.420  15.212 -0.5847 -0.0626 -0.3226
 9620TIP3   OH250350   2.151   4.569  13.428  0.3099  0.1768 -0.3388
 9620TIP3    H150351   2.240   4.604  13.422 -0.0557  1.1274 -0.3870
 9620TIP3    H250352   2.151   4.493  13.370  1.3790 -0.4688  0.4760
 9621TIP3   OH250353   6.187   0.293   1.141  0.9798 -0.7223  0.3859
 9621TIP3    H150354   6.211   0.368   1.086  1.1604 -1.5556 -0.6879
 9621TIP3    H250355   6.112   0.325   1.192  1.0504  0.1937 -0.0579
 9622TIP3   OH250356   6.755   1.430  14.121  0.0887 -0.3434  0.1365
 9622TIP3    H150357   6.778   1.522  14.108  1.9845 -0.9625 -1.2036
 9622TIP3    H250358   6.839   1.385  14.131 -0.7617 -2.0328  0.0353
 9623TIP3   OH250359   0.404   3.210  16.994  0.3298 -0.0007 -0.2428
 9623TIP3    H150360   0.448   3.195  17.077  1.2821  0.0128 -0.7287
 9623TIP3    H250361   0.474   3.235  16.934  0.2602 -3.1542 -1.8850
 9624TIP3   OH250362   3.352   3.053  15.858  0.0814  0.1993  0.0950
 9624TIP3    H150363   3.268   3.061  15.903 -1.3722  1.6951 -2.6075
 9624TIP3    H250364   3.366   2.958  15.848 -0.6729 -0.0838  1.5879
 9625TIP3   OH250365   4.463   6.653   0.339  0.0656 -0.2003 -0.1321
 9625TIP3    H150366   4.468   6.609   0.254  2.1554  0.2562 -0.2945
 9625TIP3    H250367   4.411   6.594   0.394 -0.4258 -0.9992 -1.4216
 9626TIP3   OH250368   2.746   5.343   0.337 -0.8519 -0.4262 -0.0986
 9626TIP3    H150369   2.759   5.300   0.252  0.4829 -0.4442  0.0839
 9626TIP3    H250370   2.811   5.302   0.394 -3.0386 -1.8736  1.5174
 9627TIP3   OH250371   1.043   4.921  12.301  0.2255 -0.4268 -0.1102
 9627TIP3    H150372   1.076   4.838  12.334 -1.3404 -1.1170 -0.2132
 9627TIP3    H250373   1.095   4.937  12.222 -0.2613 -1.9294 -0.7668
 9628TIP3   OH250374   6.056   3.024   4.892 -0.6807 -0.1092 -0.4223
 9628TIP3    H150375   6.035   2.946   4.944 -1.3128 -0.1016 -0.6623
 9628TIP3    H250376   6.080   2.989   4.806 -2.7705  0.0457 -1.1048
 9629TIP3   OH250377   5.905   2.658   1.281  0.0014  0.0418 -0.0731
 9629TIP3    H150378   5.908   2.660   1.186 -0.2439 -1.4326 -0.1316
 9629TIP3    H250379   5.826   2.608   1.301 -0.1827  0.7059  0.9122
 9630TIP3   OH250380   4.439   5.495  15.405 -0.6655 -0.3160 -0.0157
 9630TIP3    H150381   4.456   5.589  15.402 -0.5861 -0.3262  0.1107
 9630TIP3    H250382   4.344   5.488  15.414 -0.4866 -0.1889  2.6789
 9631TIP3   OH250383   4.616   5.573  14.878 -0.4827  0.3923  0.0178
 9631TIP3    H150384   4.643   5.487  14.844 -1.2581  0.2485 -0.2517
 9631TIP3    H250385   4.634   5.568  14.972 -0.1459  0.0816 -0.0594
 9632TIP3   OH250386   4.530   4.405   4.159 -0.2468  0.0237  0.3802
 9632TIP3    H150387   4.548   4.332   4.218  0.7269  0.1546  0.2708
 9632TIP3    H250388   4.534   4.483   4.215 -3.5508 -0.0999  0.9669
 9633TIP3   OH250389   0.908   0.342  10.700  0.6220  0.0098  0.0355
 9633TIP3    H150390   0.988   0.340  10.648  1.0335 -0.0029  0.6594
 9633TIP3    H250391   0.842   0.298  10.646  1.8451 -3.0424  0.8688
 9634TIP3   OH250392   3.257   2.896  12.803  0.1227 -0.4858 -0.0595
 9634TIP3    H150393   3.297   2.938  12.880 -1.8283 -1.7211  1.7456
 9634TIP3    H250394   3.196   2.832  12.840 -1.3192 -0.7406 -2.6522
 9635TIP3   OH250395   6.610   0.336  11.017  0.5121 -0.1451 -0.4488
 9635TIP3    H150396   6.626   0.268  11.083 -1.4843 -0.4277 -0.2172
 9635TIP3    H250397   6.617   0.418  11.065 -0.4239 -0.3309  0.0165
 9636TIP3   OH250398   1.176   2.381  15.093 -0.9605 -0.3875  0.0475
 9636TIP3    H150399   1.269   2.390  15.115 -1.4676  1.3829  1.7000
 9636TIP3    H250400   1.140   2.329  15.164 -1.3302 -0.6857 -0.3564
 9637TIP3   OH250401   0.768   4.589  11.707 -0.1939  0.3358 -0.8439
 9637TIP3    H150402   0.780   4.509  11.656 -1.7620 -0.4362 -0.0587
 9637TIP3    H250403   0.695   4.634  11.666  0.4110  1.1889 -1.0243
 9638TIP3   OH250404   3.867   6.161   4.239 -0.1479  0.3108 -0.3296
 9638TIP3    H150405   3.864   6.078   4.286 -0.9431  0.1658 -0.6129
 9638TIP3    H250406   3.775   6.188   4.232 -0.0004  0.6336 -1.2476
 9639TIP3   OH250407   2.953   0.164   2.396  0.5297  0.4440 -0.1599
 9639TIP3    H150408   2.936   0.182   2.489  1.2288  0.3677 -0.0106
 9639TIP3    H250409   2.968   0.069   2.392 -0.5184  0.2781 -0.5231
 9640TIP3   OH250410   6.358   1.319   3.349 -0.1249  0.8605 -0.3567
 9640TIP3    H150411   6.394   1.251   3.292 -0.2933  1.9802 -1.8564
 9640TIP3    H250412   6.432   1.345   3.405 -0.0502 -0.4904  0.2244
 9641TIP3   OH250413   1.294   0.740  13.190 -0.4669  0.2704  0.3424
 9641TIP3    H150414   1.261   0.762  13.102 -0.5553 -2.0042 -0.2444
 9641TIP3    H250415   1.364   0.804  13.205 -0.7078  0.9691 -1.1975
 9642TIP3   OH250416   0.404   2.409  12.118 -0.2465  0.2851 -0.8770
 9642TIP3    H150417   0.429   2.317  12.118  2.3969  0.9078  0.3484
 9642TIP3    H250418   0.308   2.409  12.114 -0.2753 -2.4531 -1.9051
 9643TIP3   OH250419   3.306   3.562  12.290  0.6628  0.4916 -0.0040
 9643TIP3    H150420   3.344   3.532  12.208  0.8942  0.2796  0.1807
 9643TIP3    H250421   3.288   3.482  12.340 -3.0898  0.2969 -1.3872
 9644TIP3   OH250422   2.540   1.320  11.645  0.0952  0.0913 -0.0635
 9644TIP3    H150423   2.472   1.293  11.583 -0.1031 -0.9225  0.5718
 9644TIP3    H250424   2.607   1.362  11.592  0.2540 -1.3651 -1.0642
 9645TIP3   OH250425   0.731   1.479  14.690 -0.4850 -0.3015 -0.0494
 9645TIP3    H150426   0.655   1.524  14.728  0.0554 -0.1562  0.8805
 9645TIP3    H250427   0.806   1.532  14.718 -0.0632 -0.2072 -1.3058
 9646TIP3   OH250428   5.100   0.225  13.319 -0.2664  0.1419 -0.5203
 9646TIP3    H150429   5.098   0.320  13.316  1.7923  0.2038 -2.1120
 9646TIP3    H250430   5.008   0.198  13.312 -0.9028  1.9824  0.2292
 9647TIP3   OH250431   3.506   4.489  13.255 -0.3745  0.6084  0.1480
 9647TIP3    H150432   3.528   4.417  13.313  0.7931 -0.0405 -1.0289
 9647TIP3    H250433   3.585   4.543  13.253 -0.4489  0.7080 -0.6784
 9648TIP3   OH250434   1.099   4.845  16.007  0.2309  0.8488 -0.2330
 9648TIP3    H150435   1.187   4.853  16.045 -1.0172 -0.3712  3.3030
 9648TIP3    H250436   1.114   4.804  15.922  3.0234 -1.0993  1.0378
 9649TIP3   OH250437   0.435   0.366  16.113  0.5788  0.3606 -0.4204
 9649TIP3    H150438   0.360   0.330  16.065 -0.2330  0.4600  0.7280
 9649TIP3    H250439   0.503   0.299  16.105 -0.4509 -0.8611  0.5580
 9650TIP3   OH250440   4.464   0.833   4.251  0.2080 -0.2708  0.0688
 9650TIP3    H150441   4.516   0.763   4.290  0.1274 -0.8591 -0.8547
 9650TIP3    H250442   4.413   0.790   4.183 -0.0692  0.6379 -0.3133
 9651TIP3   OH250443   4.847   4.901   0.442  0.3553  0.3768  0.3692
 9651TIP3    H150444   4.863   4.871   0.532  0.9519  0.0924  0.1689
 9651TIP3    H250445   4.840   4.821   0.391 -0.2990  0.5308  0.2083
 9652TIP3   OH250446   6.065   4.520  16.460 -0.3219  0.4809 -0.2531
 9652TIP3    H150447   6.069   4.446  16.399 -0.6587 -0.0886  0.4073
 9652TIP3    H250448   6.155   4.528  16.493 -0.4725 -0.2448  0.3761
 9653TIP3   OH250449   2.047   3.607  15.345  0.4909  0.1605  0.0289
 9653TIP3    H150450   2.090   3.613  15.431  2.3489 -0.4079 -0.8132
 9653TIP3    H250451   2.085   3.529  15.305 -0.8045  0.0739 -1.0930
 9654TIP3   OH250452   2.170   0.566   3.002 -0.2354  0.3007  0.0679
 9654TIP3    H150453   2.106   0.615   2.950  0.1003 -0.6177 -1.2534
 9654TIP3    H250454   2.119   0.496   3.043  0.0242 -1.0001 -1.7273
 9655TIP3   OH250455   4.088   5.089  10.680  0.7745  0.2538  0.4085
 9655TIP3    H150456   4.120   5.006  10.646 -0.0014 -0.2120  0.7795
 9655TIP3    H250457   4.006   5.067  10.724 -0.1683  1.4186 -0.6847
 9656TIP3   OH250458   1.282   1.375   4.966  0.3193 -0.5970 -0.3953
 9656TIP3    H150459   1.272   1.449   4.907 -1.1103 -1.0950 -0.8182
 9656TIP3    H250460   1.250   1.407   5.051  1.7849 -0.0760 -0.0106
 9657TIP3   OH250461   4.752   0.476  16.606  0.0742  0.1488 -0.1323
 9657TIP3    H150462   4.670   0.453  16.651  1.0386 -1.1678  1.0405
 9657TIP3    H250463   4.804   0.520  16.673  1.5490 -1.8757  0.1646
 9658TIP3   OH250464   6.610   6.162   0.271 -0.3336  1.0942 -0.1813
 9658TIP3    H150465   6.583   6.173   0.362  2.1880  3.2683  0.4058
 9658TIP3    H250466   6.531   6.132   0.227 -1.3087 -1.4544  2.9142
 9659TIP3   OH250467   5.478   4.973  15.820 -0.1656 -0.4128 -0.0650
 9659TIP3    H150468   5.443   5.011  15.740  1.4853 -0.2171 -0.7396
 9659TIP3    H250469   5.406   4.977  15.882 -0.9867  0.9251 -1.0504
 9660TIP3   OH250470   6.785   1.600   3.148 -0.8391 -0.1904 -0.1852
 9660TIP3    H150471   6.738   1.677   3.117 -0.9927 -0.4135 -0.5113
 9660TIP3    H250472   6.796   1.545   3.070 -1.6156 -0.9596  0.2154
 9661TIP3   OH250473   3.338   6.611   4.817  0.0548 -1.0398  0.1697
 9661TIP3    H150474   3.403   6.679   4.798  0.9049 -2.0721 -0.7392
 9661TIP3    H250475   3.372   6.567   4.896  1.7014 -2.9737 -1.4909
 9662TIP3   OH250476   1.231   0.995  16.762  0.3909  0.5910  0.2907
 9662TIP3    H150477   1.289   0.940  16.814  1.0485 -0.8715 -1.8691
 9662TIP3    H250478   1.150   0.944  16.754  0.5862  0.4317 -0.7625
 9663TIP3   OH250479   2.855   0.401  13.551 -0.0499  0.5010 -0.5855
 9663TIP3    H150480   2.764   0.396  13.577  0.7439 -2.1147  2.2818
 9663TIP3    H250481   2.861   0.349  13.472 -0.9106 -0.0081 -0.3198
 9664TIP3   OH250482   3.477   0.911  17.115  0.4090 -0.5095 -0.2936
 9664TIP3    H150483   3.479   1.006  17.125  0.2033 -0.3573 -1.4777
 9664TIP3    H250484   3.523   0.877  17.192  0.1761  0.5286  0.3181
 9665TIP3   OH250485   5.456   3.879   2.867 -0.7168 -0.1840 -0.3340
 9665TIP3    H150486   5.371   3.915   2.842 -0.4187  0.6318 -0.2219
 9665TIP3    H250487   5.499   3.858   2.784 -1.5085 -1.7977 -0.3639
 9666TIP3   OH250488   0.080   0.648  13.652 -0.2634  0.3652 -0.1381
 9666TIP3    H150489   0.128   0.586  13.597 -1.1094 -0.2324 -0.2188
 9666TIP3    H250490   0.078   0.728  13.601 -0.3654  0.0466 -0.6397
 9667TIP3   OH250491   3.159   3.894  16.213  0.5529  0.2155 -0.1418
 9667TIP3    H150492   3.237   3.949  16.206  0.2918  0.4450 -1.8152
 9667TIP3    H250493   3.101   3.927  16.144  0.1855 -1.8176 -0.8682
 9668TIP3   OH250494   1.766   1.820  11.801  0.1381 -0.3781 -0.3504
 9668TIP3    H150495   1.731   1.742  11.844  0.6142  0.4862  1.7571
 9668TIP3    H250496   1.858   1.822  11.826  0.1140  0.8807 -0.2930
 9669TIP3   OH250497   2.477   3.657  12.179  0.0470 -0.2538 -0.2170
 9669TIP3    H150498   2.415   3.610  12.235  0.8443  1.7689  2.5470
 9669TIP3    H250499   2.424   3.725  12.137  0.0176  0.4085  0.8424
 9670TIP3   OH250500   3.806   4.457  13.891  0.1082  0.4054  0.5669
 9670TIP3    H150501   3.895   4.462  13.856 -0.3559  2.7577 -0.4370
 9670TIP3    H250502   3.818   4.434  13.983  1.6137 -1.2832  0.0028
 9671TIP3   OH250503   1.532   4.069   2.816 -0.2292 -0.2351  0.0566
 9671TIP3    H150504   1.479   3.990   2.817 -0.3114 -0.1929  1.4398
 9671TIP3    H250505   1.614   4.043   2.776 -0.4081 -0.9136  0.1278
 9672TIP3   OH250506   5.261   0.937  16.539  0.0350  0.3076 -0.0988
 9672TIP3    H150507   5.312   0.863  16.507 -1.1569 -0.4391 -0.3307
 9672TIP3    H250508   5.194   0.898  16.596 -0.9825  1.1152 -0.6875
 9673TIP3   OH250509   4.018   1.508  15.364  0.1777  0.0550  0.7472
 9673TIP3    H150510   4.003   1.590  15.412  0.2570  1.0628 -0.8937
 9673TIP3    H250511   4.085   1.529  15.300 -2.5054 -0.1275 -2.3675
 9674TIP3   OH250512   4.354   4.483   2.672  0.3846 -0.3895 -0.0551
 9674TIP3    H150513   4.267   4.514   2.698  1.0414  1.2909  0.2813
 9674TIP3    H250514   4.376   4.416   2.736 -0.9600 -1.3957 -0.6008
 9675TIP3   OH250515   2.316   4.249  13.913  0.2744 -1.2408 -0.5749
 9675TIP3    H150516   2.291   4.209  13.830 -2.5450 -1.8044  0.4308
 9675TIP3    H250517   2.326   4.342  13.893 -1.4390 -1.2002 -1.3616
 9676TIP3   OH250518   5.046   5.537   0.530 -0.2151 -0.1219  0.1874
 9676TIP3    H150519   4.977   5.480   0.565 -0.4071  1.3536  2.4153
 9676TIP3    H250520   4.999   5.610   0.490  0.0222  0.5749  1.1508
 9677TIP3   OH250521   0.082   2.806  13.315  0.6620 -0.3321 -0.0865
 9677TIP3    H150522  -0.012   2.790  13.305  1.2523 -3.0003 -3.4169
 9677TIP3    H250523   0.114   2.729  13.363  1.3117 -0.1433 -0.2098
 9678TIP3   OH250524   0.243   5.387  16.616  0.0833 -0.4960  0.3404
 9678TIP3    H150525   0.205   5.307  16.652  2.1653 -1.9355 -0.5011
 9678TIP3    H250526   0.218   5.387  16.524  0.9381 -0.7472  0.0973
 9679TIP3   OH250527   1.418   5.254   0.593 -0.3367 -0.1462  0.2677
 9679TIP3    H150528   1.491   5.243   0.532  0.8140  1.3429  1.2920
 9679TIP3    H250529   1.443   5.203   0.670  0.0304  0.9702  0.9175
 9680TIP3   OH250530   0.492   3.664  11.481 -0.0183  0.8880 -1.1270
 9680TIP3    H150531   0.439   3.735  11.517  0.7247  0.4990  0.8112
 9680TIP3    H250532   0.582   3.695  11.486  0.3450 -0.2513 -0.0202
 9681TIP3   OH250533   2.546   5.252   3.642 -0.1563  0.3525  0.1750
 9681TIP3    H150534   2.600   5.329   3.658 -0.4158  0.3564  1.0980
 9681TIP3    H250535   2.586   5.183   3.696  0.2757 -0.2633 -0.8986
 9682TIP3   OH250536   0.121   1.443  16.510 -0.2523 -0.8824  0.5260
 9682TIP3    H150537   0.033   1.416  16.484 -0.4566 -0.6389  0.9582
 9682TIP3    H250538   0.174   1.432  16.431 -0.0551 -3.6431  0.9455
 9683TIP3   OH250539   1.711   2.259  12.042  0.3551  0.2328 -0.4512
 9683TIP3    H150540   1.682   2.220  11.960 -0.5094  0.0159 -0.0477
 9683TIP3    H250541   1.736   2.184  12.096 -1.0084  0.2298  0.2103
 9684TIP3   OH250542   0.750   0.624  13.761 -0.0392 -0.3677 -0.0182
 9684TIP3    H150543   0.691   0.593  13.692 -1.0040  0.3417  0.4736
 9684TIP3    H250544   0.766   0.716  13.739 -0.2392 -0.1772  0.6171
 9685TIP3   OH250545   1.095   4.834  11.535 -0.1119 -0.2347 -0.0964
 9685TIP3    H150546   1.100   4.891  11.459 -0.6198 -0.4051 -0.2627
 9685TIP3    H250547   1.176   4.850  11.583 -0.0934  0.3619 -0.3233
 9686TIP3   OH250548   2.142   1.376   5.553 -0.1940  0.5149 -0.3712
 9686TIP3    H150549   2.132   1.289   5.593  1.8287  1.0993  1.6142
 9686TIP3    H250550   2.097   1.436   5.613  1.1824  1.1921  0.0105
 9687TIP3   OH250551   4.527   2.137   5.199  0.0121 -0.3954  0.0858
 9687TIP3    H150552   4.502   2.165   5.111 -1.5638  1.8037  1.1470
 9687TIP3    H250553   4.617   2.170   5.211  0.4660 -1.2355 -0.8661
 9688TIP3   OH250554   4.936   0.958  11.756 -0.0503 -0.6741  0.3174
 9688TIP3    H150555   4.899   1.010  11.684 -2.0870 -1.2810  0.8697
 9688TIP3    H250556   5.026   0.941  11.729 -0.1098  0.9530 -1.0674
 9689TIP3   OH250557   1.962   0.390  11.218  0.1515 -0.0656 -0.0255
 9689TIP3    H150558   2.049   0.399  11.257  0.2731 -0.9769 -0.0469
 9689TIP3    H250559   1.948   0.470  11.169 -0.7182  1.9741  3.2239
 9690TIP3   OH250560   6.364   2.771  14.088  0.0192  0.1075  0.1948
 9690TIP3    H150561   6.434   2.808  14.140 -0.2126  2.6679 -1.1582
 9690TIP3    H250562   6.380   2.805  13.999 -2.7772  0.6398 -0.1907
 9691TIP3   OH250563   4.806   0.403  16.182  0.2286  0.1214  0.0145
 9691TIP3    H150564   4.831   0.315  16.208 -1.2011 -0.4227 -0.3607
 9691TIP3    H250565   4.730   0.424  16.237  0.7973  1.2994  0.3987
 9692TIP3   OH250566   3.249   4.238  13.175  0.1295 -0.4157 -0.0968
 9692TIP3    H150567   3.246   4.143  13.177 -1.5918 -0.4204 -0.7894
 9692TIP3    H250568   3.234   4.265  13.266 -0.7881 -0.8221 -0.1153
 9693TIP3   OH250569   6.056   0.046  14.806 -0.7718 -0.3242  0.6117
 9693TIP3    H150570   6.141   0.003  14.816 -1.2685 -0.8546  2.9638
 9693TIP3    H250571   6.012  -0.004  14.738 -0.2487 -1.7681  1.3095
 9694TIP3   OH250572   4.758   3.668  13.105 -0.0666  0.1972 -0.0915
 9694TIP3    H150573   4.845   3.666  13.065  0.2780  1.3232  0.5662
 9694TIP3    H250574   4.735   3.761  13.108 -0.7437  0.0105  0.9016
 9695TIP3   OH250575   3.192   4.489   3.682 -0.0156 -0.0255 -0.3186
 9695TIP3    H150576   3.096   4.496   3.686 -0.1810 -2.0715  0.3319
 9695TIP3    H250577   3.212   4.490   3.588 -0.7716 -0.6250 -0.4969
 9696TIP3   OH250578   2.273   0.336  16.498  0.0495  0.3901 -0.2372
 9696TIP3    H150579   2.336   0.345  16.570  0.3326 -0.9582 -0.2966
 9696TIP3    H250580   2.308   0.265  16.444 -0.7184  0.6673 -1.1294
 9697TIP3   OH250581   2.475   6.483  16.063 -0.7291  0.8898 -0.2507
 9697TIP3    H150582   2.540   6.423  16.026 -2.1991  0.2545 -1.9230
 9697TIP3    H250583   2.510   6.506  16.149  1.7501  0.6363 -1.1070
 9698TIP3   OH250584   4.738   4.815  11.514 -0.0673 -0.1662 -0.1483
 9698TIP3    H150585   4.672   4.876  11.546  1.0705  0.5045  1.0001
 9698TIP3    H250586   4.740   4.830  11.419 -3.6183 -2.3128 -0.7650
 9699TIP3   OH250587   3.510   3.642   4.998  0.4508 -0.4756 -0.3786
 9699TIP3    H150588   3.553   3.727   4.989  0.3102 -0.4771 -1.0913
 9699TIP3    H250589   3.498   3.632   5.092 -2.0224  1.5576 -0.3576
 9700TIP3   OH250590   0.004   2.836  16.717 -0.0977  0.3901  0.6310
 9700TIP3    H150591  -0.082   2.805  16.692 -0.2953 -0.9282  2.7620
 9700TIP3    H250592   0.040   2.875  16.636 -1.5751 -1.4467 -0.9992
 9701TIP3   OH250593   2.325   2.140  13.107 -0.3856 -0.1822  0.1135
 9701TIP3    H150594   2.410   2.097  13.096 -0.3076 -0.1796  0.6988
 9701TIP3    H250595   2.340   2.207  13.174 -0.3663  1.1484 -1.1496
 9702TIP3   OH250596   1.997   2.175  12.282 -0.5041 -0.0607  0.8393
 9702TIP3    H150597   1.915   2.137  12.315 -0.3604 -0.2805  0.9473
 9702TIP3    H250598   2.058   2.101  12.279 -0.8551 -0.3251 -1.1152
 9703TIP3   OH250599   2.035   1.779  15.941 -0.5916 -0.3226 -0.4104
 9703TIP3    H150600   2.106   1.716  15.956  0.1157  0.9594  2.0773
 9703TIP3    H250601   1.979   1.772  16.018  0.6737  3.4324  1.0909
 9704TIP3   OH250602   1.847   2.348  14.850  0.4026  0.0153 -0.4995
 9704TIP3    H150603   1.872   2.439  14.837 -1.8289  0.5794 -1.2619
 9704TIP3    H250604   1.795   2.349  14.931  1.2842 -0.8077  0.1083
 9705TIP3   OH250605   4.495   1.313   3.480  0.4216 -0.0885  0.1718
 9705TIP3    H150606   4.549   1.320   3.559  0.5822  1.6611 -0.0517
 9705TIP3    H250607   4.478   1.404   3.455 -0.8484 -0.6184 -0.9843
 9706TIP3   OH250608   1.124   6.741   3.794  0.6414 -0.0652 -0.4122
 9706TIP3    H150609   1.068   6.728   3.717 -1.1039  0.5562  0.6713
 9706TIP3    H250610   1.115   6.834   3.815  1.1108 -0.2103  0.5072
 9707TIP3   OH250611   0.786   2.019   4.104  0.0077 -0.0454 -0.3798
 9707TIP3    H150612   0.835   2.079   4.047  0.0577 -1.7463 -2.2137
 9707TIP3    H250613   0.695   2.032   4.081 -0.6627  3.1936  3.1110
 9708TIP3   OH250614   4.143   0.615  16.309  0.0310  0.4084 -0.0782
 9708TIP3    H150615   4.198   0.578  16.378  0.0591 -0.3466 -0.4889
 9708TIP3    H250616   4.077   0.549  16.293 -0.5332  0.9768 -0.1401
 9709TIP3   OH250617   0.121   4.448   5.542  0.2271 -0.1361 -0.1469
 9709TIP3    H150618   0.182   4.482   5.607 -0.4675  1.5039 -0.3113
 9709TIP3    H250619   0.144   4.493   5.461 -0.6229 -0.1686 -0.4161
 9710TIP3   OH250620   5.981   6.256  15.113  0.3345  0.2043  0.6384
 9710TIP3    H150621   5.922   6.268  15.187 -0.6621  1.0955 -0.2638
 9710TIP3    H250622   6.047   6.325  15.124  2.7417 -2.2537  2.9724
 9711TIP3   OH250623   3.425   3.044   1.555  0.5673 -0.2840 -0.0798
 9711TIP3    H150624   3.411   2.960   1.599 -0.9426 -0.1721 -0.3174
 9711TIP3    H250625   3.517   3.065   1.574  1.0461 -2.0869 -0.2172
 9712TIP3   OH250626   0.886   5.788  12.182  0.2096 -0.5490 -0.0543
 9712TIP3    H150627   0.954   5.850  12.152  0.7706  0.0623  2.2840
 9712TIP3    H250628   0.821   5.844  12.224 -0.7318 -1.3360 -0.4522
 9713TIP3   OH250629   0.968   3.066   0.470  0.2218  0.6531 -0.2174
 9713TIP3    H150630   0.910   3.032   0.402 -0.3341 -0.1439  0.6336
 9713TIP3    H250631   1.016   3.137   0.427  1.1274 -0.9297 -1.9588
 9714TIP3   OH250632   0.345   4.507  16.903  0.4612 -0.2154  0.0003
 9714TIP3    H150633   0.355   4.501  16.998  1.7961 -0.8871 -0.1541
 9714TIP3    H250634   0.434   4.522  16.871  0.2067 -1.1741 -1.2111
 9715TIP3   OH250635   0.962   6.023   3.883 -0.1694  0.4179  0.0027
 9715TIP3    H150636   0.885   6.014   3.827  0.2211 -1.2614 -0.3309
 9715TIP3    H250637   0.932   5.990   3.968 -0.3231  1.5117  0.3865
 9716TIP3   OH250638   2.300   0.353  15.628  0.3693  0.1041 -0.2785
 9716TIP3    H150639   2.243   0.291  15.674 -0.8014  2.1365  1.1463
 9716TIP3    H250640   2.279   0.438  15.666  2.4160  1.3194 -1.6755
 9717TIP3   OH250641   5.440   2.979   2.982 -0.4446 -0.5757  0.1440
 9717TIP3    H150642   5.385   3.028   2.921  0.7357  0.0371 -0.4716
 9717TIP3    H250643   5.383   2.959   3.056 -1.5341 -0.1445 -0.5588
 9718TIP3   OH250644   2.529   4.011  12.914 -0.0306 -0.2955 -0.6322
 9718TIP3    H150645   2.568   4.095  12.938 -0.8005 -0.3381  0.8747
 9718TIP3    H250646   2.438   4.032  12.896 -0.0246 -0.6778 -1.1127
 9719TIP3   OH250647   3.499   0.025   4.790 -0.0067 -0.1237  0.1024
 9719TIP3    H150648   3.546   0.038   4.707 -0.4557 -1.3106 -0.3600
 9719TIP3    H250649   3.417   0.072   4.778 -0.3111 -0.7506 -0.3612
 9720TIP3   OH250650   2.306   0.004  15.573 -0.1637  0.1908  0.0568
 9720TIP3    H150651   2.400  -0.014  15.578 -0.3560 -1.1601 -0.6596
 9720TIP3    H250652   2.287   0.007  15.479 -1.0054 -0.6070  0.1831
 9721TIP3   OH250653   2.880   3.027   2.474 -0.1111 -0.4108  0.7921
 9721TIP3    H150654   2.884   3.119   2.499 -2.4383 -0.0265 -0.0505
 9721TIP3    H250655   2.937   3.020   2.398  0.8368  0.0867  1.4309
 9722TIP3   OH250656   3.246   5.089   5.229 -0.0372 -0.6470 -0.2745
 9722TIP3    H150657   3.315   5.057   5.286  1.9855  1.3745 -1.4297
 9722TIP3    H250658   3.243   5.184   5.245 -0.5513 -0.2604 -2.2867
 9723TIP3   OH250659   1.588   5.185   5.267  0.3420 -0.0154 -0.3919
 9723TIP3    H150660   1.576   5.119   5.336  0.5497  0.7431  0.3870
 9723TIP3    H250661   1.664   5.236   5.296  0.9709 -0.2135 -1.6193
 9724TIP3   OH250662   1.009   2.154   0.680 -0.3959 -0.5697 -0.4174
 9724TIP3    H150663   1.088   2.175   0.630 -0.0226 -2.1803 -0.5335
 9724TIP3    H250664   1.012   2.214   0.755  1.6619 -1.5016  0.3185
 9725TIP3   OH250665   3.024   3.298   2.943 -0.3542 -0.6455  0.2527
 9725TIP3    H150666   3.068   3.323   3.025 -1.5299  0.1034  0.6876
 9725TIP3    H250667   3.000   3.382   2.903 -0.3887 -1.0242 -0.5355
 9726TIP3   OH250668   4.232   2.668  12.690 -0.4677  0.0224 -0.4304
 9726TIP3    H150669   4.190   2.593  12.648 -0.2817 -1.7146  2.2439
 9726TIP3    H250670   4.169   2.740  12.680 -0.7473 -0.5027 -2.8741
 9727TIP3   OH250671   0.342   6.169  14.862 -0.0190  0.4399  0.8888
 9727TIP3    H150672   0.289   6.231  14.812 -1.1447 -0.4191  0.9584
 9727TIP3    H250673   0.278   6.126  14.920  0.8701 -0.2003  1.4100
 9728TIP3   OH250674   6.194   0.831   3.955 -0.6223 -0.6493  0.7767
 9728TIP3    H150675   6.119   0.833   3.895  0.1178  0.7135 -0.1596
 9728TIP3    H250676   6.265   0.871   3.905  0.3297 -0.5288  2.1810
 9729TIP3   OH250677   5.896   0.096   4.679  0.4831 -0.1034  0.2426
 9729TIP3    H150678   5.865   0.156   4.748 -0.2176 -2.5406  2.2005
 9729TIP3    H250679   5.991   0.094   4.691  0.3906 -0.3313  1.0092
 9730TIP3   OH250680   4.308   3.950   4.912 -0.4964 -0.1943 -0.3780
 9730TIP3    H150681   4.230   3.930   4.964 -0.1814  0.8241  0.5245
 9730TIP3    H250682   4.375   3.974   4.976  0.8794 -1.9613 -1.0841
 9731TIP3   OH250683   6.213   4.157  11.426 -0.0520 -0.3902 -0.1792
 9731TIP3    H150684   6.230   4.064  11.415  1.1294 -0.2082  0.0805
 9731TIP3    H250685   6.162   4.163  11.506  0.3353 -0.7635  0.0954
 9732TIP3   OH250686   4.795   4.386  13.205 -0.1300  0.5528  0.0582
 9732TIP3    H150687   4.786   4.437  13.124 -1.5307 -1.3060 -1.0349
 9732TIP3    H250688   4.890   4.377  13.216  0.0923  0.8371 -1.3841
 9733TIP3   OH250689   0.084   4.168   5.532 -0.5539  0.6960  0.4253
 9733TIP3    H150690   0.167   4.151   5.576  1.6298  2.0158 -2.8245
 9733TIP3    H250691   0.083   4.263   5.520 -0.9527  0.4069 -2.3212
 9734TIP3   OH250692   2.415   4.740  16.926  0.2063 -0.0005  0.2056
 9734TIP3    H150693   2.402   4.658  16.878 -1.9359  1.1205 -1.3482
 9734TIP3    H250694   2.367   4.727  17.008  0.5443 -0.5629  0.3201
 9735TIP3   OH250695   6.038   3.783  10.628  0.1711  0.2180  0.1103
 9735TIP3    H150696   6.078   3.722  10.566  0.8310 -0.5660  1.2741
 9735TIP3    H250697   6.112   3.825  10.672 -0.2729  0.2565  0.8449
 9736TIP3   OH250698   6.594   4.455   0.158  0.1030 -0.1810 -0.2514
 9736TIP3    H150699   6.656   4.516   0.197  0.2489 -0.0553 -0.6705
 9736TIP3    H250700   6.521   4.452   0.220  0.5236 -0.3291  0.2442
 9737TIP3   OH250701   6.659   0.791   0.889 -0.0474  0.4245 -0.1482
 9737TIP3    H150702   6.632   0.827   0.805 -1.0067 -3.0256 -1.4863
 9737TIP3    H250703   6.578   0.788   0.941 -0.1339 -0.4295 -0.3242
 9738TIP3   OH250704   2.703   6.579  16.544  0.1457  0.5855 -0.1616
 9738TIP3    H150705   2.760   6.506  16.521 -1.2112 -0.4264 -0.4489
 9738TIP3    H250706   2.711   6.586  16.639 -0.3249 -0.4973 -0.0204
 9739TIP3   OH250707   3.080   4.058   0.851  0.6659 -0.0920  0.3389
 9739TIP3    H150708   3.076   4.154   0.846 -0.0601 -0.1687 -1.3701
 9739TIP3    H250709   2.997   4.032   0.891 -0.5063 -0.0919 -1.9427
 9740TIP3   OH250710   1.397   5.014   3.241 -0.5011  0.2950  0.4255
 9740TIP3    H150711   1.345   5.005   3.161  0.1749  0.7206 -0.0696
 9740TIP3    H250712   1.401   4.926   3.277 -1.2906  0.1959  0.3052
 9741TIP3   OH250713   2.967   1.837   5.568  0.0074 -0.4618 -0.5095
 9741TIP3    H150714   2.916   1.911   5.537 -0.7095 -0.8238 -0.2264
 9741TIP3    H250715   3.053   1.848   5.529 -0.3687  0.0190 -1.2110
 9742TIP3   OH250716   5.569   4.874   1.335  0.1427 -0.4783  0.1477
 9742TIP3    H150717   5.500   4.875   1.269  1.2017  0.8479 -0.9927
 9742TIP3    H250718   5.640   4.824   1.294  0.2650 -0.9444  0.9025
 9743TIP3   OH250719   6.824   0.829  14.202 -0.3533  0.1393 -0.3264
 9743TIP3    H150720   6.857   0.770  14.134 -0.4834 -2.4314  1.6584
 9743TIP3    H250721   6.740   0.791  14.228  0.5249 -0.1159  2.4637
 9744TIP3   OH250722   4.279   6.222  16.376 -0.5042 -0.7573 -0.3463
 9744TIP3    H150723   4.287   6.150  16.314 -0.1752 -0.1466 -1.0259
 9744TIP3    H250724   4.368   6.257  16.383 -0.6462 -0.4701  0.0467
 9745TIP3   OH250725   2.047   6.183   6.056 -0.0819 -0.0955  0.2447
 9745TIP3    H150726   2.118   6.163   6.116  0.0809  1.5309  0.6399
 9745TIP3    H250727   2.085   6.244   5.993 -1.0085  0.4889  0.2272
 9746TIP3   OH250728   0.603   0.827  16.207  0.3712 -1.1952  0.5467
 9746TIP3    H150729   0.548   0.888  16.158  0.6581 -1.1283  0.2999
 9746TIP3    H250730   0.677   0.810  16.148  0.5185 -1.4274  0.7976
 9747TIP3   OH250731   1.588   1.467  14.048  0.7610  0.1782  0.2978
 9747TIP3    H150732   1.655   1.404  14.024  0.4720  0.4785 -1.4319
 9747TIP3    H250733   1.532   1.421  14.110  0.5773 -1.2715 -0.9045
 9748TIP3   OH250734   5.490   3.061   5.402 -0.7054 -0.1239  0.2316
 9748TIP3    H150735   5.496   3.027   5.491  2.4060  2.3604  1.1377
 9748TIP3    H250736   5.396   3.063   5.384 -1.3284 -3.2079  2.3535
 9749TIP3   OH250737   2.326   6.044  15.794 -0.0999 -0.1401 -0.0923
 9749TIP3    H150738   2.241   6.066  15.833 -1.3547 -0.5148 -2.4702
 9749TIP3    H250739   2.355   6.124  15.751 -0.2140 -0.5394 -0.9383
 9750TIP3   OH250740   5.816   4.009  16.663  0.2663 -0.2468 -0.1719
 9750TIP3    H150741   5.858   4.045  16.742  0.2954 -0.4583 -0.0883
 9750TIP3    H250742   5.760   3.939  16.696  0.3632 -0.4087 -0.3508
 9751TIP3   OH250743   5.822   5.574  16.828  0.4131  0.1760  0.3304
 9751TIP3    H150744   5.757   5.588  16.896 -0.5387  0.3935 -0.6046
 9751TIP3    H250745   5.813   5.649  16.770  0.7730 -0.3151 -0.3852
 9752TIP3   OH250746   2.055   1.045   2.143  0.0921 -0.3877 -0.4344
 9752TIP3    H150747   2.120   0.993   2.095  0.5519  1.0310 -1.3953
 9752TIP3    H250748   2.104   1.083   2.216  0.0725 -0.1930 -0.5242
 9753TIP3   OH250749   0.108   5.041  10.841 -0.1418 -0.0485 -0.3219
 9753TIP3    H150750   0.151   4.963  10.806 -0.4995  0.1959 -1.3282
 9753TIP3    H250751   0.057   5.075  10.768  1.3545  2.1254 -0.4433
 9754TIP3   OH250752   4.005   2.557  13.868 -0.2988 -0.1215  0.3046
 9754TIP3    H150753   4.099   2.556  13.847 -0.4430  1.7610 -0.5628
 9754TIP3    H250754   3.962   2.579  13.786 -1.4653 -0.3448  0.8379
 9755TIP3   OH250755   3.647   0.631   5.099 -0.1004 -0.5119  0.5747
 9755TIP3    H150756   3.672   0.616   5.008  3.2327 -0.0592  1.2704
 9755TIP3    H250757   3.587   0.705   5.096  0.1968 -0.3032 -1.2469
 9756TIP3   OH250758   2.734   5.151   0.091  0.2898 -0.5020  0.0942
 9756TIP3    H150759   2.701   5.226   0.042  1.1075 -0.6428 -0.6941
 9756TIP3    H250760   2.712   5.075   0.038 -3.1056 -1.1922  2.2060
 9757TIP3   OH250761   6.036   4.498  16.129  0.2320 -0.1179  0.0058
 9757TIP3    H150762   6.031   4.458  16.042  1.3198 -0.0516 -0.0994
 9757TIP3    H250763   5.980   4.443  16.184 -0.7353  0.0408 -0.7971
 9758TIP3   OH250764   3.924   1.534  16.041 -0.9814 -0.2112  0.6060
 9758TIP3    H150765   3.980   1.522  16.118 -0.7090  0.3066  0.5010
 9758TIP3    H250766   3.898   1.446  16.015 -1.5325 -0.3612  1.6212
 9759TIP3   OH250767   6.212   4.573  16.849  0.1419 -0.1808 -0.2840
 9759TIP3    H150768   6.263   4.568  16.768  1.2236 -0.1752  0.3828
 9759TIP3    H250769   6.172   4.659  16.847 -0.0914 -0.3023 -0.9631
 9760TIP3   OH250770   0.172   5.902  16.230  0.5290  0.7878  0.0549
 9760TIP3    H150771   0.108   5.834  16.207  2.2271 -1.4391  1.4684
 9760TIP3    H250772   0.119   5.975  16.262 -1.3469 -0.7072  0.5546
 9761TIP3   OH250773   3.322   3.428   5.111  0.3120  0.4138 -0.0486
 9761TIP3    H150774   3.371   3.413   5.030 -0.1765 -1.1527 -0.0909
 9761TIP3    H250775   3.328   3.522   5.126 -0.5361  0.9322 -2.5199
 9762TIP3   OH250776   3.223   6.063   3.981  0.0579  0.0606  0.0140
 9762TIP3    H150777   3.151   6.127   3.975 -0.5372 -0.4257  1.5283
 9762TIP3    H250778   3.276   6.093   4.054  0.3345 -0.6291  0.1020
 9763TIP3   OH250779   1.718   0.338  12.541  0.3550  0.2993 -0.8084
 9763TIP3    H150780   1.700   0.369  12.452  0.3276  0.9967 -0.5644
 9763TIP3    H250781   1.736   0.244  12.530 -1.4265 -0.0147 -1.3166
 9764TIP3   OH250782   0.606   5.615   5.825  0.1631  0.3300  0.0057
 9764TIP3    H150783   0.549   5.539   5.818 -0.6808  0.9562 -0.1127
 9764TIP3    H250784   0.603   5.640   5.917  0.3863  0.2616  0.0323
 9765TIP3   OH250785   6.453   6.034   4.026  0.3990 -0.0494  0.5626
 9765TIP3    H150786   6.427   5.960   4.081 -1.0374 -0.7840 -1.0021
 9765TIP3    H250787   6.385   6.100   4.042 -0.2097 -0.3944 -0.5360
 9766TIP3   OH250788   0.214   2.958   2.610 -0.0874 -0.2284  0.3146
 9766TIP3    H150789   0.260   3.035   2.642  0.4421  0.3339 -1.6529
 9766TIP3    H250790   0.226   2.892   2.678  1.2143  0.7914  1.0991
 9767TIP3   OH250791   1.324   5.189   1.034 -0.0972 -0.4399  0.2891
 9767TIP3    H150792   1.256   5.123   1.026  0.3830 -0.8302 -0.7514
 9767TIP3    H250793   1.285   5.257   1.089 -0.8774 -1.2079  0.7237
 9768TIP3   OH250794   1.827   2.161   3.702 -0.0256 -0.3167 -0.3325
 9768TIP3    H150795   1.838   2.178   3.796  0.0332 -1.8183 -0.0524
 9768TIP3    H250796   1.851   2.069   3.691 -2.2679 -0.8372 -1.4313
 9769TIP3   OH250797   1.191   2.294   6.014  0.1164 -0.2669  0.6005
 9769TIP3    H150798   1.217   2.260   6.100 -0.1260 -1.1714  0.3304
 9769TIP3    H250799   1.176   2.388   6.029  1.0647 -0.2114  1.3120
 9770TIP3   OH250800   4.409   0.405  13.861 -0.5198  0.1569 -0.3315
 9770TIP3    H150801   4.484   0.439  13.910 -0.0367  0.5260 -1.3087
 9770TIP3    H250802   4.382   0.327  13.911  0.2553  0.2507  0.2594
 9771TIP3   OH250803   0.935   1.761  15.127  0.4107 -0.3756  0.4180
 9771TIP3    H150804   0.897   1.678  15.096 -0.3781 -0.1671  0.7936
 9771TIP3    H250805   0.932   1.754  15.223  2.0455 -0.6689  0.4641
 9772TIP3   OH250806   3.057   1.607  15.427  0.1163 -0.3339  0.1024
 9772TIP3    H150807   3.047   1.574  15.516  1.0330 -2.5151 -0.5219
 9772TIP3    H250808   3.149   1.633  15.421  0.1108 -0.3800 -0.2460
 9773TIP3   OH250809   6.205   4.316   1.486 -0.1130  0.3313 -0.1169
 9773TIP3    H150810   6.245   4.402   1.500  0.1874  0.2348 -0.3749
 9773TIP3    H250811   6.170   4.292   1.572 -0.1436  0.6846 -0.0296
 9774TIP3   OH250812   3.451   4.368  12.768  0.1770  0.2970 -0.4574
 9774TIP3    H150813   3.465   4.337  12.858  1.4377 -1.7535 -1.3068
 9774TIP3    H250814   3.399   4.448  12.779 -0.9102 -0.6387  2.0158
 9775TIP3   OH250815   0.808   0.945  12.173  0.1562 -0.3436  0.8870
 9775TIP3    H150816   0.863   1.015  12.208 -1.6149  1.4418  0.3376
 9775TIP3    H250817   0.745   0.927  12.242 -0.7638  0.2193  0.2168
 9776TIP3   OH250818   4.715   3.022  11.906 -0.5808  0.0535  0.2823
 9776TIP3    H150819   4.731   2.966  11.982  1.2347  0.8466  0.5278
 9776TIP3    H250820   4.660   2.969  11.848  0.7703 -1.8527  0.6560
 9777TIP3   OH250821   6.324   3.628  14.466 -0.6178 -0.3063 -0.3238
 9777TIP3    H150822   6.286   3.613  14.552 -0.0277  2.2077  0.4604
 9777TIP3    H250823   6.401   3.683  14.483 -0.7145  0.6007 -2.4566
 9778TIP3   OH250824   4.147   6.534   0.163  0.2243 -0.0592  0.4410
 9778TIP3    H150825   4.073   6.563   0.217 -1.3965  0.0941 -1.7121
 9778TIP3    H250826   4.178   6.614   0.121  0.6374 -0.3471  0.1976
 9779TIP3   OH250827   1.910   4.859  15.004  0.0664 -0.5746 -0.2525
 9779TIP3    H150828   1.939   4.881  14.916  1.6068 -1.7966 -0.0931
 9779TIP3    H250829   1.974   4.900  15.062 -0.1400 -0.9266  0.2408
 9780TIP3   OH250830   6.316   5.655   1.113 -0.4113 -0.5020  0.0531
 9780TIP3    H150831   6.393   5.706   1.088 -1.2645  0.1524 -1.4180
 9780TIP3    H250832   6.339   5.615   1.196  2.1214 -1.5912 -1.0655
 9781TIP3   OH250833   4.872   2.496   4.793 -0.1004  0.4004 -0.1864
 9781TIP3    H150834   4.860   2.415   4.744  1.6052  0.3354 -0.5772
 9781TIP3    H250835   4.876   2.565   4.726 -1.6410  0.8537  0.1483
 9782TIP3   OH250836   3.928   6.637  16.850  0.7097 -0.4234 -0.5745
 9782TIP3    H150837   4.017   6.673  16.842  0.2065  0.4823 -2.8442
 9782TIP3    H250838   3.941   6.547  16.879  2.2342  0.2226  0.9737
 9783TIP3   OH250839   1.904   5.043  10.787  0.3321 -0.4850  0.3107
 9783TIP3    H150840   1.907   5.053  10.692  1.1183 -1.0367  0.2667
 9783TIP3    H250841   1.841   4.972  10.801 -1.7100  1.2334  0.3697
 9784TIP3   OH250842   2.330   5.322  15.676  0.2779 -0.1383  0.0439
 9784TIP3    H150843   2.245   5.311  15.634  0.3542 -0.8921  0.0714
 9784TIP3    H250844   2.373   5.392  15.627  0.4490 -1.1380 -1.2726
 9785TIP3   OH250845   6.084   0.190   1.569  0.5393  0.2114 -0.1400
 9785TIP3    H150846   6.124   0.167   1.485  0.8915  1.0461 -0.2109
 9785TIP3    H250847   6.109   0.119   1.627 -1.8486 -1.7699 -1.3321
 9786TIP3   OH250848   6.205   1.159  16.151 -0.1697  0.0289 -0.2960
 9786TIP3    H150849   6.124   1.177  16.198  0.3570 -0.7599  0.9833
 9786TIP3    H250850   6.250   1.243  16.145  0.1628  0.0077  1.4627
 9787TIP3   OH250851   5.949   0.770  11.194 -0.3543  0.1016 -0.5740
 9787TIP3    H150852   5.887   0.840  11.170 -0.6751  0.3294  0.8343
 9787TIP3    H250853   6.035   0.808  11.176 -0.5372  0.7600 -0.0999
 9788TIP3   OH250854   2.007   3.482   4.280  0.1305  0.3522  0.0935
 9788TIP3    H150855   1.963   3.546   4.336  0.6088 -0.4551  1.4396
 9788TIP3    H250856   2.071   3.534   4.231  0.8260  0.8706  1.4963
 9789TIP3   OH250857   5.692   4.769  11.991 -0.2684 -0.6665 -0.2404
 9789TIP3    H150858   5.736   4.853  11.981 -0.4800 -0.0325  3.2034
 9789TIP3    H250859   5.666   4.746  11.901  1.1620  2.1210 -1.5110
 9790TIP3   OH250860   0.120   5.965   3.468  0.0087  0.6031  0.1899
 9790TIP3    H150861   0.103   5.995   3.557  0.8201 -0.0292  0.5756
 9790TIP3    H250862   0.060   6.016   3.413 -0.2218  1.2796  1.0488
 9791TIP3   OH250863   2.808   6.663   3.165 -0.3139 -0.4311 -0.0196
 9791TIP3    H150864   2.784   6.612   3.087 -3.2735 -1.1272  1.2105
 9791TIP3    H250865   2.892   6.625   3.192  0.1520 -1.0423 -2.0988
 9792TIP3   OH250866   3.395   3.465  14.323  0.0640 -0.2754  0.5992
 9792TIP3    H150867   3.300   3.461  14.308 -0.1224  0.5641  1.4319
 9792TIP3    H250868   3.433   3.428  14.243 -0.9365  0.4224 -0.2328
 9793TIP3   OH250869   1.857   6.155  12.325  0.2529  0.0214  0.3282
 9793TIP3    H150870   1.894   6.075  12.288  0.3202  0.6142 -0.9422
 9793TIP3    H250871   1.932   6.213  12.338  0.2150 -0.1364  1.3143
 9794TIP3   OH250872   2.242   2.640  17.105 -0.1060 -0.4422 -0.1506
 9794TIP3    H150873   2.225   2.676  17.018  2.2200 -2.6846 -1.6894
 9794TIP3    H250874   2.155   2.626  17.142 -1.1936  0.2665 -2.2545
 9795TIP3   OH250875   3.719   6.186   4.754 -0.1296 -0.7118 -0.1721
 9795TIP3    H150876   3.797   6.131   4.752  1.3370  1.0379  2.2726
 9795TIP3    H250877   3.746   6.268   4.712  0.1334  0.6184  2.3315
 9796TIP3   OH250878   4.100   0.619  17.111  0.2254 -0.3631  0.0157
 9796TIP3    H150879   4.173   0.669  17.148 -0.8107 -0.7615  2.8331
 9796TIP3    H250880   4.031   0.684  17.097 -0.3193 -0.6050  1.4579
 9797TIP3   OH250881   0.224   3.136   4.556 -0.1487  0.0564  0.4018
 9797TIP3    H150882   0.291   3.181   4.608 -0.5778 -1.0292  1.9642
 9797TIP3    H250883   0.152   3.198   4.550  0.8339  1.1176 -1.0305
 9798TIP3   OH250884   2.201   4.007  11.381 -0.1902  0.7553  0.8143
 9798TIP3    H150885   2.120   3.972  11.345  0.7803  0.1893 -0.9776
 9798TIP3    H250886   2.225   4.079  11.322  1.6493 -0.4431 -0.0070
 9799TIP3   OH250887   4.137   1.099  13.345  0.5726  0.2413 -0.2654
 9799TIP3    H150888   4.141   1.011  13.309  1.0048  0.5869 -1.0646
 9799TIP3    H250889   4.181   1.093  13.430 -1.5307 -0.8557  0.8426
 9800TIP3   OH250890   4.173   2.570  13.427 -0.1873 -0.0253 -0.2309
 9800TIP3    H150891   4.098   2.556  13.368 -1.7492 -3.0619  2.1795
 9800TIP3    H250892   4.227   2.492  13.415  2.2186  1.6942 -1.2241
 9801TIP3   OH250893   0.276   2.748   1.726  0.3976  0.8645 -0.4512
 9801TIP3    H150894   0.368   2.722   1.716 -0.1310 -0.3145 -3.5048
 9801TIP3    H250895   0.227   2.666   1.722 -0.8319  1.4534  1.3042
 9802TIP3   OH250896   4.689   4.419  13.495  0.3529 -0.2749 -0.1383
 9802TIP3    H150897   4.764   4.401  13.438  1.2103 -0.0790  0.8988
 9802TIP3    H250898   4.689   4.348  13.559 -0.9631 -0.8233 -0.7094
 9803TIP3   OH250899   3.895   3.490  14.648  0.4476 -0.0038 -0.0375
 9803TIP3    H150900   3.837   3.541  14.591  0.1270  1.0478  1.1968
 9803TIP3    H250901   3.923   3.417  14.593 -0.9896  0.1862 -1.0929
 9804TIP3   OH250902   2.276   4.099   4.976 -0.2250 -0.7588  0.2965
 9804TIP3    H150903   2.274   4.061   4.888 -1.4631  0.0953 -0.0629
 9804TIP3    H250904   2.293   4.024   5.033  1.8757 -1.1417 -0.7347
 9805TIP3   OH250905   4.093   5.780  15.814 -0.3046  0.4690 -0.0661
 9805TIP3    H150906   4.120   5.764  15.724 -0.0318  0.7694 -0.0392
 9805TIP3    H250907   4.030   5.852  15.808 -0.2385  0.5316 -0.0101
 9806TIP3   OH250908   6.371   4.189   5.367  0.4319  0.6006 -0.5553
 9806TIP3    H150909   6.365   4.191   5.463  1.0179  1.4380 -0.5278
 9806TIP3    H250910   6.282   4.171   5.338  0.7753 -3.4943  0.2089
 9807TIP3   OH250911   2.124   0.704   2.233 -0.2009  0.0265  0.9947
 9807TIP3    H150912   2.075   0.623   2.218  0.0587  0.0665 -0.1778
 9807TIP3    H250913   2.058   0.773   2.225 -0.2687 -0.0145  1.1804
 9808TIP3   OH250914   0.853   0.575   4.536  0.0214 -0.7272  0.2296
 9808TIP3    H150915   0.937   0.592   4.579 -1.0151 -0.2296  2.1632
 9808TIP3    H250916   0.795   0.644   4.568 -0.8443 -0.3554 -2.0013
 9809TIP3   OH250917   2.055   4.389   0.850 -0.2778  0.1872 -0.4106
 9809TIP3    H150918   2.102   4.378   0.767  0.5329  0.0343  0.0470
 9809TIP3    H250919   2.080   4.477   0.880 -1.9102  0.9343 -1.1238
 9810TIP3   OH250920   5.020   6.590  12.163  0.4535 -0.0456  0.9077
 9810TIP3    H150921   5.005   6.587  12.069 -1.1196  1.6654  1.0519
 9810TIP3    H250922   5.000   6.501  12.194  1.4607 -0.7577 -0.3918
 9811TIP3   OH250923   0.506   5.708  10.869 -0.3565 -0.1803 -0.4753
 9811TIP3    H150924   0.527   5.659  10.948  0.2624  0.7195 -0.0617
 9811TIP3    H250925   0.568   5.678  10.803  1.0942  1.1360  0.2208
 9812TIP3   OH250926   5.845   4.921  16.287  0.0151  0.5892  0.4971
 9812TIP3    H150927   5.849   4.905  16.382 -0.0190 -0.0864  0.3893
 9812TIP3    H250928   5.828   5.015  16.279 -0.0876  0.6306  1.1620
 9813TIP3   OH250929   3.901   1.428   5.001  0.0050  0.2149  0.0768
 9813TIP3    H150930   3.946   1.351   4.969  0.4576  0.1924  0.7460
 9813TIP3    H250931   3.923   1.432   5.094 -0.2416  0.9875  0.1124
 9814TIP3   OH250932   4.333   0.461   4.967  0.1536  0.4762 -0.3413
 9814TIP3    H150933   4.321   0.519   5.042 -2.2441 -0.6913  0.2924
 9814TIP3    H250934   4.407   0.406   4.991  0.0417  0.7690  0.7429
 9815TIP3   OH250935   5.923   1.389  11.328  0.4734 -0.4496 -0.2309
 9815TIP3    H150936   5.929   1.460  11.265  1.7379 -1.4703 -1.3187
 9815TIP3    H250937   5.829   1.379  11.344  0.1322 -0.0839 -1.8607
 9816TIP3   OH250938   0.866   1.273   0.246 -0.1347 -0.1477  0.2065
 9816TIP3    H150939   0.950   1.237   0.220 -0.0244  0.8477 -0.8870
 9816TIP3    H250940   0.827   1.306   0.164 -2.3130 -2.0051  0.3697
 9817TIP3   OH250941   1.002   3.096  11.406  0.1919  0.2848  0.4713
 9817TIP3    H150942   0.999   3.177  11.457  0.0837  0.9076 -0.4819
 9817TIP3    H250943   0.928   3.104  11.345  0.5860 -0.2279 -0.0797
 9818TIP3   OH250944   0.270   5.547  15.942  0.2447  0.2264  0.5651
 9818TIP3    H150945   0.204   5.514  16.003 -0.6513  0.4943 -0.2310
 9818TIP3    H250946   0.296   5.632  15.978 -0.1843  0.3252  0.6483
 9819TIP3   OH250947   0.866   3.716   5.916  0.0307  0.5845 -0.2247
 9819TIP3    H150948   0.870   3.777   5.843 -0.0095 -0.1919 -0.8845
 9819TIP3    H250949   0.955   3.715   5.952  0.3095  0.2113 -0.9010
 9820TIP3   OH250950   2.792   6.461  15.192 -0.2498  0.2622  0.4082
 9820TIP3    H150951   2.865   6.427  15.244  0.8408 -2.2367 -2.4540
 9820TIP3    H250952   2.833   6.524  15.132 -1.1323  1.5196  1.0654
 9821TIP3   OH250953   1.802   6.102   5.297 -0.2364 -0.3220  0.4165
 9821TIP3    H150954   1.851   6.118   5.378 -0.9724  1.9476  0.4871
 9821TIP3    H250955   1.714   6.133   5.316 -0.2052  1.1295 -1.5011
 9822TIP3   OH250956   5.694   5.596  17.069  0.3645  0.1815 -0.0609
 9822TIP3    H150957   5.651   5.594  17.155  0.2142  1.2817 -0.1039
 9822TIP3    H250958   5.637   5.650  17.015 -1.4898 -3.2944 -1.9489
 9823TIP3   OH250959   5.106   2.643   1.069 -0.5783 -0.1921 -0.0507
 9823TIP3    H150960   5.069   2.719   1.114 -0.2647  2.2263 -3.3995
 9823TIP3    H250961   5.199   2.644   1.093 -0.8496 -0.4713  1.0631
 9824TIP3   OH250962   4.404   6.026   5.566  0.0305  0.0783 -0.4040
 9824TIP3    H150963   4.414   6.008   5.660  2.2024  0.2198 -0.5647
 9824TIP3    H250964   4.311   6.009   5.549 -0.0780 -1.6163  1.4183
 9825TIP3   OH250965   3.869   4.487   5.407 -0.5277 -0.2525  0.2638
 9825TIP3    H150966   3.816   4.561   5.436  0.0736  0.2812  0.0464
 9825TIP3    H250967   3.869   4.426   5.480  0.8187  0.9818  1.3427
 9826TIP3   OH250968   0.246   6.053  11.173 -0.0142  0.2238 -0.1014
 9826TIP3    H150969   0.231   5.974  11.121  2.0819 -0.0470 -0.3986
 9826TIP3    H250970   0.282   6.020  11.256 -1.0881  0.7873  0.6164
 9827TIP3   OH250971   3.756   4.715  15.400 -0.1559  0.2462  0.2116
 9827TIP3    H150972   3.745   4.637  15.455  0.5725 -0.4298 -0.5631
 9827TIP3    H250973   3.728   4.688  15.313  0.9113  0.5727 -0.2578
 9828TIP3   OH250974   5.509   4.506  14.054  0.4507 -0.0535 -0.2871
 9828TIP3    H150975   5.501   4.419  14.015 -1.7016 -0.5248  1.0480
 9828TIP3    H250976   5.534   4.489  14.145  0.2371  0.7253 -0.0737
 9829TIP3   OH250977   4.050   2.309   2.851  0.0956  0.0306  0.2884
 9829TIP3    H150978   4.050   2.214   2.861 -0.4337 -0.1616 -1.2380
 9829TIP3    H250979   4.091   2.325   2.766 -1.4552  1.0323 -0.3256
 9830TIP3   OH250980   1.474   4.409  16.471 -0.4879  0.5166  0.4792
 9830TIP3    H150981   1.565   4.393  16.446 -0.4993 -1.4525  1.4963
 9830TIP3    H250982   1.479   4.459  16.552 -0.1894 -1.6090  1.8456
 9831TIP3   OH250983   2.802   1.087  10.729  0.3800 -0.1121  0.1324
 9831TIP3    H150984   2.843   1.012  10.771 -1.0666 -0.6194  0.6985
 9831TIP3    H250985   2.875   1.142  10.702  1.4356 -1.2250  0.6235
 9832TIP3   OH250986   0.704   5.861  14.454  0.0745 -0.1392 -0.3083
 9832TIP3    H150987   0.651   5.917  14.397  0.9119  0.6204 -0.3732
 9832TIP3    H250988   0.730   5.919  14.526 -0.8652 -1.0535  0.7852
 9833TIP3   OH250989   6.838   1.777   4.697  0.6127  0.1960 -0.0610
 9833TIP3    H150990   6.771   1.808   4.758  0.9096 -0.9524  0.8941
 9833TIP3    H250991   6.788   1.751   4.619  0.1846  1.2837 -0.1736
 9834TIP3   OH250992   1.244   2.721   0.061 -0.2140  0.4284  0.1931
 9834TIP3    H150993   1.254   2.810   0.027 -2.0719  0.7649  0.4140
 9834TIP3    H250994   1.151   2.701   0.050  0.2696 -1.7822 -0.5175
 9835TIP3   OH250995   5.235   3.184  11.718 -0.2544  0.0768  0.2512
 9835TIP3    H150996   5.145   3.166  11.746  0.0137 -0.6347  0.6826
 9835TIP3    H250997   5.234   3.276  11.691 -1.6074 -0.4341 -1.6799
 9836TIP3   OH250998   6.402   6.313  15.990  0.0237  0.2869  0.1806
 9836TIP3    H150999   6.414   6.334  15.897  0.3673 -2.4913 -0.4959
 9836TIP3    H251000   6.463   6.371  16.035  0.3424  1.2391 -1.3681
 9837TIP3   OH251001   3.375   0.969   1.624 -0.1074 -0.2312 -0.1891
 9837TIP3    H151002   3.427   1.045   1.650  1.1708 -0.7838 -1.0363
 9837TIP3    H251003   3.297   1.007   1.584  1.2048  0.7063 -2.0177
 9838TIP3   OH251004   6.116   1.769   1.108  0.7437 -0.2470  0.4542
 9838TIP3    H151005   6.064   1.695   1.140 -2.6549  2.1401  0.9473
 9838TIP3    H251006   6.123   1.829   1.182 -2.3800  2.8069 -1.4267
 9839TIP3   OH251007   0.553   5.741  11.239 -0.0623  0.0850 -0.4912
 9839TIP3    H151008   0.639   5.752  11.280  0.0222 -1.8182 -0.0625
 9839TIP3    H251009   0.519   5.830  11.230  0.8188  0.7153  1.7904
 9840TIP3   OH251010   5.961   4.165   2.849 -0.4254 -0.5982  0.3697
 9840TIP3    H151011   5.981   4.185   2.757  0.2764  1.5304  0.9116
 9840TIP3    H251012   5.896   4.231   2.874 -0.9579 -1.4463  1.2935
 9841TIP3   OH251013   5.775   1.546  13.312  0.3912 -0.3873 -0.3815
 9841TIP3    H151014   5.805   1.633  13.337 -2.3503  0.6483 -0.2703
 9841TIP3    H251015   5.728   1.560  13.230 -0.5340 -1.6402 -0.0967
 9842TIP3   OH251016   2.073   4.803  14.015  0.0401  0.5006  1.2788
 9842TIP3    H151017   2.112   4.732  13.965  0.0543  0.1496  1.7824
 9842TIP3    H251018   2.053   4.870  13.949 -0.8551 -0.3457  0.6626
 9843TIP3   OH251019   2.794   0.545  12.808  0.0479 -0.0278  0.1720
 9843TIP3    H151020   2.833   0.578  12.889 -2.0392 -0.8818  1.6161
 9843TIP3    H251021   2.825   0.455  12.801 -0.7256 -0.3491  0.7204
 9844TIP3   OH251022   2.139   2.580   2.150 -0.4789 -0.4352  0.1535
 9844TIP3    H151023   2.206   2.516   2.173  0.3535  0.4525  0.2469
 9844TIP3    H251024   2.071   2.567   2.216 -0.3747 -1.2897  0.1038
 9845TIP3   OH251025   0.465   5.404   5.630  0.5694  0.0526 -0.3790
 9845TIP3    H151026   0.447   5.341   5.700  0.4074  0.7700  0.2413
 9845TIP3    H251027   0.557   5.391   5.609  0.9779  0.6777  0.8730
 9846TIP3   OH251028   1.800   2.240  16.894  0.2294 -0.2170 -0.4869
 9846TIP3    H151029   1.769   2.177  16.828  1.8224 -0.0966 -1.4027
 9846TIP3    H251030   1.732   2.308  16.895 -1.3167 -1.6762  0.2217
 9847TIP3   OH251031   3.345   5.670  16.625 -0.1449  0.0661  0.3497
 9847TIP3    H151032   3.425   5.622  16.604 -0.7358 -1.3829  1.2360
 9847TIP3    H251033   3.310   5.698  16.540  0.2997 -0.9589 -0.1877
 9848TIP3   OH251034   6.796   5.620   2.643 -0.4628  0.3882 -0.5287
 9848TIP3    H151035   6.875   5.632   2.589 -1.0502  0.8225 -1.3227
 9848TIP3    H251036   6.726   5.606   2.579 -0.7602 -1.7656  0.2249
 9849TIP3   OH251037   6.485   2.950   5.054  0.4588  0.3128  0.5845
 9849TIP3    H151038   6.532   3.008   4.994  0.5901 -2.3725 -2.2385
 9849TIP3    H251039   6.414   2.913   5.000 -1.5574  0.1886  3.1329
 9850TIP3   OH251040   1.430   1.116  12.434 -0.8998 -0.2127 -0.7250
 9850TIP3    H151041   1.470   1.050  12.376  2.0871  1.8317 -1.2130
 9850TIP3    H251042   1.381   1.173  12.374  0.0807  0.4289 -0.9433
 9851TIP3   OH251043   2.283   4.037  16.364 -0.2429  0.3598 -0.3196
 9851TIP3    H151044   2.318   3.967  16.308  1.9800  2.5708 -1.8830
 9851TIP3    H251045   2.263   3.993  16.447  1.4907 -2.0654 -1.0690
 9852TIP3   OH251046   6.797   1.725  12.914  0.4067  0.3395  0.2451
 9852TIP3    H151047   6.766   1.711  12.825  0.2502 -1.3497  0.5465
 9852TIP3    H251048   6.718   1.730  12.967  0.5466 -0.7864  0.5731
 9853TIP3   OH251049   4.101   2.287   1.167  0.0081  0.4688  0.1967
 9853TIP3    H151050   4.032   2.334   1.121  0.2562 -0.3606 -1.0855
 9853TIP3    H251051   4.178   2.299   1.113  0.0939 -1.3212 -0.1273
 9854TIP3   OH251052   1.009   2.317   0.894 -0.3528 -0.5847  0.6894
 9854TIP3    H151053   1.042   2.404   0.873  1.6452 -1.1379  1.3179
 9854TIP3    H251054   0.949   2.331   0.968 -0.2278  0.2716  0.6377
 9855TIP3   OH251055   0.116   1.176  11.440 -0.0978  0.2652 -0.6700
 9855TIP3    H151056   0.116   1.123  11.520  0.8425  3.0495  1.3694
 9855TIP3    H251057   0.208   1.180  11.414 -0.2709  0.1924 -1.3001
 9856TIP3   OH251058   5.732   0.974   0.915  0.0004  0.2665  0.3358
 9856TIP3    H151059   5.808   0.920   0.893 -0.6135 -0.8494  0.8881
 9856TIP3    H251060   5.657   0.920   0.891 -0.6440  0.2636  2.2023
 9857TIP3   OH251061   5.313   5.005   1.616 -0.1096 -0.2058  0.1502
 9857TIP3    H151062   5.305   4.952   1.537 -1.1548 -0.7380  0.5919
 9857TIP3    H251063   5.352   4.947   1.680  0.4336  0.1258  0.1245
 9858TIP3   OH251064   4.671   6.348   2.896  0.0637  0.3432 -0.4307
 9858TIP3    H151065   4.727   6.421   2.920  1.0069 -0.7825  0.9758
 9858TIP3    H251066   4.681   6.285   2.967 -0.1153 -1.5007 -1.9353
 9859TIP3   OH251067   0.781   0.685  15.207  0.1060 -0.3823  0.3422
 9859TIP3    H151068   0.708   0.682  15.269 -0.1139 -0.1058  0.0995
 9859TIP3    H251069   0.855   0.716  15.260 -0.0584 -0.2368  0.4891
 9860TIP3   OH251070   6.635   1.966   2.526  0.1026  0.1493  0.8616
 9860TIP3    H151071   6.668   2.035   2.470 -0.4793 -0.2820 -0.0332
 9860TIP3    H251072   6.542   1.961   2.507  0.3880 -1.9457 -0.3053
 9861TIP3   OH251073   0.725   2.192  16.143 -0.7588  0.5516 -0.3426
 9861TIP3    H151074   0.764   2.279  16.130 -0.6881  0.2466 -2.4706
 9861TIP3    H251075   0.755   2.141  16.068 -4.4628  0.0070 -1.6258
 9862TIP3   OH251076   6.589   4.410   3.878  0.4192  0.3410 -0.2808
 9862TIP3    H151077   6.588   4.450   3.791 -0.0368  2.2550  0.5639
 9862TIP3    H251078   6.538   4.469   3.933 -1.4828 -2.1163  0.7770
 9863TIP3   OH251079   6.252   3.636   5.805  0.4257 -0.2877  0.2545
 9863TIP3    H151080   6.218   3.697   5.739  1.0380 -1.3820 -1.1233
 9863TIP3    H251081   6.344   3.663   5.817  0.8004 -1.1189 -0.6204
 9864TIP3   OH251082   4.251   5.623   0.057  0.4044 -0.0203 -0.2320
 9864TIP3    H151083   4.207   5.546   0.092  0.4249 -0.4547 -1.1187
 9864TIP3    H251084   4.182   5.671   0.009  0.6742 -0.1937 -0.8041
 9865TIP3   OH251085   6.512   4.004  14.256  0.8235 -0.0004  0.5222
 9865TIP3    H151086   6.546   4.040  14.174  2.1527 -0.3258  0.9095
 9865TIP3    H251087   6.418   3.999  14.242  0.9900  0.2262 -0.8743
 9866TIP3   OH251088   3.407   2.915  13.226 -0.0460 -0.5565 -0.2383
 9866TIP3    H151089   3.402   2.972  13.303  2.0109 -1.3874  0.5664
 9866TIP3    H251090   3.384   2.972  13.153  3.3786  1.8252  0.3251
 9867TIP3   OH251091   2.904   4.401   1.195 -0.0718 -0.1658 -0.4422
 9867TIP3    H151092   2.856   4.353   1.128 -1.0750 -1.7319  1.2897
 9867TIP3    H251093   2.871   4.491   1.188 -1.9735 -0.8167 -0.4923
 9868TIP3   OH251094   0.570   1.883  14.339  0.3529 -0.0198 -0.1732
 9868TIP3    H151095   0.641   1.947  14.342  1.5971 -1.3857  0.3943
 9868TIP3    H251096   0.492   1.933  14.366  0.9817  1.6000 -1.2126
 9869TIP3   OH251097   5.544   0.168  12.335 -0.3898  0.3974  0.1678
 9869TIP3    H151098   5.496   0.173  12.418  1.0471  0.2371  1.0445
 9869TIP3    H251099   5.607   0.240  12.340  0.7680 -0.5687 -0.0842
 9870TIP3   OH251100   6.181   0.778   1.792  0.0358  0.1771 -0.7562
 9870TIP3    H151101   6.231   0.833   1.853 -2.6778  1.1869  0.6891
 9870TIP3    H251102   6.196   0.688   1.823 -0.9653  0.6398  1.2487
 9871TIP3   OH251103   3.263   4.356  14.720  0.4111 -0.0495  0.3441
 9871TIP3    H151104   3.254   4.447  14.750  0.3885  0.3412 -0.8052
 9871TIP3    H251105   3.173   4.325  14.711  0.4208 -0.2329  0.8681
 9872TIP3   OH251106   1.240   1.514   5.714 -0.1721  0.5597 -0.1007
 9872TIP3    H151107   1.165   1.573   5.713 -1.6344 -1.2248 -0.4326
 9872TIP3    H251108   1.309   1.563   5.669 -1.0334  2.3308  0.4140
 9873TIP3   OH251109   5.691   3.334  11.216  0.1638 -0.0152 -0.2969
 9873TIP3    H151110   5.761   3.399  11.229 -0.6649  1.2015 -1.5634
 9873TIP3    H251111   5.672   3.301  11.303  2.2906 -0.3767  0.0887
 9874TIP3   OH251112   3.725   2.015  13.440 -0.3595  0.0586  0.1800
 9874TIP3    H151113   3.794   1.952  13.463 -1.8915 -1.1541  1.7289
 9874TIP3    H251114   3.708   1.999  13.347  1.4625  0.4736 -0.2793
 9875TIP3   OH251115   5.760   4.737   3.692 -1.0242  0.2094  0.1209
 9875TIP3    H151116   5.843   4.751   3.738 -1.4434  1.9343  0.4126
 9875TIP3    H251117   5.742   4.644   3.705  1.3431 -0.4613 -0.8110
 9876TIP3   OH251118   0.349   2.189   3.922  0.0539  0.2746 -0.2321
 9876TIP3    H151119   0.255   2.192   3.903  0.3781  2.0977 -1.7952
 9876TIP3    H251120   0.391   2.199   3.837  1.7371 -1.7547  0.2584
 9877TIP3   OH251121   3.633   0.835  15.159 -0.1387 -0.2246  0.0223
 9877TIP3    H151122   3.612   0.926  15.140 -1.8709 -0.7482 -0.7721
 9877TIP3    H251123   3.729   0.831  15.155 -0.0834  1.3135 -1.0546
 9878TIP3   OH251124   6.550   1.274   0.916  0.7852  0.0315  0.3046
 9878TIP3    H151125   6.487   1.225   0.969  0.2254 -0.1917 -0.5581
 9878TIP3    H251126   6.569   1.352   0.968  0.7787 -0.5092  1.1483
 9879TIP3   OH251127   1.445   0.394  14.082 -0.2250  0.0980  0.2653
 9879TIP3    H151128   1.417   0.316  14.130 -0.5023  0.3827  0.5679
 9879TIP3    H251129   1.532   0.371  14.048 -0.3632 -0.3908  0.2374
 9880TIP3   OH251130   6.554   6.149  16.260 -0.2901 -0.6695 -0.0166
 9880TIP3    H151131   6.522   6.064  16.290  0.3065 -0.4037  1.4408
 9880TIP3    H251132   6.648   6.136  16.246 -0.2182 -0.2892  0.0960
 9881TIP3   OH251133   0.140   0.707  12.553  0.4649 -0.2632  0.0977
 9881TIP3    H151134   0.228   0.731  12.582 -0.6921  1.7966  2.2259
 9881TIP3    H251135   0.088   0.786  12.565 -1.6522 -1.3229 -1.4341
 9882TIP3   OH251136   1.693   1.635   0.258 -0.3302 -0.3276 -0.3549
 9882TIP3    H151137   1.734   1.565   0.308 -0.3106 -0.5035 -0.6141
 9882TIP3    H251138   1.647   1.688   0.323 -0.3765 -0.6012 -0.1646
 9883TIP3   OH251139   2.162   6.534  13.641 -0.1628 -0.3010  0.2171
 9883TIP3    H151140   2.202   6.618  13.663 -0.2845  0.1834 -1.2982
 9883TIP3    H251141   2.133   6.498  13.725  0.9174  0.6351  1.0153
 9884TIP3   OH251142   3.789   1.908   6.516 -0.1536 -0.7626 -0.6139
 9884TIP3    H151143   3.702   1.920   6.478  0.1649  0.2514 -1.0744
 9884TIP3    H251144   3.821   1.827   6.478 -1.1859 -1.5679  0.1601
 9885TIP3   OH251145   2.216   4.921   6.178 -0.1165 -0.1337  0.2241
 9885TIP3    H151146   2.265   4.945   6.099  1.2293  0.7042  1.2955
 9885TIP3    H251147   2.281   4.885   6.238 -0.7898  0.9564  1.6632
 9886TIP3   OH251148   1.600   2.761   3.108  0.1534  0.2997 -0.1470
 9886TIP3    H151149   1.505   2.760   3.096  0.0620  2.8035 -0.2585
 9886TIP3    H251150   1.612   2.741   3.200 -0.3780 -1.0380 -0.3389
 9887TIP3   OH251151   1.385   1.296   0.679 -0.5000  0.0087 -0.6329
 9887TIP3    H151152   1.330   1.332   0.609 -0.3552 -0.0765 -0.7909
 9887TIP3    H251153   1.323   1.247   0.733 -0.5324 -0.3737 -1.0038
 9888TIP3   OH251154   6.406   5.949  11.631  0.6806  0.7182  0.4284
 9888TIP3    H151155   6.484   5.937  11.686  0.8927  0.0210 -0.0076
 9888TIP3    H251156   6.332   5.934  11.690  0.8921  0.5311  0.6473
 9889TIP3   OH251157   6.391   3.300   1.612  0.0888  0.1532  0.0416
 9889TIP3    H151158   6.368   3.272   1.700  1.0014  0.4637  0.3897
 9889TIP3    H251159   6.310   3.292   1.562  0.0700 -2.1738  0.3397
 9890TIP3   OH251160   5.872   6.239   0.538  0.0686 -0.1595 -0.0482
 9890TIP3    H151161   5.865   6.206   0.628 -0.9576  0.2512  0.0323
 9890TIP3    H251162   5.815   6.181   0.487  0.7832 -0.5015 -0.4836
 9891TIP3   OH251163   1.782   0.808   2.635  0.5060 -0.3886  0.0116
 9891TIP3    H151164   1.691   0.833   2.616  0.4924 -0.6850 -0.3155
 9891TIP3    H251165   1.800   0.735   2.575  1.2302  0.2217 -0.5400
 9892TIP3   OH251166   6.652   2.131   5.375 -0.6249 -0.5929  0.1751
 9892TIP3    H151167   6.625   2.144   5.284  1.2415 -0.7301 -0.4349
 9892TIP3    H251168   6.706   2.052   5.373  1.6970  0.8813  0.8648
 9893TIP3   OH251169   1.953   0.399  11.774  0.5105 -0.0821 -0.0949
 9893TIP3    H151170   1.993   0.459  11.711 -0.5668  0.5938 -0.1658
 9893TIP3    H251171   1.888   0.351  11.723  1.9317 -1.9792 -0.2414
 9894TIP3   OH251172   3.460   1.408  10.914 -0.5373  0.1628  0.2481
 9894TIP3    H151173   3.446   1.322  10.874  1.2583  0.0407 -0.2185
 9894TIP3    H251174   3.494   1.389  11.001 -0.4301  0.4110  0.2598
 9895TIP3   OH251175   4.334   0.714   1.524 -0.2849  0.1640 -1.0437
 9895TIP3    H151176   4.294   0.759   1.450 -2.2498  1.7367  0.8681
 9895TIP3    H251177   4.364   0.784   1.582 -2.0731 -0.9259  1.3222
 9896TIP3   OH251178   5.128   2.862   3.817  0.6173 -0.1275 -1.0414
 9896TIP3    H151179   5.079   2.930   3.770 -0.2345 -0.6714 -0.9754
 9896TIP3    H251180   5.082   2.780   3.795  0.3022 -0.4200  0.5743
 9897TIP3   OH251181   3.101   3.494  11.999 -0.3320  0.0787 -0.4330
 9897TIP3    H151182   3.190   3.527  11.995 -0.4769  1.1295  2.5502
 9897TIP3    H251183   3.056   3.537  11.926  1.3284  0.4144 -1.2854
 9898TIP3   OH251184   6.496   0.774   6.453 -0.3318 -0.0176 -0.0234
 9898TIP3    H151185   6.476   0.690   6.495 -1.1553 -0.4201 -1.1490
 9898TIP3    H251186   6.478   0.839   6.520  1.2242 -0.7600  1.1865
 9899TIP3   OH251187   3.776   4.371   4.890  0.0551  0.3106  0.2319
 9899TIP3    H151188   3.682   4.385   4.884  0.1134  0.1462 -1.7930
 9899TIP3    H251189   3.811   4.452   4.929 -0.7377  1.1765 -0.8063
 9900TIP3   OH251190   4.590   4.968  13.486 -0.5136 -0.3042 -0.1304
 9900TIP3    H151191   4.618   4.877  13.483 -1.2253 -0.5248 -0.3623
 9900TIP3    H251192   4.548   4.984  13.401 -1.5014 -0.1411  0.3683
 9901TIP3   OH251193   5.652   3.788   5.813  0.4989 -0.3171 -0.3370
 9901TIP3    H151194   5.722   3.791   5.878  0.3198 -0.3651 -0.1400
 9901TIP3    H251195   5.673   3.711   5.759  0.5970 -0.3321 -0.2784
 9902TIP3   OH251196   3.831   6.122   5.740  0.4347 -0.5004 -0.7610
 9902TIP3    H151197   3.883   6.107   5.819  0.0437 -1.5193 -0.6867
 9902TIP3    H251198   3.744   6.089   5.762 -0.0829  0.5985 -1.1089
 9903TIP3   OH251199   4.235   1.328   5.993 -0.6278  0.0913 -0.1298
 9903TIP3    H151200   4.306   1.341   5.930  0.1531 -0.2451  0.6601
 9903TIP3    H251201   4.226   1.233   6.000 -0.3012  0.1170  0.7055
 9904TIP3   OH251202   4.249   4.708  15.875  0.8025  0.2787  0.5591
 9904TIP3    H151203   4.184   4.777  15.889  1.2000  0.8251 -0.1826
 9904TIP3    H251204   4.308   4.714  15.950 -0.0889 -0.3413  1.3316
 9905TIP3   OH251205   1.908   1.329  14.561  0.1340  0.1607  0.2275
 9905TIP3    H151206   1.853   1.300  14.488  0.5931 -0.4131  0.0979
 9905TIP3    H251207   1.864   1.297  14.639 -0.5738  1.1256  0.2398
 9906TIP3   OH251208   2.416   1.426  11.209 -0.6800  0.1248  0.4471
 9906TIP3    H151209   2.386   1.481  11.282  1.4643 -0.1421  1.6093
 9906TIP3    H251210   2.338   1.379  11.180 -2.1724  2.2900  0.7125
 9907TIP3   OH251211   0.260   6.328   2.053 -0.7164  0.1044  0.2460
 9907TIP3    H151212   0.331   6.392   2.067 -0.4773 -0.1022 -0.0189
 9907TIP3    H251213   0.204   6.339   2.130 -0.8013  0.7925  0.0958
 9908TIP3   OH251214   1.463   4.440   1.244 -0.1559  0.5769  0.0680
 9908TIP3    H151215   1.543   4.467   1.199 -1.0636 -0.0173 -2.0499
 9908TIP3    H251216   1.417   4.522   1.263  0.4285  0.8614  0.2544
 9909TIP3   OH251217   5.839   2.593   1.961  0.0921  0.4918  0.5701
 9909TIP3    H151218   5.761   2.630   1.920 -0.3684  1.4784  2.2472
 9909TIP3    H251219   5.853   2.510   1.916 -1.7001  0.4641  0.0009
 9910TIP3   OH251220   4.239   5.081   0.910  0.4875 -0.8682  0.1742
 9910TIP3    H151221   4.174   5.011   0.907 -0.3467 -0.1527  0.9690
 9910TIP3    H251222   4.319   5.038   0.942 -0.0154 -1.4536  0.6705
 9911TIP3   OH251223   0.171   2.292   4.846  0.2465  0.1975 -0.8000
 9911TIP3    H151224   0.224   2.348   4.903  2.9327 -2.4348 -0.4393
 9911TIP3    H251225   0.211   2.205   4.853 -2.6397 -1.4687 -2.5771
 9912TIP3   OH251226   3.715   5.163  14.938  0.0916 -0.0313 -0.1808
 9912TIP3    H151227   3.669   5.092  14.984 -1.9792 -0.2920 -2.4544
 9912TIP3    H251228   3.742   5.125  14.855 -0.2294  1.5614 -1.0577
 9913TIP3   OH251229   4.237   6.155  15.441 -0.3373  0.3955  0.8103
 9913TIP3    H151230   4.155   6.115  15.411 -0.5995  1.9413 -0.6672
 9913TIP3    H251231   4.261   6.216  15.371  0.7519  1.8074  2.3403
 9914TIP3   OH251232   2.242   6.608  11.362  0.0267 -0.3063 -0.0596
 9914TIP3    H151233   2.296   6.620  11.284 -0.9135  0.4147 -0.6147
 9914TIP3    H251234   2.250   6.691  11.409  0.8384 -0.8495  0.7813
 9915TIP3   OH251235   5.038   6.801   2.847  0.2754  0.1268  0.4893
 9915TIP3    H151236   5.010   6.868   2.785  1.5718  1.0483  0.8667
 9915TIP3    H251237   4.963   6.791   2.906  0.8795  3.0702  1.9173
 9916TIP3   OH251238   4.952   6.129  15.300 -0.3664 -0.3379 -0.7085
 9916TIP3    H151239   4.907   6.138  15.385 -0.4740 -1.6027 -0.6060
 9916TIP3    H251240   4.980   6.218  15.278  1.6810 -0.2765  1.7485
 9917TIP3   OH251241   4.279   5.064   5.243  0.4910  0.0694  0.1751
 9917TIP3    H151242   4.373   5.064   5.262  0.1993 -1.2804  1.8862
 9917TIP3    H251243   4.253   4.972   5.255 -0.9407  0.3095 -0.8895
 9918TIP3   OH251244   3.770   4.192  16.090 -0.1485 -0.0208  0.2210
 9918TIP3    H151245   3.848   4.178  16.036 -0.0925 -0.8578  0.5191
 9918TIP3    H251246   3.706   4.229  16.029 -0.2498 -1.4104 -0.5564
 9919TIP3   OH251247   3.571   0.324  16.564  0.2853  0.0711 -0.0317
 9919TIP3    H151248   3.602   0.399  16.615 -0.0691 -0.5664  1.1493
 9919TIP3    H251249   3.613   0.336  16.479 -0.1568  1.8736 -0.0512
 9920TIP3   OH251250   2.327   0.447  17.079  0.3127  0.0930  0.0796
 9920TIP3    H151251   2.395   0.437  17.013  1.1346  1.4397  0.6811
 9920TIP3    H251252   2.351   0.386  17.148 -0.4154 -1.1425 -0.7127
 9921TIP3   OH251253   4.205   4.910  13.614  0.0445 -0.2251  0.0333
 9921TIP3    H151254   4.219   4.905  13.519  2.4489 -0.2076  0.3159
 9921TIP3    H251255   4.220   5.003  13.635 -1.6696  0.0134  0.3029
 9922TIP3   OH251256   2.715   4.388   5.754 -0.4468  0.3516 -0.3633
 9922TIP3    H151257   2.712   4.438   5.835 -0.4418 -2.1777  1.2979
 9922TIP3    H251258   2.753   4.304   5.779 -1.9501 -1.1181 -2.6658
 9923TIP3   OH251259   6.745   2.097  17.090 -0.2969 -0.1321 -0.4016
 9923TIP3    H151260   6.671   2.145  17.127 -0.5622 -1.1275  0.3916
 9923TIP3    H251261   6.786   2.159  17.029 -1.9799  0.3115 -1.1283
 9924TIP3   OH251262   1.485   4.611   1.503  1.0050 -0.0769  0.3084
 9924TIP3    H151263   1.535   4.531   1.483  1.4394 -0.1788  1.6956
 9924TIP3    H251264   1.399   4.579   1.531  1.1618 -0.0664  0.8134
 9925TIP3   OH251265   6.579   0.771  14.333  0.0464 -0.0075 -0.2036
 9925TIP3    H151266   6.604   0.858  14.366 -0.6151 -0.0061  0.3246
 9925TIP3    H251267   6.534   0.730  14.407 -1.7635  0.1170 -1.1684
 9926TIP3   OH251268   3.843   5.573   0.671  0.8064 -0.0123 -0.0660
 9926TIP3    H151269   3.888   5.583   0.587  1.5225  1.3462  0.4423
 9926TIP3    H251270   3.819   5.662   0.696 -1.7113 -0.6173 -0.0259
 9927TIP3   OH251271   6.512   4.925  13.581 -0.1945  0.2509 -0.3305
 9927TIP3    H151272   6.462   4.847  13.557 -1.2991  0.6435  0.5979
 9927TIP3    H251273   6.548   4.905  13.668  1.5165 -0.1182 -1.0715
 9928TIP3   OH251274   6.594   4.014   2.730 -0.6552  0.0481  0.1277
 9928TIP3    H151275   6.510   4.001   2.774 -0.1797  0.6587  1.2513
 9928TIP3    H251276   6.598   4.108   2.713 -0.7105 -0.1369 -1.0204
 9929TIP3   OH251277   0.873   5.961   1.336  0.2586 -0.8210  0.0176
 9929TIP3    H151278   0.801   5.941   1.277  1.5528 -2.4597 -1.0866
 9929TIP3    H251279   0.851   5.917   1.418 -0.3438 -0.6442 -0.0454
 9930TIP3   OH251280   4.480   5.342   1.530  0.1555 -0.5924  0.5954
 9930TIP3    H151281   4.557   5.311   1.483  1.3616  3.0620 -0.1584
 9930TIP3    H251282   4.418   5.368   1.462  0.5757  1.6282  0.9641
 9931TIP3   OH251283   2.466   6.461  12.906 -0.1385  0.0612 -0.4098
 9931TIP3    H151284   2.518   6.536  12.934  2.0744 -0.8566 -1.7166
 9931TIP3    H251285   2.480   6.395  12.974 -0.2962  0.1193 -0.3227
 9932TIP3   OH251286   1.629   2.540   0.444  0.5136  0.5390  0.3329
 9932TIP3    H151287   1.630   2.635   0.435 -0.0600  1.0370  3.9704
 9932TIP3    H251288   1.549   2.512   0.398 -0.1953  2.0354  0.5937
 9933TIP3   OH251289   1.415   1.806   0.304 -0.1745  0.3249  0.1252
 9933TIP3    H151290   1.429   1.877   0.241 -0.3698  0.2224 -0.0379
 9933TIP3    H251291   1.406   1.728   0.249  0.9130  0.0268  0.3406
 9934TIP3   OH251292   0.702   5.796   0.928  0.1446  0.4690 -0.4148
 9934TIP3    H151293   0.618   5.765   0.896  1.1450 -2.2167 -0.7299
 9934TIP3    H251294   0.766   5.737   0.889  2.1486  2.0094  0.3266
 9935TIP3   OH251295   3.592   5.333  10.499 -0.5117 -0.0598  0.1794
 9935TIP3    H151296   3.525   5.387  10.458 -1.0866 -0.3509  0.7160
 9935TIP3    H251297   3.657   5.319  10.430 -0.7039  0.7102 -0.1778
 9936TIP3   OH251298   6.781   3.912   1.787  0.3395 -0.2761 -0.0923
 9936TIP3    H151299   6.801   3.969   1.712 -1.1500  0.2340 -0.1265
 9936TIP3    H251300   6.860   3.860   1.798  0.6242 -0.3245 -1.9904
 9937TIP3   OH251301   1.988   2.602  14.967 -0.4758 -0.3627  0.2907
 9937TIP3    H151302   1.985   2.655  14.887  1.9458 -0.6804 -0.1107
 9937TIP3    H251303   1.958   2.661  15.036  1.5697  1.4464 -0.2289
 9938TIP3   OH251304   0.072   5.943  16.942  0.4435  0.4749 -0.0719
 9938TIP3    H151305   0.151   5.933  16.996  1.9816  3.2486 -1.5880
 9938TIP3    H251306   0.000   5.941  17.005  1.8250 -0.4952  1.5679
 9939TIP3   OH251307   6.395   1.129  16.608  0.1191  0.1518  0.4665
 9939TIP3    H151308   6.391   1.133  16.512 -0.7447 -0.3028  0.4759
 9939TIP3    H251309   6.423   1.216  16.634 -1.5389  0.9028 -0.1238
 9940TIP3   OH251310   4.828   4.157  10.432  0.7288 -0.1613  0.0141
 9940TIP3    H151311   4.781   4.214  10.371  0.6200 -0.5803 -0.2958
 9940TIP3    H251312   4.760   4.123  10.490  0.3849 -1.9924 -1.3930
 9941TIP3   OH251313   2.654   4.084  14.817  0.4285  0.4895 -0.0074
 9941TIP3    H151314   2.697   4.040  14.744 -1.4418  1.2326 -1.6388
 9941TIP3    H251315   2.682   4.035  14.894  1.5234 -1.0781 -1.3363
 9942TIP3   OH251316   4.542   2.175   2.770 -0.2987 -0.4864 -0.4073
 9942TIP3    H151317   4.475   2.233   2.736 -1.4787 -1.6390 -0.1256
 9942TIP3    H251318   4.532   2.094   2.720  1.5967 -0.3371 -1.1038
 9943TIP3   OH251319   3.823   2.120   5.870  0.0142  0.6899  1.2348
 9943TIP3    H151320   3.891   2.156   5.812 -1.2012  2.4050  0.7892
 9943TIP3    H251321   3.863   2.121   5.957  1.2177 -0.1640  0.7164
 9944TIP3   OH251322   1.221   2.283   5.059 -0.6166  0.3378 -0.8699
 9944TIP3    H151323   1.284   2.353   5.078 -0.1280 -0.7880  2.1947
 9944TIP3    H251324   1.141   2.329   5.032  0.0267  2.0474  0.0017
 9945TIP3   OH251325   5.273   4.535   4.972  0.1815 -0.2636 -0.3620
 9945TIP3    H151326   5.255   4.478   5.047  1.6751  1.1461  1.1762
 9945TIP3    H251327   5.215   4.610   4.986  0.8468  0.2466 -0.3011
 9946TIP3   OH251328   2.299   3.947  13.433 -0.4144  0.1415 -0.0008
 9946TIP3    H151329   2.341   3.892  13.498  0.3904  0.2606 -0.4046
 9946TIP3    H251330   2.365   3.959  13.365  0.2791  3.3592  1.0269
 9947TIP3   OH251331   5.370   3.840   0.337  0.1937 -1.0014 -0.3010
 9947TIP3    H151332   5.329   3.795   0.264 -1.3470 -0.1309 -0.0234
 9947TIP3    H251333   5.317   3.816   0.413  1.2641 -1.2268  0.4003
 9948TIP3   OH251334   1.259   6.372  16.888 -0.0247  0.6057 -0.3708
 9948TIP3    H151335   1.321   6.303  16.912  0.3960  1.0864 -0.0715
 9948TIP3    H251336   1.196   6.328  16.830  0.3369  0.0111 -0.3206
 9949TIP3   OH251337   1.811   1.968   3.311  0.0495 -0.5760 -0.3359
 9949TIP3    H151338   1.882   1.909   3.335 -0.0017 -0.2519  0.6819
 9949TIP3    H251339   1.828   2.047   3.362 -0.4315 -0.0791 -0.9268
 9950TIP3   OH251340   0.037   1.930  14.077 -0.7316  0.2371 -0.0290
 9950TIP3    H151341   0.004   1.979  14.001 -0.9392 -0.9086 -0.6955
 9950TIP3    H251342  -0.042   1.907  14.126 -0.5770  1.2526  0.7344
 9951TIP3   OH251343   2.747   1.011   0.489  0.1884 -0.1957 -0.2397
 9951TIP3    H151344   2.669   1.046   0.532  0.2524  3.0327 -2.3777
 9951TIP3    H251345   2.820   1.041   0.543  0.1113 -2.1172  1.0457
 9952TIP3   OH251346   6.092   3.332   3.917  0.3527 -0.2212  0.1978
 9952TIP3    H151347   6.095   3.381   3.999  1.6640  0.0602 -0.0022
 9952TIP3    H251348   6.048   3.250   3.940 -0.2442  0.2870  0.9317
 9953TIP3   OH251349   2.479   2.167   2.803  0.8580 -0.5757 -0.3414
 9953TIP3    H151350   2.417   2.190   2.872 -0.7109 -0.3147 -1.7688
 9953TIP3    H251351   2.464   2.074   2.788  1.6935 -0.7919  0.1365
 9954TIP3   OH251352   3.892   6.054  13.871 -0.4210 -0.7517  0.4996
 9954TIP3    H151353   3.951   6.123  13.842 -2.0349 -0.0710 -1.3285
 9954TIP3    H251354   3.910   5.980  13.813 -1.4273 -0.4958 -0.1553
 9955TIP3   OH251355   1.684   1.881   2.116 -0.1090 -0.0122 -0.1335
 9955TIP3    H151356   1.713   1.961   2.160  0.1738 -1.6504  2.9364
 9955TIP3    H251357   1.763   1.847   2.075 -0.0655  0.8493 -0.7944
 9956TIP3   OH251358   4.479   6.740   4.213  0.4795 -0.3397  0.0838
 9956TIP3    H151359   4.516   6.825   4.189  1.1262 -0.0055  2.0934
 9956TIP3    H251360   4.399   6.733   4.160  1.7441  0.3182 -2.0452
 9957TIP3   OH251361   3.096   0.865  12.826 -0.3726 -0.1519 -0.2249
 9957TIP3    H151362   3.140   0.786  12.793 -1.6597 -0.7681 -0.5092
 9957TIP3    H251363   3.003   0.845  12.822 -0.6709  0.0534  3.0048
 9958TIP3   OH251364   4.787   5.043   0.124 -0.0906  0.4363 -0.0840
 9958TIP3    H151365   4.750   5.026   0.038 -2.8063 -0.2359  1.1025
 9958TIP3    H251366   4.838   4.965   0.145  0.7266  0.6789 -1.1209
 9959TIP3   OH251367   1.919   3.777   0.798 -0.8475 -0.1586  0.6163
 9959TIP3    H151368   1.942   3.857   0.845 -1.4732  0.8301 -0.7230
 9959TIP3    H251369   1.969   3.708   0.843  0.0821  1.0347  1.4801
 9960TIP3   OH251370   1.150   6.423  13.279 -0.5235 -0.2303 -0.2322
 9960TIP3    H151371   1.236   6.401  13.242  0.1064  0.4971  0.7379
 9960TIP3    H251372   1.156   6.396  13.371 -1.0347  0.5789  0.0498
 9961TIP3   OH251373   4.619   3.819  15.548 -0.4818  0.1830  0.7447
 9961TIP3    H151374   4.557   3.749  15.571 -2.7676  1.0855 -2.1375
 9961TIP3    H251375   4.569   3.900  15.558  0.5175  1.0273 -0.7690
 9962TIP3   OH251376   4.985   1.822  15.742 -0.0185  0.5748  0.9437
 9962TIP3    H151377   4.899   1.855  15.718  0.0309  1.6283  2.1169
 9962TIP3    H251378   5.047   1.871  15.687 -0.1705 -0.9803 -0.7297
 9963TIP3   OH251379   6.188   5.382  15.998 -0.3834 -0.8633  0.0499
 9963TIP3    H151380   6.178   5.288  16.014  0.3506 -0.8555  0.5749
 9963TIP3    H251381   6.106   5.407  15.955 -0.7794 -1.6462  0.3207
 9964TIP3   OH251382   6.558   3.045  11.967 -0.2084 -0.1368 -0.0618
 9964TIP3    H151383   6.583   2.989  11.894  0.3317 -1.5454  1.1349
 9964TIP3    H251384   6.641   3.074  12.005 -0.4498 -0.1751  0.5151
 9965TIP3   OH251385   2.103   6.507  13.371 -0.2175  0.8201  0.6301
 9965TIP3    H151386   2.133   6.498  13.461  0.4002  0.5255  0.4039
 9965TIP3    H251387   2.028   6.566  13.376  0.7814  2.0961  1.1580
 9966TIP3   OH251388   4.825   1.236  14.375 -0.5612 -0.0225  0.5354
 9966TIP3    H151389   4.790   1.201  14.457 -0.8442 -0.2051  0.3353
 9966TIP3    H251390   4.753   1.288  14.339 -0.2153  0.6126  0.7301
 9967TIP3   OH251391   0.797   0.830  11.253 -0.6168 -0.5600  0.1398
 9967TIP3    H151392   0.881   0.865  11.281 -1.5207  2.1906 -0.3014
 9967TIP3    H251393   0.783   0.867  11.166 -2.1613 -1.1694  0.0965
 9968TIP3   OH251394   2.604   2.647  14.777  0.7678 -0.2983  0.0481
 9968TIP3    H151395   2.580   2.600  14.697  0.0716  2.0448 -1.2253
 9968TIP3    H251396   2.528   2.636  14.835  1.0854 -1.6329  0.2372
 9969TIP3   OH251397   0.538   5.830  16.781  0.3289 -0.2978 -0.4380
 9969TIP3    H151398   0.581   5.781  16.851 -0.4412  1.1054  1.0700
 9969TIP3    H251399   0.476   5.767  16.743  0.9621 -1.1606 -0.0632
 9970TIP3   OH251400   4.337   3.166  14.202  0.4999  0.5376 -0.2132
 9970TIP3    H151401   4.349   3.134  14.292 -1.7650  0.7528  0.2291
 9970TIP3    H251402   4.394   3.243  14.196  2.3875 -0.7713  0.2607
 9971TIP3   OH251403   0.282   0.195   1.165  0.2705  0.7780  0.0276
 9971TIP3    H151404   0.341   0.130   1.204 -1.1159  1.4788  3.6780
 9971TIP3    H251405   0.294   0.185   1.070  1.0356 -3.8792  0.4099
 9972TIP3   OH251406   0.048   2.300  14.147 -0.1886 -0.7397 -0.0510
 9972TIP3    H151407   0.057   2.285  14.242 -0.0107  0.4779  0.1435
 9972TIP3    H251408   0.114   2.244  14.108 -0.2724 -1.2729  0.5448
 9973TIP3   OH251409   3.398   3.311   3.134  0.2375 -0.1715 -0.4436
 9973TIP3    H151410   3.342   3.387   3.148  0.3114  0.2312 -2.1028
 9973TIP3    H251411   3.337   3.240   3.113  0.2931  0.5048 -3.2812
 9974TIP3   OH251412   3.750   5.662  13.692 -0.0998  0.1907 -0.3840
 9974TIP3    H151413   3.737   5.649  13.598  1.1935  0.3553 -0.6073
 9974TIP3    H251414   3.795   5.583  13.721  2.1429  1.3385 -0.5185
 9975TIP3   OH251415   3.961   3.940  15.211  0.4067 -0.1613  0.0797
 9975TIP3    H151416   3.880   3.906  15.171  0.1217 -1.5487  1.7270
 9975TIP3    H251417   4.030   3.915  15.149 -0.2362 -0.3833 -0.5701
 9976TIP3   OH251418   4.435   3.715   2.550  0.0821  0.4668 -0.3580
 9976TIP3    H151419   4.429   3.670   2.634  0.1218  0.7356 -0.2130
 9976TIP3    H251420   4.460   3.646   2.488 -0.4169  0.1665 -0.2375
 9977TIP3   OH251421   5.953   2.986   0.580 -0.3807 -0.2156  0.4044
 9977TIP3    H151422   5.905   2.981   0.662 -2.5650 -0.5235 -0.8221
 9977TIP3    H251423   5.967   3.079   0.565  0.4987 -0.1814  1.3528
 9978TIP3   OH251424   3.742   2.717   3.931 -0.2296  0.3069 -0.1486
 9978TIP3    H151425   3.773   2.676   3.850  0.2727 -0.2609  0.3260
 9978TIP3    H251426   3.732   2.644   3.992 -0.0380  0.8073  0.4857
 9979TIP3   OH251427   0.801   5.825  11.319 -0.1318 -0.2592  0.2650
 9979TIP3    H151428   0.801   5.826  11.415 -0.1212 -0.5282  0.2691
 9979TIP3    H251429   0.848   5.904  11.294  2.9059 -1.8470  0.5111
 9980TIP3   OH251430   6.660   1.059  15.498  0.3760 -0.3002 -0.0577
 9980TIP3    H151431   6.606   0.983  15.478  1.2356 -0.6357 -1.1976
 9980TIP3    H251432   6.748   1.033  15.471  0.5646  1.3592 -1.1746
 9981TIP3   OH251433   1.997   0.809   5.506  0.2132  0.4826  0.0982
 9981TIP3    H151434   1.993   0.761   5.423  0.3857  1.1274 -0.2817
 9981TIP3    H251435   2.091   0.814   5.526  0.1775  0.4218  0.2843
 9982TIP3   OH251436   2.289   4.961  11.581  0.2239  0.0489 -0.0250
 9982TIP3    H151437   2.248   4.918  11.656  1.3852 -2.7764 -0.8785
 9982TIP3    H251438   2.370   4.999  11.616  0.5429 -0.8699  0.2647
 9983TIP3   OH251439   6.003   4.788   0.690  0.1338 -0.2553  0.1803
 9983TIP3    H151440   5.952   4.784   0.609  0.0104  0.3779  0.2231
 9983TIP3    H251441   5.972   4.713   0.741 -3.7753  2.2448  1.9570
 9984TIP3   OH251442   1.566   6.126   5.076 -0.1470 -0.2769 -0.4717
 9984TIP3    H151443   1.659   6.138   5.057 -0.0038 -0.6342 -0.0105
 9984TIP3    H251444   1.525   6.111   4.990  0.5889 -2.5944 -0.4653
 9985TIP3   OH251445   2.393   1.819   1.770 -0.2828 -0.2874  0.1021
 9985TIP3    H151446   2.479   1.857   1.756 -0.7087  0.9140  0.5987
 9985TIP3    H251447   2.355   1.811   1.683  1.2126 -3.1374 -0.4207
 9986TIP3   OH251448   1.536   1.149  10.857  0.5332 -0.2543 -0.8617
 9986TIP3    H151449   1.614   1.181  10.811  1.6269 -0.0954  1.0007
 9986TIP3    H251450   1.515   1.219  10.918 -1.7286  0.1390 -2.0075
 9987TIP3   OH251451   6.188   3.038   2.924  0.0683  0.4311 -0.8434
 9987TIP3    H151452   6.190   2.951   2.884 -1.1096  0.0404 -0.0832
 9987TIP3    H251453   6.100   3.046   2.960  0.9966  0.8066  1.5438
 9988TIP3   OH251454   6.442   6.525  13.890  0.1192 -0.4810 -0.8971
 9988TIP3    H151455   6.519   6.581  13.885 -0.1685  0.0899  0.5392
 9988TIP3    H251456   6.370   6.585  13.910 -0.5346 -1.1280 -1.2349
 9989TIP3   OH251457   4.621   6.847  12.959  0.0613 -0.0380 -0.7472
 9989TIP3    H151458   4.527   6.849  12.977 -0.0551  0.2702 -1.3610
 9989TIP3    H251459   4.636   6.922  12.902  0.9295  0.7283  0.4465
 9990TIP3   OH251460   4.220   0.712  12.809  0.0036 -0.0528 -0.1500
 9990TIP3    H151461   4.169   0.787  12.837 -0.3241 -0.3049 -0.0667
 9990TIP3    H251462   4.259   0.739  12.726  1.8628  1.1111  1.0218
 9991TIP3   OH251463   1.383   2.128   4.350  0.6414  0.1189 -0.0968
 9991TIP3    H151464   1.317   2.121   4.281 -0.1639  2.4898  0.3576
 9991TIP3    H251465   1.340   2.093   4.428  0.5479  0.0344 -0.1874
 9992TIP3   OH251466   0.305   2.982  14.652 -0.1223  1.0721 -0.3320
 9992TIP3    H151467   0.287   2.888  14.644  3.8480  0.2035 -0.9718
 9992TIP3    H251468   0.313   2.997  14.746 -2.5711  1.2877 -0.0901
 9993TIP3   OH251469   3.703   5.184  12.869 -0.2600  0.1000  0.4392
 9993TIP3    H151470   3.767   5.129  12.824 -0.2032 -0.2932  0.9789
 9993TIP3    H251471   3.753   5.227  12.938 -0.7838 -1.1282  1.6309
 9994TIP3   OH251472   4.599   4.162   5.685 -0.3123 -0.1199  0.4689
 9994TIP3    H151473   4.611   4.078   5.640  1.2104 -0.2559  1.0810
 9994TIP3    H251474   4.642   4.151   5.769 -0.4028  1.1627  0.7068
 9995TIP3   OH251475   3.264   3.937  10.365 -0.1222 -0.7541 -0.5463
 9995TIP3    H151476   3.250   4.031  10.349 -1.7233 -0.8491  0.1116
 9995TIP3    H251477   3.346   3.933  10.413 -1.4177  0.6093  1.9625
 9996TIP3   OH251478   3.780   4.829   1.127  0.3742  0.0408  0.2335
 9996TIP3    H151479   3.718   4.778   1.076  1.1092 -0.5248 -0.1219
 9996TIP3    H251480   3.760   4.921   1.105  0.7633 -0.1897 -1.2013
 9997TIP3   OH251481   0.173   0.610   0.145 -0.2352  0.5171 -0.1678
 9997TIP3    H151482   0.118   0.687   0.128 -2.4708 -1.5207 -3.1752
 9997TIP3    H251483   0.251   0.625   0.090 -0.6057  0.7175 -0.6512
 9998TIP3   OH251484   3.392   5.809   2.126  0.5859 -0.8226  0.2284
 9998TIP3    H151485   3.336   5.836   2.199  1.1105  0.4626  0.1846
 9998TIP3    H251486   3.333   5.761   2.067 -0.9208  1.8328 -0.5954
 9999TIP3   OH251487   3.829   5.315  12.586 -0.2362  0.0417  0.1438
 9999TIP3    H151488   3.841   5.231  12.630 -1.2922 -0.8456 -1.2074
 9999TIP3    H251489   3.863   5.379  12.649  3.3515 -1.5253  0.0870
10000TIP3   OH251490   5.110   0.820   4.350 -0.5216  1.1425 -0.0095
10000TIP3    H151491   5.187   0.823   4.293  0.2012  1.4033  0.9409
10000TIP3    H251492   5.081   0.911   4.357 -1.1848  0.9916 -0.7026
10001TIP3   OH251493   5.500   1.432  14.804  0.1858 -0.2602  0.2028
10001TIP3    H151494   5.539   1.513  14.770  0.1912  0.1704  1.1802
10001TIP3    H251495   5.427   1.414  14.746  0.3534  0.3009 -0.1904
10002TIP3   OH251496   4.998   5.839   5.131  0.4035 -0.5410  0.1751
10002TIP3    H151497   4.981   5.815   5.222 -1.0673  0.4349  0.1935
10002TIP3    H251498   4.955   5.771   5.079  0.5844 -0.6814  0.2082
10003TIP3   OH251499   5.526   2.485  14.057  0.1151  0.6459 -0.0374
10003TIP3    H151500   5.536   2.495  14.151  1.1507 -0.5237  0.0035
10003TIP3    H251501   5.436   2.514  14.039 -0.3522  0.1666  1.3979
10004TIP3   OH251502   1.865   4.257   4.075 -0.0315  0.3177  0.1162
10004TIP3    H151503   1.898   4.175   4.112  0.3585 -0.4977 -1.9112
10004TIP3    H251504   1.770   4.247   4.075 -0.0289  0.2458  0.6524
10005TIP3   OH251505   4.075   1.213  10.891  0.7784  0.1936  0.3755
10005TIP3    H151506   4.120   1.132  10.869 -0.2887 -0.4843  0.6267
10005TIP3    H251507   3.996   1.213  10.836  1.7160  2.0430 -1.1255
10006TIP3   OH251508   4.800   6.742  15.654 -0.4185  0.3377 -0.2088
10006TIP3    H151509   4.708   6.735  15.679 -0.2103 -1.7273  0.1863
10006TIP3    H251510   4.799   6.760  15.560 -1.1961  1.2931 -0.0372
10007TIP3   OH251511   0.900   2.220  14.959  0.0485  0.4238  0.5110
10007TIP3    H151512   0.894   2.124  14.959  0.6252  0.3806 -0.0734
10007TIP3    H251513   0.938   2.242  14.874 -2.2302  1.3245 -0.3379
10008TIP3   OH251514   4.913   1.583  15.026 -0.5843 -0.6452 -0.4234
10008TIP3    H151515   4.950   1.665  14.992 -0.5015 -1.1112 -1.5119
10008TIP3    H251516   4.819   1.593  15.016 -0.8161  0.4085  2.0443
10009TIP3   OH251517   0.816   2.195   0.448 -0.8016  0.8657  0.9571
10009TIP3    H151518   0.734   2.172   0.403 -0.8363 -0.2233  1.5309
10009TIP3    H251519   0.828   2.288   0.431 -1.0129  0.5748 -0.9745
10010TIP3   OH251520   5.809   3.262  16.846  0.1399  0.3262 -0.3471
10010TIP3    H151521   5.747   3.299  16.908 -0.7791  3.8482 -3.0074
10010TIP3    H251522   5.755   3.208  16.787  0.1937  0.6584 -0.7036
10011TIP3   OH251523   2.331   6.575   0.454 -0.1155 -0.4051 -0.3985
10011TIP3    H151524   2.302   6.597   0.365  1.0852 -0.0262 -0.7176
10011TIP3    H251525   2.329   6.479   0.457 -3.6251 -0.4163  0.3918
10012TIP3   OH251526   5.768   4.058  11.038 -0.2676  0.8291  0.3802
10012TIP3    H151527   5.763   4.028  10.947 -0.9047 -0.4765  0.8272
10012TIP3    H251528   5.678   4.078  11.063 -0.0844  1.2797  0.7022
10013TIP3   OH251529   0.412   5.344  15.464 -0.3771 -0.0456  0.0135
10013TIP3    H151530   0.350   5.357  15.393 -0.9459  0.6483  0.6159
10013TIP3    H251531   0.400   5.253  15.491  0.3716 -0.5481 -1.2360
10014TIP3   OH251532   3.359   0.222   0.518  0.3954 -0.0054  0.4108
10014TIP3    H151533   3.423   0.278   0.561 -0.1490 -0.3236  1.6817
10014TIP3    H251534   3.323   0.275   0.447  0.1753  1.1126  1.3391
10015TIP3   OH251535   2.183   4.069   1.967 -0.0643  0.1873  0.3583
10015TIP3    H151536   2.186   4.163   1.954  2.3322 -0.0499 -1.5088
10015TIP3    H251537   2.138   4.035   1.890  1.0355 -0.2779 -0.1140
10016TIP3   OH251538   5.232   0.637  16.938  0.4652 -0.4929  0.4508
10016TIP3    H151539   5.145   0.599  16.939 -0.2279  0.9515 -0.5303
10016TIP3    H251540   5.218   0.728  16.910  2.4408 -0.6573 -1.3182
10017TIP3   OH251541   6.056   1.143   1.594 -0.3454  0.0247  0.3718
10017TIP3    H151542   6.042   1.049   1.580  1.2443 -0.3368  0.9561
10017TIP3    H251543   6.112   1.147   1.671 -0.5949  1.4790  0.4910
10018TIP3   OH251544   0.511   3.708  10.815 -0.0041 -0.2354 -0.4154
10018TIP3    H151545   0.461   3.680  10.738 -1.1802 -1.1329  0.6364
10018TIP3    H251546   0.536   3.626  10.858 -1.5246  0.2141  1.4862
10019TIP3   OH251547   0.215   3.155   0.507 -0.1436  0.0022  0.0256
10019TIP3    H151548   0.237   3.139   0.415 -0.2713  1.2607 -0.2392
10019TIP3    H251549   0.232   3.248   0.520 -1.1377  0.0707  0.9872
10020TIP3   OH251550   2.658   1.126  17.075 -0.0627 -0.3992 -0.0996
10020TIP3    H151551   2.680   1.216  17.098 -0.0982 -0.0691 -1.3282
10020TIP3    H251552   2.738   1.076  17.092  1.1470  0.4817 -2.8058
10021TIP3   OH251553   3.487   1.813   6.443 -0.3172 -0.0803 -0.0081
10021TIP3    H151554   3.406   1.763   6.445 -0.1249 -0.3711  0.9730
10021TIP3    H251555   3.464   1.899   6.480 -0.1363 -0.2419  0.4921
10022TIP3   OH251556   4.161   2.985   2.882  0.1201 -0.4280  0.2725
10022TIP3    H151557   4.220   3.009   2.810 -1.5775 -0.8277 -1.3378
10022TIP3    H251558   4.186   2.895   2.904 -0.3219 -0.8750 -0.9255
10023TIP3   OH251559   0.437   5.862   4.478 -0.2618  0.7343 -0.2799
10023TIP3    H151560   0.516   5.892   4.433  2.6688  0.2482  3.9156
10023TIP3    H251561   0.423   5.773   4.445  2.4131 -0.0245  0.3866
10024TIP3   OH251562   2.950   1.988  12.605  0.9459  0.9454 -0.5136
10024TIP3    H151563   2.904   1.904  12.598  0.4973  1.0561  0.7995
10024TIP3    H251564   2.969   1.998  12.698  0.9985  2.2953 -0.6411
10025TIP3   OH251565   0.452   0.574  13.647  0.2335  0.7716 -0.0863
10025TIP3    H151566   0.397   0.500  13.622  2.1169 -0.6758 -0.1158
10025TIP3    H251567   0.434   0.587  13.740  0.1899 -0.0057  0.0210
10026TIP3   OH251568   1.758   3.490   5.056 -0.0069  0.8629  0.1549
10026TIP3    H151569   1.801   3.405   5.052 -1.1677  0.2277  0.7112
10026TIP3    H251570   1.767   3.526   4.968 -0.3804 -0.2738 -0.3567
10027TIP3   OH251571   4.649   5.094   2.806 -0.2265  0.0111 -0.4246
10027TIP3    H151572   4.566   5.134   2.832  0.5454  1.6293 -0.2889
10027TIP3    H251573   4.655   5.109   2.712  1.0493  2.3285 -0.0679
10028TIP3   OH251574   4.293   3.131  11.745  0.1404  0.0684  0.8402
10028TIP3    H151575   4.202   3.123  11.715  0.3646 -1.9086  0.5428
10028TIP3    H251576   4.292   3.100  11.835  0.3340  1.2638  1.2757
10029TIP3   OH251577   0.542   1.507   1.197  0.3465 -0.2998 -0.3463
10029TIP3    H151578   0.588   1.576   1.245  0.2172 -1.0168  0.8594
10029TIP3    H251579   0.591   1.496   1.116  1.1228  0.3090  0.0323
10030TIP3   OH251580   2.599   5.860   3.465 -0.0905  0.3886  0.3783
10030TIP3    H151581   2.654   5.782   3.475 -0.6818 -0.2614 -1.1634
10030TIP3    H251582   2.652   5.921   3.414  0.3846  1.0386  1.6117
10031TIP3   OH251583   6.078   1.980  12.352 -0.7681  0.3298  0.1582
10031TIP3    H151584   6.129   1.900  12.364 -3.1561 -1.0608  2.0118
10031TIP3    H251585   6.107   2.015  12.269  2.9584 -0.4455  0.9715
10032TIP3   OH251586   3.434   1.999  13.034  0.3203 -0.2440 -0.0001
10032TIP3    H151587   3.492   2.039  12.970 -0.4855  0.4627 -0.3047
10032TIP3    H251588   3.355   1.976  12.985  0.3983 -1.3494  0.3723
10033TIP3   OH251589   1.343   5.610   3.757  0.2640  0.0425  0.2583
10033TIP3    H151590   1.278   5.628   3.689  0.2158 -1.4050 -0.1100
10033TIP3    H251591   1.401   5.545   3.718  1.5416  0.7830  0.8400
10034TIP3   OH251592   2.924   5.304   4.383  0.0376 -0.2695  0.0724
10034TIP3    H151593   2.833   5.333   4.379 -0.0503 -0.4752  0.6002
10034TIP3    H251594   2.944   5.278   4.293 -0.6079 -0.7682  0.0639
10035TIP3   OH251595   6.064   6.020  14.582  0.1867 -0.2920  0.0156
10035TIP3    H151596   5.994   6.086  14.581  0.9061  0.5184  0.9376
10035TIP3    H251597   6.082   6.007  14.675  1.7758  0.0782 -0.2160
10036TIP3   OH251598   5.765   4.127   0.523 -0.2872  0.8275  0.2974
10036TIP3    H151599   5.727   4.142   0.610 -1.4875  1.9923 -0.3810
10036TIP3    H251600   5.793   4.214   0.494  1.9355  0.1728  0.2852
10037TIP3   OH251601   5.175   4.186  10.282  0.7935 -0.2763  0.0926
10037TIP3    H151602   5.193   4.235  10.363 -1.6566 -0.1028  0.6286
10037TIP3    H251603   5.219   4.236  10.213 -0.0525  1.6670  0.8723
10038TIP3   OH251604   6.019   3.696  16.781 -0.5380  0.8158 -0.7544
10038TIP3    H151605   5.933   3.700  16.740 -0.7169  1.1820 -0.3432
10038TIP3    H251606   6.003   3.661  16.868 -0.0044 -1.1733 -1.3911
10039TIP3   OH251607   5.145   3.672   1.330  0.0330  0.3872  0.1202
10039TIP3    H151608   5.200   3.719   1.393 -0.6227  2.2129 -0.6086
10039TIP3    H251609   5.147   3.726   1.251 -0.8979 -0.7427 -0.7080
10040TIP3   OH251610   0.879   5.032  10.320 -0.0788 -0.0625 -0.3494
10040TIP3    H151611   0.881   4.998  10.409 -0.3910 -1.4693 -0.8532
10040TIP3    H251612   0.933   5.111  10.323  0.4104 -0.4256  0.9427
10041TIP3   OH251613   3.575   3.192  11.067  0.4987 -0.8709  0.4699
10041TIP3    H151614   3.588   3.236  10.983 -0.6141 -0.7237  0.3510
10041TIP3    H251615   3.568   3.100  11.045  0.9120 -0.9073  0.4874
10042TIP3   OH251616   3.501   5.323   2.744  0.0034 -0.0683 -0.2085
10042TIP3    H151617   3.507   5.357   2.655 -0.1928 -0.1307 -0.2449
10042TIP3    H251618   3.415   5.351   2.774 -0.7293 -1.7072 -0.7191
10043TIP3   OH251619   4.902   5.723   4.147 -0.7596  0.3816 -0.7347
10043TIP3    H151620   4.956   5.679   4.081 -2.5125 -0.4749 -1.6719
10043TIP3    H251621   4.829   5.760   4.097 -1.2260  1.2312  0.5292
10044TIP3   OH251622   0.723   2.205  16.814 -0.0575  0.5326  0.0711
10044TIP3    H151623   0.809   2.242  16.834 -0.5479  1.6544  0.1588
10044TIP3    H251624   0.670   2.223  16.892 -0.7092  0.9191 -0.4527
10045TIP3   OH251625   1.244   1.775   6.177 -0.3420  0.0138  0.2202
10045TIP3    H151626   1.227   1.689   6.217 -1.2138  0.1739  0.2132
10045TIP3    H251627   1.328   1.802   6.214 -1.4931  0.5365  2.6536
10046TIP3   OH251628   1.329   6.640   3.360  0.7426  0.6253  0.1588
10046TIP3    H151629   1.406   6.591   3.333  1.3206 -0.5028  3.3908
10046TIP3    H251630   1.258   6.576   3.360  0.2683  1.1318 -0.6905
10047TIP3   OH251631   0.522   1.921  13.541 -0.3798  0.0063  0.3962
10047TIP3    H151632   0.494   1.865  13.613 -1.2012 -0.8253 -0.5285
10047TIP3    H251633   0.446   1.976  13.523 -0.7194 -0.7759 -0.7287
10048TIP3   OH251634   6.532   2.226  13.292 -0.3724  0.1049  0.1048
10048TIP3    H151635   6.604   2.168  13.269  0.5954  2.0220 -2.0896
10048TIP3    H251636   6.523   2.217  13.387  3.2662  0.2982  0.5972
10049TIP3   OH251637   0.264   2.044  13.650 -0.3066  0.5635 -0.3091
10049TIP3    H151638   0.197   2.110  13.633  0.0633  1.0698  0.1790
10049TIP3    H251639   0.222   1.983  13.712 -1.0674 -0.3529 -1.6681
10050TIP3   OH251640   1.755   4.149  13.686 -0.1809  0.7215 -0.4181
10050TIP3    H151641   1.661   4.136  13.676 -0.0351  0.1439 -1.0858
10050TIP3    H251642   1.787   4.163  13.597  0.3178  1.2495 -0.1597
10051TIP3   OH251643   2.969   6.645   5.120  0.6026  0.6454 -0.2416
10051TIP3    H151644   2.992   6.644   5.213  2.9386  1.6356 -0.7489
10051TIP3    H251645   3.011   6.724   5.086  0.7329 -0.2952 -2.3847
10052TIP3   OH251646   0.468   5.225  16.787  0.7145 -0.2513  0.1431
10052TIP3    H151647   0.396   5.193  16.841  2.5885 -1.0781  2.2971
10052TIP3    H251648   0.428   5.244  16.702 -2.1225 -0.1094  1.4116
10053TIP3   OH251649   2.756   2.413  11.184  0.2882  0.1762 -0.3775
10053TIP3    H151650   2.776   2.348  11.118  1.0106  0.3903 -0.3756
10053TIP3    H251651   2.660   2.422  11.181  0.3797  0.9195 -2.0981
10054TIP3   OH251652   1.751   2.082  15.241 -0.9105  0.2350  0.1989
10054TIP3    H151653   1.697   2.014  15.201  0.0404 -0.7310  0.5441
10054TIP3    H251654   1.814   2.035  15.295 -2.1776  1.4919  2.9329
10055TIP3   OH251655   5.337   5.399  17.102  0.6199  0.2537  0.0047
10055TIP3    H151656   5.301   5.480  17.066  0.3822 -0.6733 -1.9719
10055TIP3    H251657   5.264   5.358  17.149  0.6577  0.9983  0.7348
10056TIP3   OH251658   4.590   4.112   0.369  0.6772  0.2525 -0.1552
10056TIP3    H151659   4.598   4.166   0.447  0.2279 -0.5271  0.4476
10056TIP3    H251660   4.634   4.030   0.393  0.1625 -0.1491 -0.5681
10057TIP3   OH251661   4.085   1.378  17.003  0.0173 -0.0220  0.1052
10057TIP3    H151662   4.117   1.466  17.020 -0.6096  0.4730 -1.1209
10057TIP3    H251663   4.022   1.361  17.072 -0.3832  0.7817 -0.0560
10058TIP3   OH251664   1.908   4.399  14.655 -0.1944 -0.5897  0.0383
10058TIP3    H151665   1.838   4.373  14.714  0.4309  0.3416  1.2628
10058TIP3    H251666   1.948   4.475  14.698  0.0347  0.3852 -1.8000
10059TIP3   OH251667   2.434   6.412  11.911  0.2403  0.5120 -0.1117
10059TIP3    H151668   2.462   6.503  11.920  2.1589  0.3253 -2.8109
10059TIP3    H251669   2.505   6.361  11.950  0.7277  0.1683 -1.3800
10060TIP3   OH251670   1.709   4.935  16.537  0.1184  0.6565  0.1026
10060TIP3    H151671   1.695   5.011  16.594  0.3422  0.0106  1.0270
10060TIP3    H251672   1.788   4.893  16.570  0.4473  0.4489 -0.8929
10061TIP3   OH251673   3.731   6.548   1.376  0.8285 -0.2548 -0.1464
10061TIP3    H151674   3.717   6.465   1.332  1.2862 -0.1825 -0.4430
10061TIP3    H251675   3.797   6.593   1.322 -0.2028  0.7612 -0.6186
10062TIP3   OH251676   4.135   0.837  13.992  0.1784 -0.4454  0.0671
10062TIP3    H151677   4.065   0.851  13.929 -2.1513  0.1401  2.6049
10062TIP3    H251678   4.090   0.816  14.074  2.8554  1.5702  2.2540
10063TIP3   OH251679   6.574   0.604   1.349 -0.8067 -0.7687 -0.3729
10063TIP3    H151680   6.504   0.604   1.283 -1.3024 -0.2980  0.1399
10063TIP3    H251681   6.555   0.680   1.404  0.4499 -0.2875 -0.5748
10064TIP3   OH251682   6.638   5.491  16.422  0.1419  0.0827 -0.2984
10064TIP3    H151683   6.683   5.499  16.338  0.7738 -0.1504  0.0199
10064TIP3    H251684   6.700   5.524  16.486  0.2397 -1.1026  0.2493
10065TIP3   OH251685   6.525   4.957  13.285  0.6468  0.0672 -0.2220
10065TIP3    H151686   6.588   4.886  13.299 -0.2687 -0.5007  1.2839
10065TIP3    H251687   6.520   5.002  13.369 -1.6851 -0.5501  0.0484
10066TIP3   OH251688   2.937   3.765   0.807  0.2201 -0.1087  0.6676
10066TIP3    H151689   2.934   3.818   0.727 -1.4198 -2.2266 -0.7967
10066TIP3    H251690   3.029   3.764   0.832  0.9786 -0.2413 -1.8478
10067TIP3   OH251691   3.491   3.602  16.192  0.6263  0.6809  0.7673
10067TIP3    H151692   3.517   3.666  16.258  0.7450 -0.1787  1.5759
10067TIP3    H251693   3.514   3.517  16.230 -1.1920  0.0324  0.4879
10068TIP3   OH251694   1.375   5.819   0.156 -0.3326 -0.1048 -0.2179
10068TIP3    H151695   1.335   5.824   0.069  0.3450 -3.3351 -0.8469
10068TIP3    H251696   1.460   5.861   0.146 -0.9182  1.0160 -0.6290
10069TIP3   OH251697   1.243   4.441   1.466  0.2095  0.2326  0.2874
10069TIP3    H151698   1.220   4.396   1.547  1.1828 -0.2047  0.3395
10069TIP3    H251699   1.182   4.406   1.401  1.2994 -1.6319  0.2044
10070TIP3   OH251700   3.038   3.238   5.371  0.4558 -0.3103 -0.1786
10070TIP3    H151701   2.991   3.213   5.451 -1.2289  0.1271 -0.9685
10070TIP3    H251702   2.972   3.232   5.302  1.6700  0.0570 -1.4215
10071TIP3   OH251703   0.901   5.038  10.666 -0.1091  1.1880  0.3201
10071TIP3    H151704   0.840   4.966  10.656 -0.1083  0.8992  1.9965
10071TIP3    H251705   0.849   5.116  10.647 -0.5556  0.8454  0.1128
10072TIP3   OH251706   4.181   5.367  14.199 -0.2224  0.2653 -0.6158
10072TIP3    H151707   4.159   5.428  14.129 -1.0443  1.3828  0.5753
10072TIP3    H251708   4.250   5.411  14.248 -0.1161 -0.2184 -0.3286
10073TIP3   OH251709   2.989   1.053   1.558  0.1904  0.3546 -0.1349
10073TIP3    H151710   2.904   1.097   1.560 -0.1029  0.0226 -2.2250
10073TIP3    H251711   3.002   1.020   1.647 -2.6971 -1.0636 -0.1138
10074TIP3   OH251712   1.040   4.544  11.802 -0.3027 -0.6082 -0.1552
10074TIP3    H151713   1.086   4.545  11.718 -0.2687 -1.1109 -0.1451
10074TIP3    H251714   0.953   4.580  11.782 -0.4957 -1.2752 -0.5234
10075TIP3   OH251715   2.228   2.770   4.783 -0.1812  0.0016  0.3810
10075TIP3    H151716   2.202   2.692   4.735  0.6094  0.4470 -0.8216
10075TIP3    H251717   2.157   2.785   4.845 -1.2072 -0.6482 -0.5959
10076TIP3   OH251718   1.856   3.185   0.431  0.4077  0.7928 -0.7111
10076TIP3    H151719   1.834   3.101   0.471  1.2722  0.8319 -0.1143
10076TIP3    H251720   1.910   3.163   0.356  0.6933  0.8155 -0.5134
10077TIP3   OH251721   4.348   2.779  15.053  0.5752  0.0638  0.1313
10077TIP3    H151722   4.373   2.837  14.980  0.5801 -1.0582 -0.7896
10077TIP3    H251723   4.304   2.706  15.010  0.1624 -0.3899  1.3161
10078TIP3   OH251724   5.196   0.249   5.385 -0.6911 -0.1851  0.1096
10078TIP3    H151725   5.141   0.202   5.322  0.6777 -1.8773  0.0776
10078TIP3    H251726   5.210   0.186   5.456  1.9490 -0.2436 -0.3443
10079TIP3   OH251727   0.130   6.775   5.235 -0.0433  0.1968 -0.5141
10079TIP3    H151728   0.135   6.687   5.274 -0.3352 -0.3261 -1.6232
10079TIP3    H251729   0.215   6.787   5.193  0.1754  0.6535  0.0517
10080TIP3   OH251730   3.185   6.272  13.142 -0.2488  0.4632  0.1112
10080TIP3    H151731   3.168   6.207  13.210  2.3251 -0.1010  0.3473
10080TIP3    H251732   3.195   6.355  13.190 -2.4217  0.8945 -0.0765
10081TIP3   OH251733   4.631   5.536   3.838  0.4792  0.2560  0.0832
10081TIP3    H151734   4.713   5.573   3.869  0.2386  0.3292  0.6457
10081TIP3    H251735   4.654   5.448   3.807  0.4284 -0.6332  2.3222
10082TIP3   OH251736   0.653   6.800   3.922  0.4989  0.2267  0.3906
10082TIP3    H151737   0.596   6.790   3.845  0.7141  0.7765  0.1545
10082TIP3    H251738   0.693   6.715   3.933 -0.5290 -0.2393  0.6883
10083TIP3   OH251739   1.603   1.456  14.962  0.0395  0.2227  0.5964
10083TIP3    H151740   1.569   1.532  15.009  1.3377  0.4214  1.2476
10083TIP3    H251741   1.678   1.490  14.913 -0.8193 -0.1490 -1.0348
10084TIP3   OH251742   1.418   4.176   1.825  0.2712  0.0312 -0.1308
10084TIP3    H151743   1.447   4.147   1.912 -0.8484  1.0420  0.6197
10084TIP3    H251744   1.485   4.238   1.797 -0.3098  1.1707  0.8930
10085TIP3   OH251745   0.562   1.857  15.314  0.0866  0.2143 -0.1359
10085TIP3    H151746   0.585   1.834  15.404  1.5280  1.5434 -0.1065
10085TIP3    H251747   0.467   1.869  15.315 -0.0055 -0.4689  1.0273
10086TIP3   OH251748   2.183   3.649  12.897 -0.3714  0.1959 -0.0064
10086TIP3    H151749   2.108   3.704  12.917 -1.0172 -0.3098 -0.9692
10086TIP3    H251750   2.188   3.588  12.971 -1.8476 -0.7295 -0.6212
10087TIP3   OH251751   4.044   5.260   3.714  0.3046  0.0757  0.2099
10087TIP3    H151752   4.007   5.347   3.699  0.4347 -0.1197 -1.3745
10087TIP3    H251753   4.137   5.269   3.696  0.4472 -0.2351  0.7615
10088TIP3   OH251754   4.226   3.530   3.660  0.1739 -0.4576  0.5027
10088TIP3    H151755   4.289   3.524   3.731 -0.0005 -0.6075  0.6470
10088TIP3    H251756   4.238   3.449   3.610  2.8975  1.2091 -1.8528
10089TIP3   OH251757   5.459   1.940   6.382  0.1576  0.6166 -0.3873
10089TIP3    H151758   5.383   1.914   6.434 -0.0299  1.0292 -0.4526
10089TIP3    H251759   5.457   1.882   6.306  1.0106 -0.6935  0.5392
10090TIP3   OH251760   0.111   0.297   3.434  0.6073  0.2294 -0.2471
10090TIP3    H151761   0.051   0.335   3.498 -0.3853 -4.3241  2.0063
10090TIP3    H251762   0.198   0.310   3.472  0.2083 -0.4535  0.9825
10091TIP3   OH251763   2.639   6.411  16.276  0.8952 -0.6576 -0.6096
10091TIP3    H151764   2.713   6.469  16.259  0.2961  0.3270  0.0452
10091TIP3    H251765   2.580   6.462  16.332 -0.0447 -1.5992 -0.6946
10092TIP3   OH251766   3.475   1.911  15.902 -0.0465  0.0850  0.0014
10092TIP3    H151767   3.549   1.919  15.841 -0.2005 -0.2624 -0.2364
10092TIP3    H251768   3.461   1.999  15.935 -0.0783  0.3165 -0.6112
10093TIP3   OH251769   1.668   3.452  11.638  0.1765 -0.4837 -0.0210
10093TIP3    H151770   1.710   3.382  11.689 -0.2657  0.3562  1.5768
10093TIP3    H251771   1.741   3.496  11.594  0.8707  0.1232  1.6576
10094TIP3   OH251772   2.192   0.179  15.087  0.1914  1.0186 -0.2295
10094TIP3    H151773   2.282   0.153  15.106  0.8763  2.7028 -0.9712
10094TIP3    H251774   2.155   0.105  15.039  0.4808 -0.5532  1.8557
10095TIP3   OH251775   2.037   0.462  16.856  0.8017 -0.1123 -0.5214
10095TIP3    H151776   1.943   0.477  16.851  0.5013 -1.5001  0.2866
10095TIP3    H251777   2.066   0.510  16.933  0.3023 -1.5518  0.6033
10096TIP3   OH251778   5.769   4.043  13.236 -0.5867  0.2606 -0.2655
10096TIP3    H151779   5.790   4.129  13.272 -0.8045  0.8174 -1.4171
10096TIP3    H251780   5.812   3.981  13.295 -2.1444  1.0253  1.8191
10097TIP3   OH251781   6.090   2.378  15.017 -0.1272 -0.1836  0.1200
10097TIP3    H151782   6.045   2.426  15.086 -2.5774  1.7038 -2.5538
10097TIP3    H251783   6.173   2.424  15.006 -1.0556  1.4847 -0.2141
10098TIP3   OH251784   3.780   2.517   3.086  0.1905  0.2507 -0.0404
10098TIP3    H151785   3.772   2.541   2.994  1.5820 -0.1279 -0.2808
10098TIP3    H251786   3.860   2.561   3.115  0.4898 -0.7145  0.6263
10099TIP3   OH251787   0.831   1.339   1.730 -0.1892 -0.1848 -0.0461
10099TIP3    H151788   0.775   1.300   1.663 -1.1054 -1.7969  1.5605
10099TIP3    H251789   0.918   1.342   1.691 -0.7322 -0.8974 -1.3508
10100TIP3   OH251790   3.212   1.415   5.450  0.2592 -0.0892 -0.1411
10100TIP3    H151791   3.140   1.389   5.392  0.2007  0.9873 -0.5661
10100TIP3    H251792   3.169   1.449   5.528  0.3373 -1.4177  0.4975
10101TIP3   OH251793   6.040   1.696  12.826 -0.4322 -0.5944 -0.2856
10101TIP3    H151794   5.952   1.657  12.820 -0.1853 -1.3172  0.5843
10101TIP3    H251795   6.024   1.790  12.824 -1.4232 -0.6660  1.7999
10102TIP3   OH251796   1.083   6.015   3.628 -0.5806 -0.1822  0.1658
10102TIP3    H151797   1.048   6.016   3.717 -0.9419 -0.1705  0.0261
10102TIP3    H251798   1.113   6.105   3.614  1.5667 -0.6861  1.0752
10103TIP3   OH251799   3.555   3.911   1.956 -0.5210  0.4503 -0.5841
10103TIP3    H151800   3.561   3.947   2.044 -0.1151  3.0367 -1.5897
10103TIP3    H251801   3.473   3.946   1.921 -2.0194 -2.5713 -0.4954
10104TIP3   OH251802   0.957   0.983   3.118  0.5988  0.4907 -0.3235
10104TIP3    H151803   0.894   1.054   3.131 -1.2212 -0.9323 -0.9367
10104TIP3    H251804   0.956   0.968   3.024  0.5708 -0.6647 -0.1457
10105TIP3   OH251805   4.345   2.117  13.096 -0.2378  0.3587 -0.3906
10105TIP3    H151806   4.363   2.083  13.184  0.5498 -1.0871 -1.0684
10105TIP3    H251807   4.251   2.105  13.085 -0.2617  0.0858  0.0742
10106TIP3   OH251808   6.508   0.056   2.094  0.3691  0.2051 -0.0356
10106TIP3    H151809   6.446   0.078   2.025 -0.4005  0.6140  0.7610
10106TIP3    H251810   6.567  -0.007   2.054 -0.1661  0.2980 -1.0092
10107TIP3   OH251811   1.643   2.943  13.456 -0.1045 -0.0443  0.1898
10107TIP3    H151812   1.583   3.017  13.446 -2.0953 -1.5155  0.6942
10107TIP3    H251813   1.645   2.926  13.550  2.1049  0.6925  0.3455
10108TIP3   OH251814   5.775   2.708   3.901  0.1580 -0.7268  0.3918
10108TIP3    H151815   5.784   2.666   3.816 -0.2976 -0.2005  0.0816
10108TIP3    H251816   5.685   2.741   3.903  0.9188  1.5378  0.0043
10109TIP3   OH251817   5.740   4.002   1.212  0.3569  0.0554 -0.0195
10109TIP3    H151818   5.777   4.088   1.191  0.7286  0.2242  1.2223
10109TIP3    H251819   5.655   4.022   1.250  1.4835  0.1118  2.6907
10110TIP3   OH251820   2.105   4.714  13.757 -0.2937  0.0923  0.1110
10110TIP3    H151821   2.061   4.640  13.713 -1.3055  1.2979 -0.9917
10110TIP3    H251822   2.107   4.783  13.691 -0.7004  1.5597  1.5763
10111TIP3   OH251823   3.048   4.897   2.994  0.2423 -0.2392 -0.1317
10111TIP3    H151824   3.119   4.854   2.945  0.0291 -0.2041 -0.4775
10111TIP3    H251825   2.982   4.828   3.006  0.1065 -0.1372 -0.2738
10112TIP3   OH251826   6.744   4.260   6.171  0.0914 -0.0430 -0.3916
10112TIP3    H151827   6.680   4.214   6.226  0.5998 -0.6620 -0.3047
10112TIP3    H251828   6.703   4.343   6.150 -0.3270 -0.0209  0.5004
10113TIP3   OH251829   4.607   5.270  14.151 -0.8119 -0.5539  0.1333
10113TIP3    H151830   4.637   5.268  14.242 -0.8170 -2.2398  0.1371
10113TIP3    H251831   4.608   5.178  14.124  1.4949  0.0569 -2.3277
10114TIP3   OH251832   3.822   2.513   1.869  0.1161 -0.1888  0.0479
10114TIP3    H151833   3.915   2.514   1.894  0.4810 -0.4517 -1.2217
10114TIP3    H251834   3.775   2.519   1.952  1.2655  2.3074  0.6139
10115TIP3   OH251835   3.982   1.726  11.838 -0.5450  0.1998  0.4930
10115TIP3    H151836   4.044   1.660  11.808  0.7943  1.4758  0.3619
10115TIP3    H251837   3.961   1.777  11.759 -0.3511  0.8896  0.8766
10116TIP3   OH251838   3.991   4.635   0.156  0.4930  0.4549 -0.2738
10116TIP3    H151839   4.057   4.567   0.145 -0.9109 -1.3308  1.5425
10116TIP3    H251840   3.916   4.589   0.194 -0.6050  3.0007  0.8656
10117TIP3   OH251841   4.963   6.063  15.975 -0.2143 -0.0617  0.1096
10117TIP3    H151842   5.051   6.075  15.940  0.9126 -1.8185  2.0773
10117TIP3    H251843   4.935   6.151  16.001  1.8993  0.3076  1.4039
10118TIP3   OH251844   4.823   1.541   6.989  0.0084 -0.3865  0.1738
10118TIP3    H151845   4.814   1.575   6.900  0.4131 -1.2479 -0.2100
10118TIP3    H251846   4.841   1.619   7.043 -0.0297  0.1138 -0.5248
10119TIP3   OH251847   4.713   0.775   0.765 -0.5758 -0.4048 -0.0466
10119TIP3    H151848   4.774   0.809   0.700 -0.7448 -0.0183 -0.0023
10119TIP3    H251849   4.626   0.791   0.728 -0.6706 -0.2536  0.2376
10120TIP3   OH251850   1.580   0.377  14.894 -0.0573 -0.4964 -0.0377
10120TIP3    H151851   1.598   0.346  14.805  0.3090 -1.4031  0.3460
10120TIP3    H251852   1.666   0.391  14.933 -0.2177  0.2133  0.0761
10121TIP3   OH251853   3.225   3.129   1.054  0.1058 -0.4208 -0.9855
10121TIP3    H151854   3.310   3.163   1.026  0.1872 -1.2026 -1.7370
10121TIP3    H251855   3.223   3.143   1.149  0.4470  0.9433 -1.1668
10122TIP3   OH251856   3.418   4.492  11.518  0.2257  0.2147  0.0798
10122TIP3    H151857   3.496   4.534  11.481  0.2522 -0.3917 -0.5564
10122TIP3    H251858   3.376   4.449  11.444  0.0164 -0.6020  0.6587
10123TIP3   OH251859   2.222   2.317   3.656  0.0618  0.2101 -0.2729
10123TIP3    H151860   2.264   2.235   3.630  1.8242  0.7692  0.6825
10123TIP3    H251861   2.254   2.381   3.593  3.0589  1.2263  2.0539
10124TIP3   OH251862   1.511   2.837  10.699 -0.7576  0.1965  0.0408
10124TIP3    H151863   1.424   2.850  10.736 -1.0202 -0.4000 -0.3556
10124TIP3    H251864   1.495   2.813  10.607 -0.2268 -0.7895  0.1912
10125TIP3   OH251865   1.871   0.776   1.544 -1.2244 -0.0940  1.0416
10125TIP3    H151866   1.924   0.847   1.580 -1.1078 -0.1946  1.0676
10125TIP3    H251867   1.850   0.805   1.455 -0.8282 -0.2135  0.9086
10126TIP3   OH251868   5.086   3.387   3.225  0.5323  0.1026 -0.0910
10126TIP3    H151869   5.176   3.400   3.194  0.4545 -0.8291 -0.7297
10126TIP3    H251870   5.033   3.393   3.146  0.1297 -0.3405  0.1442
10127TIP3   OH251871   4.257   4.448  15.863 -0.2422  0.4464  0.1469
10127TIP3    H151872   4.247   4.543  15.866 -0.2383  0.4314  0.6041
10127TIP3    H251873   4.227   4.417  15.948  1.2763  0.1815  0.6306
10128TIP3   OH251874   4.505   1.501   4.199 -0.1191 -0.4889 -0.4402
10128TIP3    H151875   4.556   1.523   4.277  0.6312  0.3927 -1.1530
10128TIP3    H251876   4.567   1.456   4.142 -0.6562 -1.1078 -0.5438
10129TIP3   OH251877   4.582   4.230  12.668 -0.3358  0.4100  0.2363
10129TIP3    H151878   4.595   4.139  12.643 -3.8105 -0.5568  1.5016
10129TIP3    H251879   4.581   4.229  12.764  0.2775  1.9362  0.2917
10130TIP3   OH251880   1.009   6.387  12.412 -0.7041 -0.0012  0.2744
10130TIP3    H151881   0.987   6.342  12.331  1.2693  1.3798 -1.1258
10130TIP3    H251882   1.105   6.385  12.416 -0.7395 -0.0146  2.5855
10131TIP3   OH251883   0.859   4.210  16.424  0.2528 -0.4317 -0.5663
10131TIP3    H151884   0.776   4.164  16.408 -0.4541  0.5609  0.1702
10131TIP3    H251885   0.918   4.142  16.456 -0.8349 -0.8152  0.6814
10132TIP3   OH251886   3.267   1.907   1.933 -0.6673  0.2533  0.2788
10132TIP3    H151887   3.296   1.998   1.937  1.0927 -0.3083  2.5492
10132TIP3    H251888   3.235   1.895   1.844 -0.5255  2.9481 -0.2024
10133TIP3   OH251889   2.789   5.407   5.766 -0.1548 -0.4218  0.5027
10133TIP3    H151890   2.852   5.476   5.789  1.2205 -1.0878 -1.0422
10133TIP3    H251891   2.808   5.337   5.829  1.6538 -1.1460 -0.7652
10134TIP3   OH251892   3.520   4.760  14.794 -0.5324  0.3636 -0.1569
10134TIP3    H151893   3.540   4.681  14.845  2.4456  1.2276  0.1954
10134TIP3    H251894   3.587   4.762  14.726 -0.6615  2.4911 -0.2808
10135TIP3   OH251895   4.325   4.745  14.539 -0.1730 -0.5476  0.2380
10135TIP3    H151896   4.335   4.691  14.461 -0.4889  1.9351 -1.6527
10135TIP3    H251897   4.230   4.759  14.547 -0.0923 -0.2153  0.6580
10136TIP3   OH251898   2.993   5.519  10.547  0.3259 -0.3054 -0.5390
10136TIP3    H151899   2.910   5.542  10.588  1.2938  2.8469 -0.1297
10136TIP3    H251900   3.010   5.589  10.484  2.8604 -0.5947 -0.2874
10137TIP3   OH251901   6.702   5.681   3.916  0.5712  0.0674  0.9893
10137TIP3    H151902   6.722   5.759   3.968 -0.9990  0.6631  0.7721
10137TIP3    H251903   6.626   5.643   3.960  0.0556 -0.1752 -0.0718
10138TIP3   OH251904   4.867   1.559   3.465 -0.6730 -0.6422 -0.0297
10138TIP3    H151905   4.882   1.630   3.528 -1.6082  1.5121 -2.0357
10138TIP3    H251906   4.952   1.515   3.457  0.3964  1.2682  0.2009
10139TIP3   OH251907   2.191   5.028   0.863 -0.3384 -0.5577 -0.1302
10139TIP3    H151908   2.227   5.098   0.918 -2.2431  0.1260  0.3259
10139TIP3    H251909   2.251   4.955   0.875 -0.0744 -0.0653  1.9748
10140TIP3   OH251910   3.162   6.701   2.095 -0.0617 -0.1092  0.4691
10140TIP3    H151911   3.236   6.751   2.129 -1.7839  1.2246  2.4476
10140TIP3    H251912   3.122   6.759   2.029  0.0052 -0.3896  0.1766
10141TIP3   OH251913   3.020   3.263   4.087  0.7011  0.5350  0.4935
10141TIP3    H151914   3.027   3.202   4.160  1.4725  1.6472  1.3693
10141TIP3    H251915   2.925   3.275   4.075  0.5692  1.0692  1.9427
10142TIP3   OH251916   2.247   0.345   2.847  0.0307  0.0252  0.1632
10142TIP3    H151917   2.321   0.385   2.801  0.5111 -0.0617  0.8491
10142TIP3    H251918   2.214   0.415   2.904 -2.8875  1.3956 -2.8398
10143TIP3   OH251919   0.459   2.732   0.376  0.5969  0.2966 -0.0110
10143TIP3    H151920   0.499   2.818   0.391  0.9403  0.4258 -1.5285
10143TIP3    H251921   0.533   2.674   0.356  0.2681 -0.1213 -0.0338
10144TIP3   OH251922   5.602   1.604  14.423  0.1011 -0.0179  0.0022
10144TIP3    H151923   5.681   1.557  14.452  0.3065  0.5653  0.3973
10144TIP3    H251924   5.622   1.696  14.438 -0.5477  0.1556 -0.1752
10145TIP3   OH251925   6.641   1.917   3.599 -0.0798 -0.1909  0.0351
10145TIP3    H151926   6.686   1.909   3.683 -0.9687  1.8593  0.7906
10145TIP3    H251927   6.709   1.948   3.539  0.2938 -0.4897  0.2973
10146TIP3   OH251928   6.079   6.332  14.241  0.0202  0.7210 -0.5899
10146TIP3    H151929   6.072   6.249  14.194  3.6866 -0.5358  0.6700
10146TIP3    H251930   6.002   6.335  14.297 -0.0300 -2.0837 -0.3874
10147TIP3   OH251931   2.529   2.651  12.116  0.5853 -0.0859 -0.5750
10147TIP3    H151932   2.466   2.695  12.060 -0.1660 -0.2526  0.1250
10147TIP3    H251933   2.514   2.558  12.100  1.7606 -0.1163 -1.6058
10148TIP3   OH251934   6.446   6.304   1.381 -0.1462 -0.2881 -0.3710
10148TIP3    H151935   6.375   6.252   1.343  0.5851 -2.7944  1.4040
10148TIP3    H251936   6.403   6.363   1.443 -0.9015  0.4016 -1.5311
10149TIP3   OH251937   0.995   2.143   2.024  0.1666  0.2248 -0.8326
10149TIP3    H151938   1.061   2.209   2.046  0.4616 -0.0433 -0.9115
10149TIP3    H251939   1.044   2.062   2.016 -0.0135  0.2263 -2.0101
10150TIP3   OH251940   3.155   3.785  12.390  0.5129  0.4549  0.0684
10150TIP3    H151941   3.125   3.865  12.347  2.2147  1.2862  0.3197
10150TIP3    H251942   3.211   3.743  12.324  0.3719 -0.0477  0.2653
10151TIP3   OH251943   2.877   1.941   4.693  0.1505 -0.2246  0.3521
10151TIP3    H151944   2.834   1.911   4.613  0.9417 -1.7161  0.4324
10151TIP3    H251945   2.953   1.990   4.662 -0.5026  0.7022  0.2050
10152TIP3   OH251946   6.326   6.576   3.090  0.5642  0.0708 -0.2031
10152TIP3    H151947   6.380   6.529   3.026 -1.0653 -1.8568 -0.2537
10152TIP3    H251948   6.237   6.568   3.056  0.1770  3.6283 -0.4197
10153TIP3   OH251949   1.032   5.696   0.190  0.1186 -0.5374  0.0284
10153TIP3    H151950   1.065   5.724   0.275  1.4377 -1.8820 -0.0075
10153TIP3    H251951   1.046   5.772   0.132  0.8492 -0.2289  0.5996
10154TIP3   OH251952   2.335   0.789   3.771  0.3447  0.4507  0.1862
10154TIP3    H151953   2.303   0.871   3.733  0.5248 -0.2713 -1.6354
10154TIP3    H251954   2.262   0.728   3.761 -0.0395  0.5376  2.1734
10155TIP3   OH251955   1.089   3.398   2.285 -0.2399 -0.0174 -0.0490
10155TIP3    H151956   1.123   3.415   2.197  0.1927 -0.6521 -0.0084
10155TIP3    H251957   1.017   3.460   2.295 -0.2527  0.1036 -0.8258
10156TIP3   OH251958   0.027   5.078   5.489  0.6205  0.1359 -0.1478
10156TIP3    H151959  -0.010   4.991   5.473 -0.5563  0.7957 -1.2493
10156TIP3    H251960   0.104   5.082   5.432  0.1547  0.1255 -0.7942
10157TIP3   OH251961   0.355   6.459  12.523 -0.5431 -0.0699 -0.0505
10157TIP3    H151962   0.275   6.433  12.568 -0.2714  0.3980  0.7328
10157TIP3    H251963   0.326   6.509  12.447 -1.0288 -1.3502 -0.7388
10158TIP3   OH251964   5.379   3.407  11.071 -0.2244  0.1057 -0.2693
10158TIP3    H151965   5.364   3.312  11.066  0.0307  0.0058  0.6534
10158TIP3    H251966   5.300   3.446  11.034 -0.5208 -0.4635 -0.2442
10159TIP3   OH251967   1.559   6.328  11.967  0.0389 -0.3565  0.2888
10159TIP3    H151968   1.584   6.380  11.891 -0.2519  0.7104  0.9068
10159TIP3    H251969   1.627   6.261  11.974  1.9927  1.5967  1.0804
10160TIP3   OH251970   5.025   0.490   3.468  0.0342 -0.6905 -0.0725
10160TIP3    H151971   4.979   0.558   3.419 -1.2708 -2.3602 -1.3024
10160TIP3    H251972   5.116   0.499   3.442 -0.0699  0.7317 -0.0028
10161TIP3   OH251973   0.133   3.792  13.130 -0.5600 -0.4302  0.5925
10161TIP3    H151974   0.158   3.767  13.219 -0.2272 -0.2081  0.5644
10161TIP3    H251975   0.149   3.887  13.126  1.2511 -0.7370 -0.2777
10162TIP3   OH251976   2.065   4.700   3.829 -0.3257 -0.2611 -0.1903
10162TIP3    H151977   2.090   4.773   3.773 -1.3860 -1.4241 -2.2884
10162TIP3    H251978   2.143   4.644   3.832 -0.2697 -0.2008 -0.5186
10163TIP3   OH251979   5.934   3.871   2.813  0.3949 -0.1482 -0.3957
10163TIP3    H151980   5.973   3.951   2.849  1.1311  0.2069 -1.8763
10163TIP3    H251981   5.856   3.856   2.866  1.8360 -0.1541  1.8396
10164TIP3   OH251982   3.599   6.172   4.137 -0.3403  0.3551  0.2913
10164TIP3    H151983   3.540   6.150   4.065 -0.6873  0.0800  0.6587
10164TIP3    H251984   3.603   6.268   4.136  0.7833  0.3243 -0.9935
10165TIP3   OH251985   4.530   0.016  16.240 -0.0269 -0.1087  0.0468
10165TIP3    H151986   4.466   0.061  16.185  0.6648  1.2301  0.2957
10165TIP3    H251987   4.524  -0.075  16.213 -1.5456  0.0919 -0.4099
10166TIP3   OH251988   2.328   1.411  16.547 -0.1528 -0.0369  0.0907
10166TIP3    H151989   2.261   1.410  16.480 -1.0689  0.9324  0.9530
10166TIP3    H251990   2.328   1.501  16.581  1.4530 -0.0545  0.2443
10167TIP3   OH251991   2.127   5.670  10.443  0.1924  0.3832 -0.6971
10167TIP3    H151992   2.126   5.574  10.444  1.8346  0.3173  1.2106
10167TIP3    H251993   2.150   5.694  10.353 -1.4276 -0.9293 -1.5178
10168TIP3   OH251994   3.952   5.075  15.121 -0.1685  0.6314  0.0368
10168TIP3    H151995   3.873   5.098  15.072 -0.6587 -1.0858 -0.0358
10168TIP3    H251996   3.947   4.981  15.132  1.3813  0.6174  0.9256
10169TIP3   OH251997   0.513   3.463  10.945 -0.4976 -0.9334 -0.0181
10169TIP3    H151998   0.524   3.515  11.025  0.8722  0.6658 -1.1616
10169TIP3    H251999   0.518   3.372  10.975  0.9598 -0.3891  1.6170
10170TIP3   OH252000   4.349   4.440   1.124  0.0043 -0.0241  0.0980
10170TIP3    H152001   4.317   4.452   1.214 -0.9391  0.5547 -0.3001
10170TIP3    H252002   4.419   4.506   1.115 -0.6530  0.6837  0.0630
10171TIP3   OH252003   1.248   2.140   4.828 -0.2503  0.4257 -0.1239
10171TIP3    H152004   1.172   2.133   4.769  0.0235 -1.1150 -0.3294
10171TIP3    H252005   1.213   2.175   4.909 -1.0743  0.3371 -0.4352
10172TIP3   OH252006   0.467   3.840  13.603 -0.4955  0.4022  0.2678
10172TIP3    H152007   0.484   3.806  13.515  0.8335 -0.0207  0.6508
10172TIP3    H252008   0.433   3.765  13.651  1.8418 -0.3231  0.9420
10173TIP3   OH252009   3.011   5.251  16.582  0.4156 -0.1248 -0.2502
10173TIP3    H152010   2.916   5.264  16.586  0.4935  0.5468 -0.5008
10173TIP3    H252011   3.044   5.292  16.662  0.4924 -0.3751 -0.1546
10174TIP3   OH252012   1.463   6.108   1.900 -0.0481 -0.1896  0.8210
10174TIP3    H152013   1.512   6.078   1.977 -0.2495  1.0595  1.4474
10174TIP3    H252014   1.527   6.158   1.849 -0.4515  0.7576  1.2335
10175TIP3   OH252015   6.173   2.964  16.590 -0.0031 -0.2283 -0.0160
10175TIP3    H152016   6.219   3.046  16.605  2.1229 -1.6546  1.9257
10175TIP3    H252017   6.148   2.967  16.497  1.8947  1.6637 -0.5457
10176TIP3   OH252018   6.660   0.573   0.692  0.6906  0.1380 -0.1342
10176TIP3    H152019   6.686   0.490   0.732  0.6904 -0.4309 -1.2718
10176TIP3    H252020   6.685   0.639   0.756 -1.4974 -0.8543  1.8943
10177TIP3   OH252021   0.516   4.103  16.747 -0.0379  0.0032 -0.1772
10177TIP3    H152022   0.606   4.121  16.774 -0.4619  1.0262  0.6311
10177TIP3    H252023   0.466   4.103  16.829 -1.1380  1.7756 -0.7801
10178TIP3   OH252024   0.834   5.648  13.280 -0.5100  0.0585  0.2137
10178TIP3    H152025   0.792   5.688  13.356 -1.1082  1.2053 -0.6805
10178TIP3    H252026   0.927   5.670  13.289 -0.8262  1.7657 -0.2743
10179TIP3   OH252027   6.298   2.321  15.280 -0.0695  0.3047 -0.2544
10179TIP3    H152028   6.244   2.400  15.280 -0.7556 -0.0450 -2.9448
10179TIP3    H252029   6.301   2.294  15.371 -1.0133  2.6203  0.5516
10180TIP3   OH252030   2.983   3.918  15.321 -0.4129 -0.5895 -0.4975
10180TIP3    H152031   2.920   3.949  15.256  0.5497 -0.0376 -1.1992
10180TIP3    H252032   2.930   3.890  15.396 -1.4339  1.1474 -0.5170
10181TIP3   OH252033   4.387   3.600   5.716  0.1724  0.0394  0.5198
10181TIP3    H152034   4.473   3.568   5.744  0.2966 -0.1489 -0.0668
10181TIP3    H252035   4.328   3.527   5.732 -0.4187  1.0355  3.4606
10182TIP3   OH252036   2.082   0.033  13.771  0.0197 -0.1401 -0.2595
10182TIP3    H152037   2.080  -0.061  13.755 -0.7999 -0.3467  0.9682
10182TIP3    H252038   2.147   0.045  13.839  0.6531  0.2834 -0.9221
10183TIP3   OH252039   4.274   0.666   5.146 -0.0616  0.9400  0.1059
10183TIP3    H152040   4.185   0.701   5.145 -0.6263 -0.4425 -0.1678
10183TIP3    H252041   4.325   0.730   5.196 -1.4237  1.2772  1.1138
10184TIP3   OH252042   2.647   0.376   0.813  0.2242 -1.1452  0.0020
10184TIP3    H152043   2.684   0.304   0.865  1.8128 -0.4860 -0.1578
10184TIP3    H252044   2.605   0.332   0.739  0.2034 -1.9616  0.4794
10185TIP3   OH252045   5.435   4.388  11.059 -0.2349  0.1716  0.1906
10185TIP3    H152046   5.490   4.334  11.003  1.1058  2.5029 -0.9112
10185TIP3    H252047   5.349   4.388  11.016  0.2539  0.3516 -0.8136
10186TIP3   OH252048   6.471   0.327   0.830 -0.1593 -0.1864  0.3298
10186TIP3    H152049   6.560   0.360   0.842 -0.4882  0.2499  1.7661
10186TIP3    H252050   6.478   0.234   0.849  0.0906 -0.2822 -0.1882
10187TIP3   OH252051   2.715   1.056   6.145 -0.2834  1.0859 -0.1334
10187TIP3    H152052   2.748   0.966   6.140 -2.0679  0.4139 -0.3703
10187TIP3    H252053   2.794   1.110   6.152  0.8260 -0.4798 -0.1191
10188TIP3   OH252054   6.346   6.003   6.345 -0.2528 -0.1558 -0.0980
10188TIP3    H152055   6.382   6.065   6.409  0.1949 -0.5693  0.0609
10188TIP3    H252056   6.344   5.920   6.392 -0.0334 -0.4376 -0.5797
10189TIP3   OH252057   3.893   2.595  14.940 -0.6306  0.7150  0.4350
10189TIP3    H152058   3.864   2.642  14.862 -1.4757  1.6728  1.3009
10189TIP3    H252059   3.917   2.508  14.908  1.6583  1.9010 -1.3371
10190TIP3   OH252060   3.299   1.511  11.533 -0.2949 -0.5036  0.7520
10190TIP3    H152061   3.237   1.476  11.468  0.6425 -1.0689  0.1427
10190TIP3    H252062   3.354   1.437  11.557 -0.0784 -0.0942  1.5632
10191TIP3   OH252063   2.850   1.620  14.462 -0.4496  0.0560 -0.1201
10191TIP3    H152064   2.832   1.566  14.385  0.5367 -0.9121  0.3162
10191TIP3    H252065   2.763   1.637  14.500 -0.7219 -2.1440  0.3494
10192TIP3   OH252066   6.006   6.408   2.438  0.1012  0.4271 -0.3659
10192TIP3    H152067   6.098   6.431   2.425 -0.2883  1.7202 -0.9838
10192TIP3    H252068   5.986   6.347   2.367  0.3959  0.3965 -0.4230
10193TIP3   OH252069   0.486   5.338   3.488 -0.1098  0.3770 -0.1462
10193TIP3    H152070   0.520   5.282   3.558 -1.6610 -1.2894 -0.6322
10193TIP3    H252071   0.403   5.297   3.463 -1.4418  3.0359 -0.4297
10194TIP3   OH252072   5.233   5.224   5.385  0.3628 -0.5895  0.1529
10194TIP3    H152073   5.178   5.151   5.415 -1.4668 -0.2182 -1.9785
10194TIP3    H252074   5.188   5.302   5.418  1.0366 -0.3362  0.4867
10195TIP3   OH252075   4.882   2.726   2.403  0.5748 -0.4686 -0.1766
10195TIP3    H152076   4.970   2.759   2.387 -0.0974  1.4109 -0.3555
10195TIP3    H252077   4.867   2.660   2.335  1.8752 -0.9184 -0.0460
10196TIP3   OH252078   1.876   5.031   2.018 -0.5454 -0.2948  0.1074
10196TIP3    H152079   1.887   5.072   1.933 -2.6391  2.7527  1.1447
10196TIP3    H252080   1.819   4.956   2.002  0.2774 -0.6530 -1.3232
10197TIP3   OH252081   5.724   1.253  13.151  0.1413  0.2978 -0.8211
10197TIP3    H152082   5.736   1.242  13.245  0.0122 -0.8109 -0.9258
10197TIP3    H252083   5.811   1.236  13.114 -0.4150 -2.2884 -1.1256
10198TIP3   OH252084   5.788   4.836   5.464  0.2389  0.2032  0.1814
10198TIP3    H152085   5.839   4.916   5.457 -0.1334  0.3481 -1.1884
10198TIP3    H252086   5.800   4.792   5.379  0.0719 -0.9612  0.7392
10199TIP3   OH252087   5.562   4.581  15.521  0.5692  0.3841 -0.5653
10199TIP3    H152088   5.569   4.650  15.455  0.8382  0.6738 -0.2372
10199TIP3    H252089   5.479   4.598  15.566 -1.6842 -2.0847 -3.3641
10200TIP3   OH252090   4.832   3.253   5.072  0.4322 -0.1150 -0.1138
10200TIP3    H152091   4.874   3.339   5.065  1.5724 -0.3520  2.6021
10200TIP3    H252092   4.749   3.271   5.116  0.5364 -0.3534  0.1842
10201TIP3   OH252093   2.096   5.365   0.697 -0.4381 -0.4286 -0.3693
10201TIP3    H152094   2.130   5.418   0.770 -0.1222 -1.0832 -0.0291
10201TIP3    H252095   2.173   5.347   0.643 -0.5070 -0.7050 -0.3760
10202TIP3   OH252096   3.547   6.496   4.192 -0.4825  0.5443  0.4954
10202TIP3    H152097   3.567   6.564   4.127 -0.2134  0.0336  0.0318
10202TIP3    H252098   3.559   6.540   4.276  1.3314  0.6592  0.2338
10203TIP3   OH252099   4.679   0.649  16.111 -0.1001  0.4343  0.1890
10203TIP3    H152100   4.739   0.575  16.121  1.6899  1.8911  0.8655
10203TIP3    H252101   4.698   0.684  16.024 -0.9239  0.1324 -0.1202
10204TIP3   OH252102   6.690   5.692  11.625 -0.5754  0.2725  0.4322
10204TIP3    H152103   6.640   5.705  11.544  1.4915 -0.2234 -0.9971
10204TIP3    H252104   6.623   5.685  11.694 -2.4613 -0.5690 -1.3857
10205TIP3   OH252105   1.814   6.206   1.392  0.3606  0.4824 -0.0035
10205TIP3    H152106   1.799   6.300   1.383 -0.0948  0.3351 -0.8278
10205TIP3    H252107   1.909   6.198   1.397  0.4789  0.8879 -1.2235
10206TIP3   OH252108   1.240   5.898  13.513 -0.2143  0.1636 -0.4266
10206TIP3    H152109   1.202   5.929  13.595  0.5623  1.6734 -0.6078
10206TIP3    H252110   1.305   5.964  13.490  1.3282 -1.4900 -1.0064
10207TIP3   OH252111   6.708   0.751  16.217  0.3812  0.1985  0.0139
10207TIP3    H152112   6.651   0.796  16.154  2.0907  2.5931  0.0464
10207TIP3    H252113   6.661   0.670  16.237 -1.1521  0.2105 -2.8645
10208TIP3   OH252114   4.593   3.911  11.100 -0.0106 -0.1083  0.1218
10208TIP3    H152115   4.672   3.857  11.105  1.4408  2.0104  2.4219
10208TIP3    H252116   4.554   3.904  11.187  0.0549  2.1491  0.4109
10209TIP3   OH252117   5.867   2.582  17.099  0.0057 -0.1173  0.2020
10209TIP3    H152118   5.844   2.619  17.014  1.0571 -1.2559 -0.6128
10209TIP3    H252119   5.962   2.596  17.106 -0.3761  1.9885  2.2280
10210TIP3   OH252120   0.667   2.374  14.981  0.4043  0.7502 -0.2131
10210TIP3    H152121   0.668   2.379  15.077  2.5032 -1.5861 -0.0224
10210TIP3    H252122   0.743   2.321  14.959 -1.2651 -0.6838 -3.0763
10211TIP3   OH252123   5.832   6.848  15.136 -1.2021 -0.5188  0.2404
10211TIP3    H152124   5.776   6.924  15.122 -1.6339 -0.9738 -0.6106
10211TIP3    H252125   5.915   6.885  15.168 -1.3545  0.3223 -0.3007
10212TIP3   OH252126   3.239   4.137   0.070  0.0927  0.0202 -0.4185
10212TIP3    H152127   3.184   4.088   0.131 -0.9421 -0.5782 -1.7812
10212TIP3    H252128   3.278   4.070   0.014  0.2521  0.6294 -1.0507
10213TIP3   OH252129   4.163   1.191  13.004 -0.0005 -0.3474  0.3124
10213TIP3    H152130   4.211   1.273  13.011  0.5303 -0.7949  2.4433
10213TIP3    H252131   4.158   1.158  13.093 -0.2127 -2.6451 -0.4907
10214TIP3   OH252132   0.284   2.795   4.140 -0.0332  0.3111 -0.3333
10214TIP3    H152133   0.334   2.863   4.095  1.1599 -0.0088  0.4546
10214TIP3    H252134   0.332   2.779   4.222 -2.6460  1.6005  1.6271
10215TIP3   OH252135   0.083   4.079  13.842 -0.6124  0.8977 -0.3774
10215TIP3    H152136  -0.008   4.051  13.842 -0.6212  0.9245 -0.4525
10215TIP3    H252137   0.079   4.174  13.849 -0.5459  0.7909  1.7400
10216TIP3   OH252138   0.274   6.174   1.345 -0.4212  0.2106 -0.6931
10216TIP3    H152139   0.295   6.237   1.277  1.8828 -0.5370 -0.7858
10216TIP3    H252140   0.240   6.098   1.298 -0.2330  0.2394 -0.8759
10217TIP3   OH252141   5.259   2.683   3.141 -0.1260  0.5452 -0.6473
10217TIP3    H152142   5.242   2.777   3.134 -0.6190  0.4758 -0.4610
10217TIP3    H252143   5.172   2.644   3.147  0.0539  0.0227 -1.3546
10218TIP3   OH252144   0.079   5.064  13.745 -0.2525 -0.2183  0.2508
10218TIP3    H152145   0.129   5.131  13.790  0.1466 -1.2311  1.3758
10218TIP3    H252146   0.142   4.994  13.726 -0.9640 -0.9594  0.5412
10219TIP3   OH252147   1.437   6.697  13.468  0.0555  0.1952 -0.4020
10219TIP3    H152148   1.476   6.689  13.381  0.4743 -1.4892 -0.0972
10219TIP3    H252149   1.462   6.785  13.497 -0.5186  0.9800 -2.1563
10220TIP3   OH252150   4.179   4.074  15.331 -0.2671 -0.4022  0.1618
10220TIP3    H152151   4.102   4.060  15.276  0.8780 -0.8744 -1.3755
10220TIP3    H252152   4.197   4.168  15.323  0.2884 -0.5864 -0.8254
10221TIP3   OH252153   3.930   5.661  11.948  0.4570  0.1683  0.1915
10221TIP3    H152154   3.937   5.574  11.988 -3.2234  0.0503  0.9469
10221TIP3    H252155   3.907   5.719  12.021  0.1897  1.2330 -0.7092
10222TIP3   OH252156   1.646   4.055  10.983  0.5747 -0.0455 -0.3858
10222TIP3    H152157   1.566   4.099  11.011 -0.0734 -0.0103 -2.1684
10222TIP3    H252158   1.717   4.113  11.010  0.2559 -1.0779  3.2030
10223TIP3   OH252159   5.981   6.635  13.152 -0.8220  0.3100  0.0296
10223TIP3    H152160   6.026   6.702  13.100 -1.6698  0.5199 -0.4514
10223TIP3    H252161   5.992   6.555  13.101 -0.0563  0.1293  0.4624
10224TIP3   OH252162   1.891   6.064   1.621  0.4782  0.0135  0.1039
10224TIP3    H152163   1.837   6.118   1.563  0.9215 -1.3554 -1.6838
10224TIP3    H252164   1.827   6.015   1.674  0.0058 -0.0149 -0.4773
10225TIP3   OH252165   0.775   4.675  13.194  0.4214  0.2667 -0.1415
10225TIP3    H152166   0.811   4.677  13.105 -2.1614 -0.7238 -1.3033
10225TIP3    H252167   0.697   4.731  13.190  0.9404  1.2347  1.8849
10226TIP3   OH252168   3.117   5.118  12.303  0.5075  0.1749  0.3594
10226TIP3    H152169   3.029   5.119  12.340 -0.4474  2.1348 -1.7056
10226TIP3    H252170   3.172   5.157  12.370 -0.4643  0.2446  1.1365
10227TIP3   OH252171   5.205   5.276  15.754 -0.3176  0.3112  0.2185
10227TIP3    H152172   5.258   5.224  15.693 -0.4581 -0.7900  1.0135
10227TIP3    H252173   5.148   5.329  15.697 -0.0420 -0.2546 -0.6075
10228TIP3   OH252174   5.675   1.248  14.105  0.4183 -0.4499  0.0837
10228TIP3    H152175   5.647   1.312  14.040  1.1835 -0.1038  0.0812
10228TIP3    H252176   5.718   1.299  14.173  1.4537 -0.9880 -0.1423
10229TIP3   OH252177   6.665   4.283  12.635  0.4491  0.2765 -0.1575
10229TIP3    H152178   6.664   4.246  12.547  0.4161 -0.2439  0.0539
10229TIP3    H252179   6.607   4.359  12.630 -0.8746 -0.7027 -0.1941
10230TIP3   OH252180   5.762   1.726   5.231 -0.0331  0.2345 -0.4991
10230TIP3    H152181   5.676   1.767   5.226 -0.3908 -0.3787  0.3134
10230TIP3    H252182   5.769   1.697   5.322  0.2062 -1.4888 -1.0363
10231TIP3   OH252183   6.086   6.500   3.386  0.4707  0.1860 -0.8713
10231TIP3    H152184   6.115   6.409   3.393  0.3466  0.1166 -1.2281
10231TIP3    H252185   6.054   6.508   3.296  1.2683  0.8114 -1.1143
10232TIP3   OH252186   2.756   1.054   2.220 -0.0684  0.4300 -0.4458
10232TIP3    H152187   2.783   1.014   2.303 -0.8954  0.2796 -0.2419
10232TIP3    H252188   2.805   1.136   2.216  0.4553  0.1407 -0.1139
10233TIP3   OH252189   5.582   3.259   0.553 -0.4652 -0.0740  0.3122
10233TIP3    H152190   5.557   3.183   0.499  0.8552 -0.3944  0.1337
10233TIP3    H252191   5.508   3.320   0.543 -1.4374 -1.2190  0.2660
10234TIP3   OH252192   6.776   6.411  12.129 -0.3392  0.4201  0.1618
10234TIP3    H152193   6.845   6.344  12.132 -1.0341 -0.3028  0.7338
10234TIP3    H252194   6.775   6.441  12.038 -0.4844 -0.8757 -0.2840
10235TIP3   OH252195   4.057   3.196   2.229  0.2619 -0.3410 -0.2009
10235TIP3    H152196   4.092   3.109   2.211  0.7644 -0.5598  1.6162
10235TIP3    H252197   4.009   3.186   2.312 -0.1320  0.9891 -0.2355
10236TIP3   OH252198   5.165   6.127   3.314  0.1394  0.2409 -0.4616
10236TIP3    H152199   5.126   6.214   3.329 -0.4406  0.2193 -1.7083
10236TIP3    H252200   5.245   6.144   3.266  1.0562  0.1912  0.9856
10237TIP3   OH252201   1.687   1.046   3.686 -0.2665  0.2438 -0.1010
10237TIP3    H152202   1.663   1.043   3.593  0.2824  0.1373 -0.2434
10237TIP3    H252203   1.744   1.123   3.694  0.8291 -0.5388 -0.1402
10238TIP3   OH252204   3.153   4.689   0.809 -0.3384  0.4474  0.2170
10238TIP3    H152205   3.226   4.705   0.748 -0.0207  0.6289  0.6401
10238TIP3    H252206   3.075   4.717   0.761  0.1659  3.2777  0.8800
10239TIP3   OH252207   3.025   5.864   3.436 -0.1684  0.9832  0.0806
10239TIP3    H152208   2.941   5.823   3.417 -0.1755 -0.5981  2.9359
10239TIP3    H252209   3.086   5.822   3.375 -1.0062  0.1954 -0.2418
10240TIP3   OH252210   0.431   3.673  14.730 -0.1432  0.2607 -0.6987
10240TIP3    H152211   0.505   3.722  14.766 -2.2856  1.8353  1.9573
10240TIP3    H252212   0.385   3.737  14.676 -1.6360  0.5446  0.8314
10241TIP3   OH252213   0.107   4.310  13.069 -0.0677 -0.2775 -0.3292
10241TIP3    H152214   0.085   4.313  12.975 -3.0006  0.0308  0.2625
10241TIP3    H252215   0.088   4.399  13.100  2.1218  0.0052  0.3920
10242TIP3   OH252216   4.658   4.547  13.785  0.0499  0.0685  0.0121
10242TIP3    H152217   4.700   4.462  13.778  1.1259  0.6056 -0.2650
10242TIP3    H252218   4.697   4.599  13.716 -0.7978  0.7145  0.0014
10243TIP3   OH252219   1.285   1.447   1.293 -1.0127 -0.4464  0.1884
10243TIP3    H152220   1.322   1.404   1.216 -0.3011 -0.9993  0.8219
10243TIP3    H252221   1.267   1.376   1.354 -0.9318  0.0376  0.7933
10244TIP3   OH252222   6.184   2.573  13.919 -0.2625 -0.9659  0.5095
10244TIP3    H152223   6.273   2.558  13.887 -0.5321 -0.0179 -0.7736
10244TIP3    H252224   6.195   2.629  13.996  0.2042  0.1359 -0.3336
10245TIP3   OH252225   4.646   6.395  16.051 -0.2689 -0.4653 -0.4163
10245TIP3    H152226   4.618   6.384  16.142 -2.4500 -0.0323 -0.9642
10245TIP3    H252227   4.739   6.373  16.051  0.8945  3.3291  2.6961
10246TIP3   OH252228   2.707   3.601   3.567  0.3167 -0.2353 -0.1769
10246TIP3    H152229   2.629   3.552   3.592 -0.6961  1.3422 -0.0486
10246TIP3    H252230   2.720   3.664   3.638  0.7770  0.5356 -0.9115
10247TIP3   OH252231   2.709   6.800  14.833 -0.1845  0.0449 -0.0126
10247TIP3    H152232   2.767   6.851  14.777 -1.4164  1.4644 -0.0693
10247TIP3    H252233   2.767   6.750  14.890  1.0800 -0.3444 -1.5957
10248TIP3   OH252234   4.922   1.157   0.208 -0.2003  0.1689 -0.0537
10248TIP3    H152235   4.879   1.237   0.238 -0.9093 -0.7689  1.5821
10248TIP3    H252236   5.000   1.187   0.161 -1.0502  1.8251 -0.4949
10249TIP3   OH252237   1.681   3.714  16.048  0.3478 -0.3408  0.0219
10249TIP3    H152238   1.642   3.628  16.037 -2.1326  0.7359 -0.2380
10249TIP3    H252239   1.659   3.761  15.968  0.8007  0.8451  0.5654
10250TIP3   OH252240   0.893   3.773   4.073  0.8973  0.2169 -0.0238
10250TIP3    H152241   0.946   3.822   4.136  0.0033 -0.0708  0.9641
10250TIP3    H252242   0.860   3.698   4.122  3.1916 -2.1267 -1.7868
10251TIP3   OH252243   3.581   3.357   4.423  0.3936  0.2301  0.1485
10251TIP3    H152244   3.599   3.318   4.337  0.3693 -0.2753  0.3689
10251TIP3    H252245   3.490   3.384   4.418 -0.0638 -1.1627  0.5222
10252TIP3   OH252246   5.836   0.492   3.170  0.1568 -0.5412  0.5332
10252TIP3    H152247   5.860   0.402   3.191 -0.4968 -0.7609  0.3620
10252TIP3    H252248   5.784   0.521   3.245 -0.9786 -0.8499 -0.1220
10253TIP3   OH252249   6.464   3.532   1.493  0.0352  0.1968 -0.1266
10253TIP3    H152250   6.417   3.466   1.544 -0.2728 -1.6393 -2.6266
10253TIP3    H252251   6.450   3.507   1.402  1.8267  2.4293 -1.1140
10254TIP3   OH252252   3.825   3.712   6.271 -0.5011  0.0463 -0.6209
10254TIP3    H152253   3.878   3.790   6.286 -0.1192 -0.3643  0.2030
10254TIP3    H252254   3.875   3.660   6.207 -0.8673  0.5705 -1.3489
10255TIP3   OH252255   3.182   4.163   4.351  0.0984 -0.0989 -0.2152
10255TIP3    H152256   3.156   4.255   4.360  1.3433  0.1404  1.3769
10255TIP3    H252257   3.267   4.166   4.308  1.0006 -0.3347  1.4547
10256TIP3   OH252258   3.241   4.458   1.940 -0.2049  0.6532  0.3373
10256TIP3    H152259   3.182   4.532   1.953 -1.0870  0.0609 -0.2253
10256TIP3    H252260   3.220   4.425   1.852  0.6998  0.1959  0.2746
10257TIP3   OH252261   5.782   4.106   5.818  0.2051 -0.1695  0.4312
10257TIP3    H152262   5.737   4.175   5.769  2.3080  0.1711 -1.1154
10257TIP3    H252263   5.867   4.098   5.777  0.4313 -2.9948  1.2430
10258TIP3   OH252264   1.656   0.769   2.166 -0.0629  0.0123 -0.3334
10258TIP3    H152265   1.748   0.794   2.157  0.8563 -2.8628 -0.0039
10258TIP3    H252266   1.625   0.820   2.241  1.3542  0.7730 -0.2235
10259TIP3   OH252267   5.277   5.424   5.668 -0.4689  0.2388 -0.6552
10259TIP3    H152268   5.340   5.464   5.608  0.5236  0.4326  0.4765
10259TIP3    H252269   5.326   5.411   5.749 -1.3839 -1.2907 -0.3075
10260TIP3   OH252270   0.411   2.647  14.557 -0.4409  0.5184 -0.5464
10260TIP3    H152271   0.331   2.647  14.610 -0.4011  0.1025 -0.4874
10260TIP3    H252272   0.453   2.564  14.577  0.5758  1.2104  0.2647
10261TIP3   OH252273   6.389   2.813  15.054  0.5938  0.1772 -0.1435
10261TIP3    H152274   6.395   2.776  15.142 -2.7569  3.1012  1.5320
10261TIP3    H252275   6.453   2.884  15.053  0.8925 -0.0890 -0.2406
10262TIP3   OH252276   5.479   5.672  15.983  0.2271 -0.4052  0.0395
10262TIP3    H152277   5.424   5.622  15.923 -0.9452  1.9255 -0.9513
10262TIP3    H252278   5.452   5.643  16.070  0.3366 -2.1892 -0.4879
10263TIP3   OH252279   3.304   2.417   5.876 -0.4081 -1.0305 -0.1331
10263TIP3    H152280   3.235   2.467   5.919  1.1267 -0.9379  2.4269
10263TIP3    H252281   3.374   2.480   5.860  0.8886 -1.9406  1.6139
10264TIP3   OH252282   0.960   5.835   4.577 -0.5925 -0.4683  0.1510
10264TIP3    H152283   0.931   5.885   4.654  0.0432 -0.5589  0.4589
10264TIP3    H252284   1.055   5.831   4.586 -0.3660  0.6362 -1.3116
10265TIP3   OH252285   6.485   4.262  11.654  0.0279 -0.7121 -0.2103
10265TIP3    H152286   6.500   4.204  11.579  1.9927 -1.3456  0.6097
10265TIP3    H252287   6.390   4.265  11.663 -0.1821 -2.4589 -1.3140
10266TIP3   OH252288   2.429   1.288  12.906 -0.3261  0.1372 -0.1034
10266TIP3    H152289   2.368   1.217  12.926  0.1563 -0.0832  0.6199
10266TIP3    H252290   2.378   1.348  12.852 -0.6725 -0.8554 -0.9024
10267TIP3   OH252291   5.921   2.026  11.008  0.6359  0.5376 -0.2452
10267TIP3    H152292   5.950   1.938  10.987 -0.1779  0.2196 -0.0942
10267TIP3    H252293   5.999   2.080  10.999  1.1349 -0.1891 -0.3809
10268TIP3   OH252294   1.048   6.412  16.304 -0.0899 -0.5491 -0.3853
10268TIP3    H152295   1.068   6.476  16.373  0.3577 -1.6466  0.5267
10268TIP3    H252296   1.129   6.403  16.255  0.0012 -0.8061 -0.1878
10269TIP3   OH252297   5.970   1.399   2.973  0.1144 -0.5413  0.1274
10269TIP3    H152298   6.019   1.404   2.892  0.0270 -0.0044  0.1053
10269TIP3    H252299   5.984   1.483   3.016  0.3340 -0.8947  0.7724
10270TIP3   OH252300   2.434   1.259  14.511 -0.0619  0.1499 -0.0791
10270TIP3    H152301   2.472   1.176  14.538 -0.7163  0.0376  0.5154
10270TIP3    H252302   2.339   1.245  14.515 -0.1756  0.5374 -1.1910
10271TIP3   OH252303   5.978   3.959   4.403  0.8559  0.1728 -0.2839
10271TIP3    H152304   6.044   3.993   4.343  0.3051  0.9217 -0.4835
10271TIP3    H252305   5.898   4.006   4.379  0.4148 -0.2075  0.4179
10272TIP3   OH252306   1.917   4.576   3.613  0.2228  0.0716 -0.1271
10272TIP3    H152307   1.986   4.623   3.660  1.2401 -1.5777  0.1270
10272TIP3    H252308   1.876   4.521   3.680  0.1587 -0.5983 -0.7022
10273TIP3   OH252309   2.350   5.489  13.623 -0.7279 -0.0743  0.1778
10273TIP3    H152310   2.416   5.480  13.692  0.0034  1.6303 -0.2404
10273TIP3    H252311   2.285   5.549  13.660 -0.6327  0.3880 -0.3826
10274TIP3   OH252312   5.441   6.832   2.325  0.2361  0.4108  0.3612
10274TIP3    H152313   5.513   6.893   2.340  1.9673 -1.5144  0.3981
10274TIP3    H252314   5.426   6.791   2.411 -0.1642  0.0254  0.1167
10275TIP3   OH252315   1.348   3.692  11.858 -0.0553 -0.2683  0.0445
10275TIP3    H152316   1.347   3.686  11.953  1.4607 -1.6102  0.0030
10275TIP3    H252317   1.438   3.714  11.835 -0.5120  0.5805 -1.0778
10276TIP3   OH252318   3.095   4.620  15.501  0.0622  0.5050  0.0629
10276TIP3    H152319   3.015   4.604  15.550  0.5510 -1.0883  0.3807
10276TIP3    H252320   3.144   4.683  15.554  0.7272 -1.4286  1.8555
10277TIP3   OH252321   6.148   1.593  16.166 -0.5369  0.0878  0.1151
10277TIP3    H152322   6.169   1.565  16.255 -1.0666 -0.6292  0.0251
10277TIP3    H252323   6.053   1.608  16.167 -0.7856 -1.2129 -0.6453
10278TIP3   OH252324   3.440   6.516   3.828  0.7567 -0.0841  0.3068
10278TIP3    H152325   3.514   6.573   3.809  0.9119  0.0935  1.3883
10278TIP3    H252326   3.457   6.483   3.916 -1.5748  1.7435  1.5299
10279TIP3   OH252327   4.430   4.949   1.048 -0.9837  0.2781  0.1455
10279TIP3    H152328   4.491   4.983   1.113 -0.1346 -1.4380  0.3148
10279TIP3    H252329   4.356   4.916   1.099 -1.8360  1.8185 -0.0220
10280TIP3   OH252330   4.341   0.546  11.185  0.3018 -0.4418  0.1313
10280TIP3    H152331   4.248   0.549  11.162  0.6763 -1.4352 -1.7271
10280TIP3    H252332   4.342   0.558  11.280 -1.5509  1.6193 -0.0257
10281TIP3   OH252333   3.633   0.881  13.851  0.0568  0.1586  0.0337
10281TIP3    H152334   3.660   0.819  13.919 -0.7273 -0.2777 -0.0492
10281TIP3    H252335   3.675   0.964  13.876  0.7017 -0.2756  0.4179
10282TIP3   OH252336   6.599   0.713  11.362  0.4188  0.3240  0.1785
10282TIP3    H152337   6.527   0.655  11.388  0.4770  0.3695  0.4428
10282TIP3    H252338   6.569   0.753  11.280  1.0887 -1.3780 -0.9478
10283TIP3   OH252339   1.078   4.653   4.924 -0.5640  0.5316  0.7153
10283TIP3    H152340   0.995   4.699   4.937 -1.1302 -0.5598  1.1300
10283TIP3    H252341   1.058   4.586   4.859 -0.3611 -0.5546  1.7250
10284TIP3   OH252342   5.778   4.726  16.920 -0.6363  0.0161  0.3490
10284TIP3    H152343   5.752   4.741  16.829  0.3870 -0.2286  0.0028
10284TIP3    H252344   5.701   4.686  16.961 -0.8812 -0.4979 -0.5839
10285TIP3   OH252345   2.416   4.335   1.786  0.1035 -0.0670  0.0457
10285TIP3    H152346   2.375   4.280   1.720  0.3022 -2.4294  1.7706
10285TIP3    H252347   2.509   4.314   1.781  0.4136  1.2294 -0.2002
10286TIP3   OH252348   4.764   0.656   5.915 -0.2691  0.4417 -0.2276
10286TIP3    H152349   4.808   0.640   5.832  0.9674  0.0010  0.4839
10286TIP3    H252350   4.835   0.672   5.977 -1.2029  2.7198  0.3749
10287TIP3   OH252351   2.434   6.214   3.919 -0.0234  0.0611  0.0852
10287TIP3    H152352   2.338   6.205   3.923  0.0517 -0.7653  0.0996
10287TIP3    H252353   2.459   6.167   3.839  0.2347  1.5405 -0.7348
10288TIP3   OH252354   0.662   0.487   5.772 -0.1270 -0.2359 -0.4467
10288TIP3    H152355   0.704   0.512   5.855 -0.5845  1.7403 -0.7610
10288TIP3    H252356   0.611   0.564   5.748  0.8871 -0.3278 -3.1638
10289TIP3   OH252357   4.081   4.875  13.126 -0.0415 -0.1738 -0.1852
10289TIP3    H152358   4.155   4.843  13.074 -1.1193  1.0281 -2.6264
10289TIP3    H252359   4.100   4.968  13.140 -0.6999 -0.0471 -0.1054
10290TIP3   OH252360   2.258   6.184  15.210  0.1883  0.0649  0.1312
10290TIP3    H152361   2.306   6.241  15.150 -2.1268  1.9201 -0.0966
10290TIP3    H252362   2.175   6.168  15.165  0.1204 -2.2035  0.9456
10291TIP3   OH252363   4.181   0.772   0.822  0.0637  0.1650  0.2661
10291TIP3    H152364   4.163   0.781   0.729  2.1376  1.8801 -0.0549
10291TIP3    H252365   4.167   0.679   0.840  3.5691 -1.2221 -2.7723
10292TIP3   OH252366   6.241   5.932   1.991 -0.2012  0.2601  0.4134
10292TIP3    H152367   6.259   5.870   1.921  1.0725  0.0378  0.9148
10292TIP3    H252368   6.275   6.016   1.959 -2.0704  0.7937 -0.3349
10293TIP3   OH252369   5.318   6.848   2.829  0.0397 -0.2365 -0.3909
10293TIP3    H152370   5.314   6.918   2.894  0.8238 -1.7149  1.3373
10293TIP3    H252371   5.226   6.832   2.806 -0.2697  0.1851  0.5064
10294TIP3   OH252372   2.768   1.702  15.443  0.4100  0.2790 -0.4063
10294TIP3    H152373   2.862   1.707  15.425  0.9492  0.9454  2.1511
10294TIP3    H252374   2.742   1.792  15.462 -0.1500 -0.1804  1.2489
10295TIP3   OH252375   6.051   0.476  12.991  0.3092 -0.2515  0.1532
10295TIP3    H152376   6.114   0.421  13.036  0.0782 -0.4338  0.2557
10295TIP3    H252377   6.103   0.527  12.928  0.1571 -3.1150 -2.5473
10296TIP3   OH252378   0.687   6.158  14.234 -0.3899 -0.0875  0.8469
10296TIP3    H152379   0.643   6.073  14.226 -0.2063 -0.0940 -0.2514
10296TIP3    H252380   0.662   6.190  14.321 -0.0128 -1.5072  1.5121
10297TIP3   OH252381   4.870   5.433   6.418 -0.6080 -0.2973 -0.3021
10297TIP3    H152382   4.811   5.427   6.493 -0.3858  0.1890 -0.0883
10297TIP3    H252383   4.956   5.414   6.454 -0.1933  1.9135 -0.0238
10298TIP3   OH252384   5.071   6.286   4.209 -0.1009 -0.2377 -0.7130
10298TIP3    H152385   5.101   6.323   4.126 -1.1324  0.2322 -0.8944
10298TIP3    H252386   5.146   6.239   4.243  0.7690  0.7444 -1.2341
10299TIP3   OH252387   2.231   5.847   0.142  0.6951  0.2297  0.0569
10299TIP3    H152388   2.285   5.922   0.165  3.7254 -1.7415 -0.1333
10299TIP3    H252389   2.272   5.810   0.064 -0.6175 -1.7172  0.2106
10300TIP3   OH252390   0.622   6.495   0.875  0.0576  0.9210  0.0728
10300TIP3    H152391   0.580   6.565   0.824  1.1162  1.5287  0.0018
10300TIP3    H252392   0.715   6.510   0.864  0.3655 -1.6025 -1.4297
10301TIP3   OH252393   3.769   6.585  10.637  0.3106  0.3621  0.1032
10301TIP3    H152394   3.790   6.595  10.730  0.2153 -0.1490  0.1817
10301TIP3    H252395   3.687   6.632  10.626  0.6461  0.9765  0.1358
10302TIP3   OH252396   0.699   2.262  15.493  0.0348 -0.6866  0.0608
10302TIP3    H152397   0.765   2.310  15.543  0.1009  1.1289 -1.6477
10302TIP3    H252398   0.680   2.184  15.546  0.8995  0.5538  2.3151
10303TIP3   OH252399   2.855   4.970  15.599 -0.3630  0.1341 -0.3900
10303TIP3    H152400   2.819   5.058  15.584 -3.5946 -0.8919  0.5261
10303TIP3    H252401   2.907   4.979  15.679 -0.3522  1.2679 -0.5084
10304TIP3   OH252402   3.259   1.404   2.767 -0.6652  0.1041 -0.4484
10304TIP3    H152403   3.350   1.385   2.788 -0.4075 -2.0053 -2.8985
10304TIP3    H252404   3.247   1.496   2.792  1.5786 -0.0403  1.4961
10305TIP3   OH252405   2.926   6.738   1.406  0.0672 -0.1807  0.2117
10305TIP3    H152406   2.986   6.699   1.471 -1.1156 -3.1484 -0.3302
10305TIP3    H252407   2.932   6.680   1.330 -0.3492  1.8969 -1.4969
10306TIP3   OH252408   6.293   0.973  13.841  0.5420 -0.2714  0.7483
10306TIP3    H152409   6.345   0.898  13.812 -2.3680 -2.0403 -0.3754
10306TIP3    H252410   6.253   0.945  13.923 -1.0180 -0.2605  0.0363
10307TIP3   OH252411   0.422   2.837   2.088 -0.1371  0.0472 -0.1858
10307TIP3    H152412   0.339   2.788   2.084 -0.2523  0.2026  0.1984
10307TIP3    H252413   0.420   2.880   2.174  0.5736 -0.3477  0.0351
10308TIP3   OH252414   3.638   4.454   4.087  0.6666  0.2311  0.0157
10308TIP3    H152415   3.640   4.397   4.011  0.5935  1.7921 -1.2073
10308TIP3    H252416   3.601   4.536   4.055  0.4825  0.8856  1.7740
10309TIP3   OH252417   3.145   2.517   1.478  1.0200 -0.7063 -0.2799
10309TIP3    H152418   3.131   2.576   1.404  1.6956 -2.7914 -2.1884
10309TIP3    H252419   3.128   2.430   1.442  1.0397 -1.7908  2.1502
10310TIP3   OH252420   1.251   1.194   2.639  0.1060 -0.3643 -0.1720
10310TIP3    H152421   1.155   1.199   2.633 -0.0357  1.5743  2.0189
10310TIP3    H252422   1.277   1.282   2.668  2.2778 -1.5495  1.8021
10311TIP3   OH252423   2.122   5.872  11.972  0.1095  0.6851 -0.0116
10311TIP3    H152424   2.115   5.949  11.915  1.5247 -0.2205 -1.5259
10311TIP3    H252425   2.079   5.802  11.922 -1.5263  0.5309  1.5276
10312TIP3   OH252426   1.300   1.669  12.775 -0.0444 -0.3780  0.1552
10312TIP3    H152427   1.290   1.704  12.686 -1.0580 -1.3506 -0.1475
10312TIP3    H252428   1.394   1.672  12.792  0.2742 -0.9736 -1.3122
10313TIP3   OH252429   0.832   3.551   4.182  1.0714 -0.3404 -0.0473
10313TIP3    H152430   0.758   3.523   4.128  0.2155  0.5953  0.6081
10313TIP3    H252431   0.828   3.494   4.259  1.2219 -0.4970 -0.1550
10314TIP3   OH252432   6.562   5.620  16.856 -0.0791 -0.1199  0.3410
10314TIP3    H152433   6.596   5.626  16.767 -0.3113 -0.5177  0.2235
10314TIP3    H252434   6.549   5.711  16.883 -1.0491 -0.0253 -0.4294
10315TIP3   OH252435   5.705   0.194  13.075 -0.1409  0.1239  0.2372
10315TIP3    H152436   5.798   0.181  13.059  0.0047 -0.0934  1.2007
10315TIP3    H252437   5.690   0.160  13.163 -0.4887  3.0210  1.4151
10316TIP3   OH252438   3.174   6.221  15.976 -0.4038  0.3084 -0.0932
10316TIP3    H152439   3.194   6.130  15.959  3.0792  0.1213  3.5323
10316TIP3    H252440   3.116   6.219  16.053 -1.7413  1.2097 -1.0257
10317TIP3   OH252441   4.406   1.764   6.531 -0.3744  0.3476 -0.0858
10317TIP3    H152442   4.439   1.820   6.461  0.6253 -1.1733 -0.9113
10317TIP3    H252443   4.465   1.779   6.604  1.0173 -0.8467 -0.8877
10318TIP3   OH252444   4.684   2.839  13.140 -0.2823 -0.1919  0.3733
10318TIP3    H152445   4.766   2.884  13.161 -0.6476  0.4500  0.4471
10318TIP3    H252446   4.620   2.909  13.128 -0.4873 -0.6168 -1.1860
10319TIP3   OH252447   4.304   6.326   0.288  0.3663  0.5766 -0.3221
10319TIP3    H152448   4.239   6.362   0.227 -0.2131 -0.3337 -0.2618
10319TIP3    H252449   4.344   6.253   0.241  0.8273  0.6721 -0.0835
10320TIP3   OH252450   1.062   5.989   3.315 -0.3205 -0.1688  0.2916
10320TIP3    H152451   1.040   6.078   3.342  2.1952  0.8606 -0.7835
10320TIP3    H252452   1.108   5.952   3.390  3.4592  1.4519 -0.9596
10321TIP3   OH252453   0.845   1.059  12.484  0.3564 -0.7944  0.1595
10321TIP3    H152454   0.849   1.137  12.539 -1.3085  0.4313 -1.3209
10321TIP3    H252455   0.916   1.071  12.421  0.5710 -0.8538  0.3890
10322TIP3   OH252456   1.810   4.439  11.295  0.5464  0.3069  0.3729
10322TIP3    H152457   1.889   4.493  11.301 -0.2595  1.7693 -1.0517
10322TIP3    H252458   1.820   4.390  11.214  0.4922 -0.3734  0.7724
10323TIP3   OH252459   5.638   6.741  11.272  0.4936 -0.1834  0.0163
10323TIP3    H152460   5.692   6.706  11.343  0.4436 -1.7085 -0.6599
10323TIP3    H252461   5.578   6.670  11.250  1.0494 -0.0461 -2.0982
10324TIP3   OH252462   4.717   5.710   2.912 -0.0895  0.0690  0.1619
10324TIP3    H152463   4.716   5.633   2.969 -0.6595 -0.2975 -0.3292
10324TIP3    H252464   4.735   5.676   2.825  0.6615  0.6137  0.0936
10325TIP3   OH252465   3.809   2.522  14.562 -0.3747  0.1675  0.7412
10325TIP3    H152466   3.786   2.494  14.473  1.9918 -0.8769  0.3912
10325TIP3    H252467   3.763   2.605  14.573 -1.4477 -0.1124 -1.1142
10326TIP3   OH252468   6.215   6.177   2.627 -0.2964 -0.1617  0.5560
10326TIP3    H152469   6.212   6.177   2.531  1.1576  1.6109  0.4480
10326TIP3    H252470   6.155   6.108   2.653  0.1194 -1.4672 -1.6646
10327TIP3   OH252471   6.061   1.457   2.032  0.1035  0.1837  0.5521
10327TIP3    H152472   5.994   1.440   1.966  0.5595  0.2420  0.0695
10327TIP3    H252473   6.070   1.552   2.034  1.1553  0.1324 -0.3990
10328TIP3   OH252474   5.105   1.796   0.410 -0.1181 -0.0015 -0.3823
10328TIP3    H152475   5.010   1.781   0.404 -0.3371 -0.6420  2.8674
10328TIP3    H252476   5.143   1.709   0.417  0.4037  0.3016  0.9176
10329TIP3   OH252477   0.557   6.148  11.222  0.3724 -0.1929  0.0223
10329TIP3    H152478   0.463   6.139  11.206  0.2014 -2.8286  1.8746
10329TIP3    H252479   0.599   6.125  11.139 -0.5919 -0.0608 -0.5071
10330TIP3   OH252480   0.636   5.963  14.762 -0.2081 -0.2994 -0.0031
10330TIP3    H152481   0.544   5.972  14.738  0.3076  0.6606 -1.8200
10330TIP3    H252482   0.634   5.928  14.851 -2.3135 -0.2527  0.0279
10331TIP3   OH252483   1.039   1.124  12.284 -0.2111  0.0476 -0.0174
10331TIP3    H152484   1.025   1.218  12.295  2.2283  0.5474 -0.7194
10331TIP3    H252485   1.133   1.114  12.275 -0.5666 -1.8730 -4.8932
10332TIP3   OH252486   4.694   4.040   5.939 -0.3780 -0.0732  0.2304
10332TIP3    H152487   4.735   4.029   6.025  0.5724  0.4062 -0.1462
10332TIP3    H252488   4.636   4.116   5.950 -0.4247 -0.1448  0.4982
10333TIP3   OH252489   5.400   6.660   4.818  0.1467  0.2956  0.2219
10333TIP3    H152490   5.326   6.689   4.763  0.2135  1.5384  0.7491
10333TIP3    H252491   5.366   6.583   4.864 -0.0874 -0.4506 -1.1468
10334TIP3   OH252492   4.596   1.540   1.534 -0.0125 -0.6972 -0.3566
10334TIP3    H152493   4.600   1.589   1.616 -0.5671  0.1848 -0.8441
10334TIP3    H252494   4.664   1.580   1.479 -1.2559  0.3389 -1.1771
10335TIP3   OH252495   5.137   3.892  11.154 -0.1620 -0.0035  0.0261
10335TIP3    H152496   5.110   3.905  11.063 -0.5666  1.4884  0.3214
10335TIP3    H252497   5.191   3.969  11.174  0.2281 -0.4969  0.9440
10336TIP3   OH252498   4.866   6.432  11.456  0.4015  0.3308 -0.0321
10336TIP3    H152499   4.828   6.432  11.368 -1.1674 -1.0147  0.5800
10336TIP3    H252500   4.811   6.371  11.506  2.2643 -0.2438  1.4527
10337TIP3   OH252501   2.739   3.203  14.269  0.6832  0.6359 -0.1620
10337TIP3    H152502   2.690   3.164  14.341  1.8360 -2.5433 -0.9110
10337TIP3    H252503   2.673   3.232  14.207 -0.2827  0.7042  0.8785
10338TIP3   OH252504   2.786   6.779   2.289  0.2423 -0.0188  0.0399
10338TIP3    H152505   2.794   6.688   2.260 -0.0126  0.3938 -1.4193
10338TIP3    H252506   2.823   6.830   2.216  2.5455  0.9759  1.7668
10339TIP3   OH252507   3.280   3.924  13.164  0.4728  0.4827  0.0949
10339TIP3    H152508   3.361   3.906  13.211  0.0787  1.4156  1.1716
10339TIP3    H252509   3.210   3.900  13.225 -0.0739  3.9159  1.0522
10340TIP3   OH252510   2.728   6.360   2.099 -0.4737 -0.1255 -0.4479
10340TIP3    H152511   2.664   6.289   2.103 -0.3683 -0.1734  1.0934
10340TIP3    H252512   2.793   6.337   2.166  1.1028 -0.0154 -1.8802
10341TIP3   OH252513   6.517   2.445  14.658 -0.1667 -0.0556  0.1072
10341TIP3    H152514   6.520   2.349  14.659 -1.2720 -0.0954  1.4869
10341TIP3    H252515   6.564   2.472  14.736  2.2307  0.6711 -1.4641
10342TIP3   OH252516   2.400   3.748  11.119  0.4429  0.1338  0.0998
10342TIP3    H152517   2.467   3.773  11.055  1.9447 -1.5242  0.9511
10342TIP3    H252518   2.447   3.698  11.185 -1.6150 -0.9436  0.8320
10343TIP3   OH252519   2.512   5.935  12.390  0.3150  0.0109 -0.1977
10343TIP3    H152520   2.452   5.948  12.463 -2.5777 -0.6966 -2.2804
10343TIP3    H252521   2.504   6.015  12.338  1.9935  0.3237 -0.0285
10344TIP3   OH252522   0.105   4.773   5.893 -0.1620  0.0652 -0.0217
10344TIP3    H152523   0.108   4.712   5.819 -0.0629 -1.1506  0.9577
10344TIP3    H252524   0.014   4.771   5.922 -0.1636  0.4067  0.0033
10345TIP3   OH252525   1.282   6.411  11.497  0.1532  0.3588  0.0547
10345TIP3    H152526   1.212   6.471  11.523  1.1925  1.1834  1.1247
10345TIP3    H252527   1.319   6.382  11.580  0.2866 -1.0491 -0.4743
10346TIP3   OH252528   5.761   5.904  16.829  0.2978 -0.3189 -0.2795
10346TIP3    H152529   5.713   5.981  16.798  0.0929 -0.0091  0.7492
10346TIP3    H252530   5.830   5.890  16.764 -0.5015 -0.0966 -1.1981
10347TIP3   OH252531   0.595   4.652  11.181  0.1780 -0.1295  0.6122
10347TIP3    H152532   0.569   4.744  11.187 -0.1467 -0.2665  1.4624
10347TIP3    H252533   0.633   4.643  11.093 -0.2089  0.7033  0.3516
10348TIP3   OH252534   0.896   0.513  16.095 -0.1433  0.5764 -0.2082
10348TIP3    H152535   0.860   0.426  16.115  1.3593 -0.1803 -0.6363
10348TIP3    H252536   0.964   0.526  16.161 -1.0942  1.9648  0.5680
10349TIP3   OH252537   3.110   4.184  16.907 -0.4972 -0.2157  0.1964
10349TIP3    H152538   3.142   4.205  16.820 -0.6310  1.9533  0.6110
10349TIP3    H252539   3.189   4.171  16.960 -0.4094 -0.8558 -0.0870
10350TIP3   OH252540   3.189   5.397  16.404 -0.4602  0.0419 -0.1816
10350TIP3    H152541   3.106   5.350  16.401 -0.9229  0.8814 -0.8888
10350TIP3    H252542   3.172   5.473  16.460 -0.0568  0.0188 -0.0179
10351TIP3   OH252543   0.567   0.630   2.011 -0.6457  0.0368  0.5816
10351TIP3    H152544   0.519   0.645   1.929  0.0827 -1.0910 -0.0696
10351TIP3    H252545   0.658   0.648   1.989 -0.2918 -1.3270  0.8338
10352TIP3   OH252546   1.181   1.802  10.050  0.8175  0.0177  0.9470
10352TIP3    H152547   1.113   1.759   9.998  0.2493  0.4146  1.3452
10352TIP3    H252548   1.153   1.894  10.054  0.2541 -0.1973  2.8677
10353TIP3   OH252549   5.386   6.780   3.556 -0.1037 -0.5258 -0.3000
10353TIP3    H152550   5.482   6.773   3.560 -0.1033 -1.1536 -1.1544
10353TIP3    H252551   5.355   6.692   3.577 -0.5008 -0.3084  0.0283
10354TIP3   OH252552   2.199   3.123   3.284 -0.2362 -0.1622 -0.2802
10354TIP3    H152553   2.136   3.192   3.263  0.1342  0.3179  0.1613
10354TIP3    H252554   2.160   3.077   3.359  1.0792  1.7628  1.7168
10355TIP3   OH252555   5.053   1.307  11.804  0.1754 -0.6239 -0.0838
10355TIP3    H152556   5.029   1.256  11.726  1.2059  0.2498 -0.9982
10355TIP3    H252557   4.970   1.317  11.852 -0.2593 -2.1639 -0.4629
10356TIP3   OH252558   6.128   3.424   1.822 -0.4509 -0.1973 -0.4961
10356TIP3    H152559   6.146   3.342   1.867 -0.6933 -0.8969 -1.6256
10356TIP3    H252560   6.205   3.478   1.839 -0.6210 -0.3639  0.8877
10357TIP3   OH252561   6.167   6.477  15.170 -0.3144 -0.3987 -0.2394
10357TIP3    H152562   6.146   6.566  15.143  0.7167  0.0443  0.3618
10357TIP3    H252563   6.147   6.475  15.264  1.1761 -0.2864  0.1125
10358TIP3   OH252564   0.607   4.753  12.834 -0.0299 -0.3954  0.0570
10358TIP3    H152565   0.591   4.784  12.923  1.2976  1.9146 -0.4330
10358TIP3    H252566   0.551   4.676  12.825 -3.5813  1.7364  1.4576
10359TIP3   OH252567   2.153   3.408  14.147 -0.1778 -0.0029  0.3221
10359TIP3    H152568   2.221   3.453  14.098 -1.1666  0.1232 -0.9973
10359TIP3    H252569   2.077   3.408  14.088 -1.1947 -0.4905  1.5803
10360TIP3   OH252570   1.065   4.100  16.099  0.0809  0.5131 -0.5965
10360TIP3    H152571   1.156   4.106  16.128  0.3966 -0.9750 -1.2254
10360TIP3    H252572   1.049   4.007  16.086 -1.6672  0.7100 -0.1201
10361TIP3   OH252573   0.626   6.826  14.854  0.5664  0.1340  0.1590
10361TIP3    H152574   0.663   6.882  14.786  1.2017 -0.4454  0.0204
10361TIP3    H252575   0.577   6.759  14.807  1.6056 -0.6917  0.2366
10362TIP3   OH252576   3.965   3.219   4.084 -0.2300 -0.3534  0.2339
10362TIP3    H152577   4.010   3.249   4.005 -0.5383  0.1623  0.2508
10362TIP3    H252578   4.036   3.189   4.141  0.0684  0.1064  0.1156
10363TIP3   OH252579   5.292   0.501  14.657 -0.2927  0.3451 -0.3495
10363TIP3    H152580   5.375   0.474  14.698 -0.0954 -0.4579 -1.2411
10363TIP3    H252581   5.294   0.596  14.660  0.4297  0.3254  0.0952
10364TIP3   OH252582   0.211   5.285  10.614  0.0569 -0.2945 -0.2416
10364TIP3    H152583   0.163   5.219  10.564 -2.3597  0.1906  1.2357
10364TIP3    H252584   0.267   5.235  10.673  0.3169 -0.9268 -1.0012
10365TIP3   OH252585   3.876   5.937  15.826  0.9248 -0.0824  0.3835
10365TIP3    H152586   3.835   6.023  15.835 -1.5579 -1.1260  0.0012
10365TIP3    H252587   3.833   5.883  15.892 -0.2425 -1.8842 -1.7269
10366TIP3   OH252588   1.043   4.291   3.052  0.0407  0.2250  0.1226
10366TIP3    H152589   0.958   4.262   3.021  0.4857  0.3693 -1.3363
10366TIP3    H252590   1.105   4.255   2.989  1.0594  0.2124  1.0871
10367TIP3   OH252591   5.957   4.118  16.889 -0.4602 -0.0126  0.0558
10367TIP3    H152592   5.976   4.165  16.970 -0.7222 -1.0408  0.7315
10367TIP3    H252593   6.035   4.132  16.835  0.1191 -0.0690  0.8428
10368TIP3   OH252594   0.583   3.730   6.386 -0.3856  0.1797  0.5889
10368TIP3    H152595   0.567   3.664   6.318 -0.7081  1.6234 -0.7746
10368TIP3    H252596   0.590   3.679   6.467  0.3633 -1.6297 -0.5473
10369TIP3   OH252597   6.759   5.419   3.943  0.5106  0.0635  0.0680
10369TIP3    H152598   6.709   5.380   3.872  1.3680  0.5325 -0.8212
10369TIP3    H252599   6.752   5.513   3.928 -0.6039  0.2419  1.5351
10370TIP3   OH252600   2.954   1.458   4.407  0.2714  0.3626  0.4584
10370TIP3    H152601   2.998   1.412   4.335 -1.3369  0.8262 -0.8906
10370TIP3    H252602   2.888   1.397   4.438 -1.3318  1.3666 -0.8005
10371TIP3   OH252603   6.617   3.974   5.733  0.0122  0.3133  0.0330
10371TIP3    H152604   6.653   4.051   5.776  1.5017 -0.1876 -0.2698
10371TIP3    H252605   6.627   3.992   5.639  1.1893 -0.5918 -0.0380
10372TIP3   OH252606   0.616   1.489   1.843 -0.0311  0.3294  0.0189
10372TIP3    H152607   0.633   1.573   1.799 -0.6064  0.8923  0.8273
10372TIP3    H252608   0.619   1.424   1.773 -0.4224  1.1359 -0.7718
10373TIP3   OH252609   1.111   6.603  13.755 -0.6836  0.1806  0.0364
10373TIP3    H152610   1.123   6.697  13.764  1.0685  0.2869 -2.4213
10373TIP3    H252611   1.016   6.590  13.766 -1.1756  2.4230 -0.9120
10374TIP3   OH252612   2.548   1.851  14.169  0.3896  0.5260  0.0504
10374TIP3    H152613   2.523   1.801  14.247 -1.6368  1.8515  0.3277
10374TIP3    H252614   2.626   1.806  14.136  0.8137 -0.5816  2.3439
10375TIP3   OH252615   3.649   1.033   0.904 -0.1237  0.0095 -0.1285
10375TIP3    H152616   3.631   1.072   0.818  1.4053 -1.6039 -1.2325
10375TIP3    H252617   3.632   1.104   0.966 -0.8741  1.3402 -1.7779
10376TIP3   OH252618   5.533   1.065  10.899 -0.8586 -0.6341 -0.5947
10376TIP3    H152619   5.461   1.041  10.958 -0.5420 -1.3867 -0.5073
10376TIP3    H252620   5.541   0.991  10.840 -0.0665 -0.6130 -0.5199
10377TIP3   OH252621   1.553   4.961  11.491  0.6180  0.3644  0.5161
10377TIP3    H152622   1.582   5.050  11.511  0.2430  0.3403  1.1985
10377TIP3    H252623   1.615   4.930  11.425  1.6782  0.5872  1.3678
10378TIP3   OH252624   5.135   2.926  15.571 -0.4283 -0.7974 -0.3296
10378TIP3    H152625   5.093   2.885  15.495 -1.4289 -1.2548  0.4472
10378TIP3    H252626   5.224   2.890  15.571 -0.2191 -0.3189 -1.6259
10379TIP3   OH252627   3.858   3.181  11.141  0.0363 -0.1441  0.2635
10379TIP3    H152628   3.855   3.176  11.045  0.7533  1.6622  0.1041
10379TIP3    H252629   3.792   3.247  11.164  0.7174  0.3411  0.8888
10380TIP3   OH252630   4.122   4.274  17.023 -0.8481  0.2216 -0.0288
10380TIP3    H152631   4.041   4.233  16.992 -0.3433 -0.2858 -0.7060
10380TIP3    H252632   4.094   4.361  17.053 -1.3810  0.7700 -1.9350
10381TIP3   OH252633   3.890   1.301   3.201 -0.3576  0.4092  0.1119
10381TIP3    H152634   3.834   1.357   3.147  0.9064  1.4249 -0.1906
10381TIP3    H252635   3.969   1.352   3.215  1.2560 -1.6539 -0.9515
10382TIP3   OH252636   1.812   1.749   4.837  0.0543  0.1270 -0.4795
10382TIP3    H152637   1.812   1.721   4.745  0.6646  3.4237 -1.6134
10382TIP3    H252638   1.721   1.775   4.854  0.2322  0.8879 -0.6538
10383TIP3   OH252639   2.758   6.265  14.956  0.0576  0.1009  0.0513
10383TIP3    H152640   2.709   6.339  14.920 -0.3448 -0.9759 -1.7831
10383TIP3    H252641   2.847   6.278  14.925 -0.2503 -0.7326 -1.2498
10384TIP3   OH252642   1.860   2.623   1.255 -0.0518  0.2827  0.0498
10384TIP3    H152643   1.922   2.695   1.261 -1.6498  1.8470 -1.3350
10384TIP3    H252644   1.849   2.608   1.161 -1.1198 -0.5387  0.2843
10385TIP3   OH252645   3.475   5.005  16.593  0.2103  0.2696  0.6900
10385TIP3    H152646   3.471   4.910  16.605  1.1619 -0.4657 -3.3307
10385TIP3    H252647   3.409   5.023  16.526  1.6838  2.0225 -0.3720
10386TIP3   OH252648   6.808   5.678   2.924 -0.8154  0.0982  0.4654
10386TIP3    H152649   6.819   5.611   2.856 -0.9386 -0.5894  1.1122
10386TIP3    H252650   6.875   5.743   2.904  0.0557 -0.7658  0.4643
10387TIP3   OH252651   3.765   0.371  13.613 -0.2215 -0.2771  0.1202
10387TIP3    H152652   3.832   0.303  13.612 -0.9274 -1.0815  1.9620
10387TIP3    H252653   3.684   0.325  13.634 -0.8175  1.0441  0.8939
10388TIP3   OH252654   2.564   1.147  11.865 -0.5379  0.2715  0.1417
10388TIP3    H152655   2.553   1.194  11.782  0.5643  0.8182  0.2825
10388TIP3    H252656   2.474   1.126  11.893 -0.9758  1.0117 -0.6592
10389TIP3   OH252657   2.449   0.810  12.683 -0.0914  0.0262  0.1113
10389TIP3    H152658   2.356   0.825  12.700 -0.0186 -1.2310  1.9757
10389TIP3    H252659   2.453   0.783  12.592 -1.7351 -1.0959  0.3302
10390TIP3   OH252660   2.878   3.539  11.045 -0.8788 -0.1846 -0.5267
10390TIP3    H152661   2.948   3.578  10.992 -0.1557 -0.3679  0.2708
10390TIP3    H252662   2.885   3.585  11.130 -0.8925 -1.0958 -0.0246
10391TIP3   OH252663   0.781   2.390  11.483 -0.3091 -0.4628 -0.1804
10391TIP3    H152664   0.702   2.352  11.520 -0.1222 -1.3655 -0.6696
10391TIP3    H252665   0.842   2.316  11.475 -0.0506 -0.1400 -1.4654
10392TIP3   OH252666   2.061   3.628   2.116  0.1489  0.0845 -0.0431
10392TIP3    H152667   2.094   3.624   2.206  0.1116  1.2817  0.0405
10392TIP3    H252668   2.107   3.558   2.070  0.8104  0.0165  0.7011
10393TIP3   OH252669   0.068   3.879   4.371  0.3644  0.1154  0.5951
10393TIP3    H152670   0.136   3.878   4.438  1.7461 -1.7484 -0.7321
10393TIP3    H252671   0.112   3.852   4.291 -1.6293  0.3840 -0.6692
10394TIP3   OH252672   2.616   2.998   2.544 -0.0944 -0.1483  0.2641
10394TIP3    H152673   2.703   2.979   2.509 -0.7105 -0.6143 -1.0809
10394TIP3    H252674   2.598   2.926   2.604  0.2215 -0.3637  0.1049
10395TIP3   OH252675   5.071   1.550  15.593 -0.2421  0.4626  0.4556
10395TIP3    H152676   5.038   1.478  15.647 -1.2194  2.0949  2.1183
10395TIP3    H252677   5.040   1.629  15.635  1.9075  1.9674 -0.5639
10396TIP3   OH252678   3.458   0.251  12.354  0.2256 -0.2457  0.5623
10396TIP3    H152679   3.480   0.175  12.409  1.4911 -0.8160 -0.6890
10396TIP3    H252680   3.397   0.217  12.289 -1.4876  0.4913  1.7054
10397TIP3   OH252681   4.983   4.300  11.968 -0.6062 -0.2647 -0.2677
10397TIP3    H152682   4.957   4.332  12.054 -0.4139 -0.4918 -0.1207
10397TIP3    H252683   4.949   4.364  11.907  0.9119  0.9384  0.0958
10398TIP3   OH252684   0.587   0.366  15.128 -0.3447  0.2478 -0.1125
10398TIP3    H152685   0.659   0.385  15.068 -0.8650  0.8163 -0.5756
10398TIP3    H252686   0.626   0.312  15.196  0.3466 -0.0753 -0.7535
10399TIP3   OH252687   6.224   1.959   0.906 -0.0932 -0.1354 -0.3097
10399TIP3    H152688   6.149   1.992   0.857 -0.1559  2.0273  1.0748
10399TIP3    H252689   6.189   1.890   0.961 -0.8429  0.1016 -0.4796
10400TIP3   OH252690   5.822   0.655  16.338 -0.4009 -0.4870  0.6656
10400TIP3    H152691   5.803   0.588  16.272 -0.3997 -0.3330  0.5100
10400TIP3    H252692   5.809   0.738  16.293  1.7566 -0.3475  0.2160
10401TIP3   OH252693   4.854   4.814  11.036  0.6456  0.2297 -0.2041
10401TIP3    H152694   4.921   4.856  10.981  0.9049 -0.4992 -0.4737
10401TIP3    H252695   4.839   4.729  10.993 -1.4763  0.9264 -0.9469
10402TIP3   OH252696   2.909   6.584   1.164  0.0272 -0.0352 -0.2201
10402TIP3    H152697   2.939   6.518   1.102 -0.5343 -1.0344  0.5412
10402TIP3    H252698   2.856   6.644   1.111 -3.9718 -3.1174 -0.2124
10403TIP3   OH252699   6.690   3.776   5.465 -0.5302 -0.1111 -0.2158
10403TIP3    H152700   6.765   3.765   5.525 -0.4917 -0.6561 -0.3596
10403TIP3    H252701   6.720   3.841   5.402 -0.4814  0.2903  0.2187
10404TIP3   OH252702   0.551   5.336  13.677  0.4610  0.0601 -0.1753
10404TIP3    H152703   0.503   5.380  13.607  0.1143 -0.7944 -0.4887
10404TIP3    H252704   0.518   5.246  13.676  1.8195 -0.4559 -0.1564
10405TIP3   OH252705   5.131   5.904   2.548 -0.6710  0.4922 -0.4437
10405TIP3    H152706   5.087   5.924   2.631 -3.1734  1.8087 -1.9793
10405TIP3    H252707   5.071   5.844   2.503  0.5387 -0.0257 -1.4356
10406TIP3   OH252708   4.669   4.678   4.028  0.1925  0.2357 -0.7385
10406TIP3    H152709   4.597   4.702   3.970 -0.9962 -2.2602 -0.4524
10406TIP3    H252710   4.641   4.709   4.114  0.2892  0.8053 -0.9084
10407TIP3   OH252711   4.481   2.770  14.528 -0.0103 -0.0734 -0.6068
10407TIP3    H152712   4.504   2.728  14.611 -0.4404  2.8959  1.1552
10407TIP3    H252713   4.564   2.771  14.479  0.2889 -1.7402 -0.2280
10408TIP3   OH252714   0.744   6.030   4.614  0.5230 -0.2802 -0.0318
10408TIP3    H152715   0.836   6.043   4.587  0.9236 -3.2477 -0.3621
10408TIP3    H252716   0.700   6.001   4.534 -0.1662 -1.1400  0.6421
10409TIP3   OH252717   5.289   1.380   3.593  0.4360  0.1515 -0.2331
10409TIP3    H152718   5.228   1.309   3.612  0.3431  0.1280 -0.6073
10409TIP3    H252719   5.375   1.337   3.590  0.3757  0.0438 -0.4983
10410TIP3   OH252720   6.522   5.799  13.795 -0.4353  0.1093 -0.0491
10410TIP3    H152721   6.430   5.807  13.817 -0.0918  0.4471  1.3991
10410TIP3    H252722   6.544   5.708  13.812 -0.6575 -0.1600 -1.1240
10411TIP3   OH252723   2.526   2.594   2.843 -0.3052  0.0964 -0.4240
10411TIP3    H152724   2.531   2.523   2.907  2.6153  0.4566 -0.1009
10411TIP3    H252725   2.507   2.672   2.895  2.5952  0.4819  0.2518
10412TIP3   OH252726   6.844   5.754  15.753 -0.0305 -0.1796 -0.0808
10412TIP3    H152727   6.754   5.750  15.721 -0.3126 -1.4444  0.7711
10412TIP3    H252728   6.836   5.779  15.845  0.4924 -0.2118 -0.0234
10413TIP3   OH252729   6.796   5.666   6.012  0.4068 -0.1474  0.2364
10413TIP3    H152730   6.701   5.664   6.021  0.5087 -0.1104  1.4697
10413TIP3    H252731   6.819   5.582   5.974 -0.3844  1.0949 -3.4078
10414TIP3   OH252732   5.128   3.161   1.494 -0.5567 -0.0751  0.2504
10414TIP3    H152733   5.195   3.141   1.428 -1.0017  0.8983 -0.5369
10414TIP3    H252734   5.122   3.082   1.548 -0.0014 -0.8058 -0.7265
10415TIP3   OH252735   3.422   0.661  13.662 -0.0413 -0.3517  0.3326
10415TIP3    H152736   3.426   0.756  13.654  2.0670 -0.3643  0.7325
10415TIP3    H252737   3.334   0.638  13.631  0.0296  1.5453 -1.4564
10416TIP3   OH252738   2.560   0.103  14.372 -0.1656  0.0295  0.6032
10416TIP3    H152739   2.646   0.062  14.384 -0.4710 -0.3934  1.4946
10416TIP3    H252740   2.539   0.138  14.459 -0.2052  1.5252  0.0214
10417TIP3   OH252741   5.649   3.607   2.004 -0.0273  0.3373 -0.2146
10417TIP3    H152742   5.606   3.660   1.936  0.4953  0.3081 -0.5779
10417TIP3    H252743   5.719   3.663   2.037  1.0060 -0.3903 -1.1254
10418TIP3   OH252744   0.454   0.321   4.087 -0.0652 -0.3135 -0.1195
10418TIP3    H152745   0.411   0.323   4.002 -1.0875 -0.9099  0.3503
10418TIP3    H252746   0.518   0.392   4.084 -1.7229  1.2287 -0.5451
10419TIP3   OH252747   3.238   0.148   1.211 -0.1437 -0.2790  1.0388
10419TIP3    H152748   3.162   0.206   1.212  1.3140  1.9558 -1.6820
10419TIP3    H252749   3.218   0.082   1.146  0.6223  1.0746 -0.6549
10420TIP3   OH252750   5.204   3.423  15.202  0.4252  0.1102  0.0514
10420TIP3    H152751   5.248   3.503  15.231  0.6348 -0.1522  0.4671
10420TIP3    H252752   5.221   3.360  15.272 -1.7426  0.3631  0.8640
10421TIP3   OH252753   2.564   0.749   0.712 -0.1394  0.2855  0.4508
10421TIP3    H152754   2.655   0.719   0.711 -0.7229 -1.6432 -1.2747
10421TIP3    H252755   2.518   0.684   0.765 -0.7554  0.4533  0.1265
10422TIP3   OH252756   5.199   5.468   5.070 -0.3702  0.3252 -0.1454
10422TIP3    H152757   5.173   5.408   5.000 -2.8534  0.5447  0.4981
10422TIP3    H252758   5.273   5.425   5.112  0.0834 -0.6218 -1.8270
10423TIP3   OH252759   5.982   2.024  16.942 -0.1538 -0.4278 -0.4544
10423TIP3    H152760   6.001   2.085  17.013 -1.3450  0.4224 -0.8435
10423TIP3    H252761   6.024   1.942  16.970 -0.4521 -0.0660  1.1495
10424TIP3   OH252762   3.325   5.150  12.762 -0.3820 -0.1912  0.6314
10424TIP3    H152763   3.415   5.145  12.729 -0.1646  1.6327  0.8703
10424TIP3    H252764   3.288   5.064  12.743  1.6555 -1.2662  1.2680
10425TIP3   OH252765   0.120   1.971   3.790  0.1261 -0.5706  0.4831
10425TIP3    H152766   0.123   1.942   3.698  1.1007 -0.9919  0.6371
10425TIP3    H252767   0.126   1.890   3.840  0.3975 -0.2804  0.9215
10426TIP3   OH252768   3.277   3.179   4.693 -0.1138  0.2824  0.3318
10426TIP3    H152769   3.227   3.102   4.723  1.2350 -1.4762 -1.6442
10426TIP3    H252770   3.323   3.148   4.615  3.6412  1.9105  1.6740
10427TIP3   OH252771   0.863   2.072  11.985  0.2437 -0.1170 -0.4411
10427TIP3    H152772   0.856   1.998  11.925 -0.4941  0.3821 -0.9869
10427TIP3    H252773   0.777   2.114  11.982  0.5266  0.5307  0.1617
10428TIP3   OH252774   3.663   5.675   5.794  0.1468  0.4374  0.0762
10428TIP3    H152775   3.735   5.705   5.738 -0.1395 -0.3201 -0.7082
10428TIP3    H252776   3.643   5.587   5.763 -0.4080  0.2240  1.0006
10429TIP3   OH252777   0.895   4.946  11.310 -0.0283  0.1557 -0.3766
10429TIP3    H152778   0.934   4.991  11.235 -1.5238  0.0666 -1.2387
10429TIP3    H252779   0.918   4.854  11.298  0.8951  0.3229  0.0301
10430TIP3   OH252780   0.945   6.215  14.483  0.0625  0.8002 -0.4318
10430TIP3    H152781   0.908   6.177  14.562  1.9456 -0.8548 -0.2937
10430TIP3    H252782   0.959   6.307  14.505  1.0932  0.2490  1.3785
10431TIP3   OH252783   1.331   3.113  12.900 -0.1859  0.1651 -0.2791
10431TIP3    H152784   1.238   3.087  12.900 -0.0491 -0.3787 -1.1236
10431TIP3    H252785   1.347   3.142  12.810  0.3858  0.5616 -0.0520
10432TIP3   OH252786   0.426   2.060   2.510 -0.1276  0.4353 -0.2008
10432TIP3    H152787   0.464   2.110   2.438  0.9479 -0.5845 -0.3656
10432TIP3    H252788   0.429   1.969   2.480 -1.6707  0.2074  0.2561
10433TIP3   OH252789   1.141   3.781  13.982 -0.0532  0.3921 -0.0539
10433TIP3    H152790   1.198   3.851  13.951 -0.0605  0.2090 -0.4893
10433TIP3    H252791   1.077   3.770  13.912 -0.6325  0.5994  0.4292
10434TIP3   OH252792   5.432   3.024  15.415  0.0361 -0.2113 -0.3806
10434TIP3    H152793   5.523   2.993  15.415 -0.1904 -0.9252 -1.4784
10434TIP3    H252794   5.412   3.037  15.508  2.0429  2.4048 -0.1827
10435TIP3   OH252795   6.675   0.008  15.224 -0.2424 -0.3371 -0.2855
10435TIP3    H152796   6.579   0.014  15.222 -0.3406  0.7662  2.8585
10435TIP3    H252797   6.701   0.021  15.133 -3.1004 -2.6269 -1.6099
10436TIP3   OH252798   4.721   5.436   3.068 -0.4109 -0.1290  0.3004
10436TIP3    H152799   4.762   5.463   3.150 -0.2835  2.3985 -0.5130
10436TIP3    H252800   4.629   5.464   3.078 -0.5391 -0.3852 -0.1583
10437TIP3   OH252801   0.656   3.415  15.843  0.5502 -0.1070  0.3339
10437TIP3    H152802   0.623   3.407  15.933 -0.5827 -2.9005 -0.2110
10437TIP3    H252803   0.610   3.490  15.806  0.2004  0.3959  1.7264
10438TIP3   OH252804   0.076   3.882   1.033 -0.0275 -0.2272  0.3321
10438TIP3    H152805   0.137   3.948   1.001 -0.1164 -0.8758 -1.2612
10438TIP3    H252806   0.128   3.826   1.090  0.2082  0.7708  1.1359
10439TIP3   OH252807   1.532   5.670  17.062  0.6517  0.0255 -0.2671
10439TIP3    H152808   1.481   5.616  17.122 -1.1129  1.3719 -0.5001
10439TIP3    H252809   1.604   5.703  17.116 -0.8261  1.1142  1.1378
10440TIP3   OH252810   6.226   0.716  12.949 -0.2861  0.3101  0.3011
10440TIP3    H152811   6.301   0.768  12.921  0.2126 -1.0032 -0.9004
10440TIP3    H252812   6.151   0.757  12.906  0.0491  0.2952 -0.3094
10441TIP3   OH252813   3.557   0.953   1.284 -0.1470 -0.0006  0.2428
10441TIP3    H152814   3.604   0.986   1.360  0.6025 -0.9160  0.1953
10441TIP3    H252815   3.544   1.031   1.229 -0.4454  0.6129  1.1570
10442TIP3   OH252816   3.215   1.177  12.070  0.2956 -0.0060 -0.0844
10442TIP3    H152817   3.182   1.106  12.015 -1.5559  0.0900  0.8156
10442TIP3    H252818   3.298   1.145  12.104  0.3785 -0.9659 -1.1378
10443TIP3   OH252819   1.385   1.894  15.831  0.0040 -0.2533 -0.0476
10443TIP3    H152820   1.441   1.834  15.782 -1.1006 -0.6802 -0.8138
10443TIP3    H252821   1.346   1.952  15.765  0.6390  0.9946  0.6211
10444TIP3   OH252822   0.447   0.466   3.702  0.2137  0.2113 -0.4696
10444TIP3    H152823   0.374   0.521   3.674  0.2013  0.7981  0.6379
10444TIP3    H252824   0.417   0.425   3.783  0.3958 -1.0966 -1.0550
10445TIP3   OH252825   5.365   5.987  16.161  0.2566  0.3845 -0.4513
10445TIP3    H152826   5.377   6.080  16.143 -1.6746  0.4317 -1.7851
10445TIP3    H252827   5.405   5.942  16.087  1.1704  0.1260  0.1787
10446TIP3   OH252828   2.145   1.391   1.311 -0.2901 -0.2544  0.4305
10446TIP3    H152829   2.146   1.406   1.405 -2.6960  0.1481  0.4774
10446TIP3    H252830   2.100   1.307   1.300  1.0635 -0.9082 -0.3398
10447TIP3   OH252831   4.826   6.274   4.361  0.2921 -0.3836  0.2236
10447TIP3    H152832   4.815   6.367   4.383 -1.1191 -0.6853  0.8824
10447TIP3    H252833   4.901   6.273   4.302 -0.6250  1.3955 -1.0965
10448TIP3   OH252834   5.826   6.787   0.430  0.0135 -0.1429  0.3667
10448TIP3    H152835   5.850   6.697   0.454 -1.3570 -0.7943 -0.6029
10448TIP3    H252836   5.736   6.797   0.460 -1.0535 -0.2930 -2.4886
10449TIP3   OH252837   6.775   3.900   2.569 -0.7849 -0.1929  0.5431
10449TIP3    H152838   6.854   3.915   2.622  0.7879 -0.5852 -1.5641
10449TIP3    H252839   6.706   3.946   2.616  0.7400  0.3678  2.3595
10450TIP3   OH252840   4.402   1.569   3.387  0.2947 -0.0999  1.3225
10450TIP3    H152841   4.357   1.650   3.408 -0.8396  0.6278 -2.9232
10450TIP3    H252842   4.491   1.597   3.364 -0.0864  0.0310 -0.1061
10451TIP3   OH252843   1.038   3.913   4.297  0.0318  0.1667  0.2183
10451TIP3    H152844   1.098   3.946   4.363 -2.5475  1.9671  1.8629
10451TIP3    H252845   1.053   3.819   4.296  1.4745  0.3180  2.0074
10452TIP3   OH252846   2.337   3.788   1.528 -0.2996 -0.0502  0.2078
10452TIP3    H152847   2.249   3.826   1.521 -0.1688  0.1859 -0.2152
10452TIP3    H252848   2.369   3.786   1.438  1.0816  2.1549  0.5713
10453TIP3   OH252849   1.735   2.029  12.198 -0.1804  0.2752 -0.4316
10453TIP3    H152850   1.737   1.972  12.274  2.0265 -1.8667 -1.9665
10453TIP3    H252851   1.648   2.016  12.160 -0.1979 -1.0116  0.0244
10454TIP3   OH252852   6.263   6.116   2.351 -0.3683 -0.2441  0.5521
10454TIP3    H152853   6.293   6.030   2.380 -0.2342 -0.0967  0.8664
10454TIP3    H252854   6.241   6.105   2.259 -0.4222 -0.6320  0.6110
10455TIP3   OH252855   1.161   4.706   2.384  0.1493  0.6397 -0.3151
10455TIP3    H152856   1.191   4.639   2.445 -0.3923  0.1848 -0.5464
10455TIP3    H252857   1.208   4.688   2.303 -1.0090 -0.3067 -0.7939
10456TIP3   OH252858   1.775   3.334   2.812  0.2212  0.1331 -0.0730
10456TIP3    H152859   1.841   3.294   2.868  0.6976 -0.8660 -1.2799
10456TIP3    H252860   1.763   3.271   2.741  1.3834  2.3369 -2.3706
10457TIP3   OH252861   0.078   6.361   2.690 -0.4914  0.1956 -0.2538
10457TIP3    H152862  -0.002   6.310   2.678 -0.1067 -0.2374 -1.0887
10457TIP3    H252863   0.129   6.311   2.753  0.7273 -1.5483 -2.4781
10458TIP3   OH252864   6.206   2.860  12.602  0.3433  0.2349 -0.0927
10458TIP3    H152865   6.173   2.947  12.624 -0.4224 -0.0453 -0.1075
10458TIP3    H252866   6.275   2.876  12.538 -0.7785  0.7598 -1.2091
10459TIP3   OH252867   6.219   1.415  13.734 -0.3645 -0.2427  0.3069
10459TIP3    H152868   6.177   1.495  13.766 -0.7854 -0.9088  1.4895
10459TIP3    H252869   6.220   1.357  13.810  3.1543 -0.1242  0.5184
10460TIP3   OH252870   4.869   2.208  11.548  0.5188  0.0342 -0.1806
10460TIP3    H152871   4.853   2.215  11.454  0.7167  0.5348 -0.1825
10460TIP3    H252872   4.941   2.270  11.565  0.7624 -0.3549  0.2283
10461TIP3   OH252873   2.853   4.668   1.779 -0.3014  0.5943  0.5631
10461TIP3    H152874   2.763   4.652   1.807  0.2311 -0.6093  1.6538
10461TIP3    H252875   2.850   4.661   1.684 -0.9757 -1.6713  0.6921
10462TIP3   OH252876   1.934   4.302   4.826  0.4131 -0.1477 -0.4787
10462TIP3    H152877   1.854   4.333   4.868  1.9262 -0.1378  2.6725
10462TIP3    H252878   1.922   4.208   4.818  0.9353 -0.4972  2.1824
10463TIP3   OH252879   0.548   4.727   1.018  0.2647 -0.6944 -0.6537
10463TIP3    H152880   0.469   4.693   0.975 -0.6736 -0.8088  1.0812
10463TIP3    H252881   0.539   4.701   1.109  1.1172  1.4182  0.0940
10464TIP3   OH252882   5.258   0.403  15.247 -0.0342 -0.2799  0.3180
10464TIP3    H152883   5.302   0.373  15.168 -2.3065 -0.0096 -1.1210
10464TIP3    H252884   5.259   0.327  15.306  1.2761 -0.6215 -0.1060
10465TIP3   OH252885   5.935   6.222   2.217 -0.0438  0.5420 -0.2168
10465TIP3    H152886   5.916   6.146   2.163  1.9694  0.5500 -1.0264
10465TIP3    H252887   5.920   6.192   2.307 -0.4943 -0.3975 -0.5871
10466TIP3   OH252888   0.983   5.985  13.393 -0.4145 -0.2359  0.3337
10466TIP3    H152889   1.073   6.009  13.412 -0.1887 -0.2153 -0.7204
10466TIP3    H252890   0.989   5.924  13.320 -1.2668 -0.0773  0.1195
10467TIP3   OH252891   3.473   6.471   5.026  0.6538 -0.2498  0.1596
10467TIP3    H152892   3.522   6.411   5.083  0.7895 -0.2500  0.0442
10467TIP3    H252893   3.391   6.486   5.072  0.3680 -1.0070 -0.0911
10468TIP3   OH252894   5.908   0.246  14.257  0.0011 -0.5832  0.0075
10468TIP3    H152895   5.875   0.158  14.242  0.4280 -0.8080  0.3541
10468TIP3    H252896   6.000   0.242  14.233  0.3383 -0.5744  1.2309
10469TIP3   OH252897   5.450   4.386  11.313 -0.4209  0.1485 -0.7126
10469TIP3    H152898   5.421   4.388  11.222 -0.2490  1.6394 -0.7594
10469TIP3    H252899   5.540   4.355  11.309  0.4368  2.5447 -1.3371
10470TIP3   OH252900   0.335   3.819   6.643 -0.0110  0.2708 -0.2669
10470TIP3    H152901   0.369   3.872   6.571 -0.8802  0.2138 -0.7270
10470TIP3    H252902   0.407   3.760   6.666  0.6221  0.9809 -0.3980
10471TIP3   OH252903   6.766   4.834  13.401  0.2854 -0.1440  0.4111
10471TIP3    H152904   6.826   4.765  13.429  1.4664  0.8125  0.3233
10471TIP3    H252905   6.700   4.838  13.472  0.5451 -0.9290  0.7096
10472TIP3   OH252906   3.907   3.344  13.595  0.2302 -0.5537 -0.0479
10472TIP3    H152907   3.982   3.299  13.556  0.1851 -0.5267 -0.1660
10472TIP3    H252908   3.834   3.326  13.535  0.2379 -0.2255 -0.1582
10473TIP3   OH252909   0.463   6.663   4.928 -0.2587  0.0528 -0.2796
10473TIP3    H152910   0.423   6.596   4.872  0.2452 -0.0793 -0.4861
10473TIP3    H252911   0.513   6.614   4.993  0.1309  0.2292 -0.4464
10474TIP3   OH252912   5.682   0.619  15.130 -0.8009 -0.7751 -0.5069
10474TIP3    H152913   5.726   0.643  15.049  0.0603  2.3062  0.7081
10474TIP3    H252914   5.753   0.603  15.192 -1.4439 -3.1730 -0.2968
10475TIP3   OH252915   1.419   5.077  13.204 -0.4191 -0.7453  0.0790
10475TIP3    H152916   1.464   5.082  13.288 -0.1980 -0.7117 -0.0422
10475TIP3    H252917   1.482   5.109  13.140 -0.6214 -0.6767 -0.0888
10476TIP3   OH252918   2.260   2.313   5.317 -0.5223 -0.7258  0.3854
10476TIP3    H152919   2.255   2.373   5.242  0.5635 -0.8686  0.1810
10476TIP3    H252920   2.352   2.314   5.343 -1.1750  0.8591  3.0081
10477TIP3   OH252921   2.343   4.858   5.160  0.0757 -0.2032  0.1738
10477TIP3    H152922   2.348   4.930   5.223 -2.1530 -0.3613  0.6239
10477TIP3    H252923   2.360   4.779   5.212  4.9377 -0.0478 -0.7292
10478TIP3   OH252924   6.025   6.496   3.108  0.0888 -0.1730  0.3794
10478TIP3    H152925   6.065   6.411   3.094 -2.9983 -2.1632  2.3474
10478TIP3    H252926   5.992   6.522   3.022  1.7583 -0.5303 -0.3948
10479TIP3   OH252927   1.354   3.458  12.876  0.0229 -0.4666  0.2672
10479TIP3    H152928   1.324   3.437  12.965  0.2584  1.6587  0.9061
10479TIP3    H252929   1.289   3.418  12.819 -1.9359  0.7971  1.5087
10480TIP3   OH252930   3.688   4.924   1.444  0.1993  0.1514  0.8101
10480TIP3    H152931   3.730   4.931   1.358 -1.8093  0.3191 -0.2113
10480TIP3    H252932   3.643   4.840   1.443 -1.1499  0.8316  1.0399
10481TIP3   OH252933   0.832   0.182   1.401 -0.0175  0.2523  0.3733
10481TIP3    H152934   0.903   0.134   1.443 -1.1466 -1.2965  0.6102
10481TIP3    H252935   0.789   0.118   1.345 -0.9613  1.2634 -0.1096
10482TIP3   OH252936   0.777   6.489  11.730  0.2241 -0.4850 -0.5901
10482TIP3    H152937   0.873   6.491  11.723  0.4936  2.9610  1.4472
10482TIP3    H252938   0.760   6.495  11.824 -2.0570 -1.7219 -0.8555
10483TIP3   OH252939   5.241   3.928  14.776 -0.5846  0.0225 -0.0897
10483TIP3    H152940   5.250   3.904  14.868 -2.6704  0.6362  0.3190
10483TIP3    H252941   5.195   3.854  14.736 -0.0607 -0.0575 -0.5633
10484TIP3   OH252942   1.049   0.168   3.782  0.3706 -0.4880  0.2838
10484TIP3    H152943   0.958   0.154   3.809 -0.0535  0.4683 -0.5781
10484TIP3    H252944   1.046   0.249   3.731  1.6281 -0.6999 -0.1459
10485TIP3   OH252945   0.628   5.997   3.798 -0.1300 -0.3178 -0.1124
10485TIP3    H152946   0.579   6.075   3.823 -1.0707 -1.1367  0.7131
10485TIP3    H252947   0.581   5.925   3.840  2.0524 -1.1121  1.1095
10486TIP3   OH252948   2.511   6.433   1.472  0.0487  0.8481  0.3678
10486TIP3    H152949   2.561   6.422   1.553 -0.6758 -1.0854  0.6225
10486TIP3    H252950   2.428   6.471   1.500 -0.5965 -0.7490  0.7275
10487TIP3   OH252951   0.711   1.749   2.035  0.1397  0.0561  0.1963
10487TIP3    H152952   0.688   1.724   2.125  1.0216  1.7118  0.9415
10487TIP3    H252953   0.768   1.679   2.004  1.7361  0.5294  1.8244
10488TIP3   OH252954   2.177   1.259   4.170  0.3732 -0.6395 -0.4563
10488TIP3    H152955   2.190   1.316   4.246 -0.6390  1.2477 -1.6066
10488TIP3    H252956   2.238   1.293   4.104 -0.4286 -0.7021 -1.2473
10489TIP3   OH252957   6.448   4.775  16.814 -0.0053  0.3964  0.4307
10489TIP3    H152958   6.467   4.685  16.841 -2.2986 -0.7963 -1.5557
10489TIP3    H252959   6.396   4.811  16.885 -0.2426 -0.3166  0.6209
10490TIP3   OH252960   0.403   2.532  16.308  0.2134 -0.4059 -0.9313
10490TIP3    H152961   0.482   2.480  16.326 -0.2564 -1.6267 -2.2338
10490TIP3    H252962   0.410   2.555  16.216 -0.8013 -0.2638 -0.9832
10491TIP3   OH252963   6.735   4.301  15.252 -0.1627  0.3113  0.2224
10491TIP3    H152964   6.661   4.271  15.304 -1.0641  1.1968 -0.5176
10491TIP3    H252965   6.731   4.250  15.172  0.9772 -0.7522  0.8119
10492TIP3   OH252966   5.229   4.184   5.459 -0.3307  0.2715  0.0848
10492TIP3    H152967   5.246   4.173   5.366 -1.7217 -0.0666 -0.1444
10492TIP3    H252968   5.234   4.095   5.495  0.0354  0.3804  0.3154
10493TIP3   OH252969   2.179   0.983  16.502  0.1484 -0.2709  0.4732
10493TIP3    H152970   2.108   1.047  16.507 -0.4968 -0.9012 -0.4093
10493TIP3    H252971   2.255   1.029  16.537 -0.4842  0.7110  0.5891
10494TIP3   OH252972   3.885   4.403  14.143  0.5882  0.3663  0.1192
10494TIP3    H152973   3.942   4.453  14.202  1.0551  0.2054 -0.1959
10494TIP3    H252974   3.919   4.314  14.146 -0.2785  0.0408  0.7214
10495TIP3   OH252975   1.741   6.617  15.054  0.2308  0.3391 -0.4779
10495TIP3    H152976   1.699   6.551  14.998  2.9866 -0.4497 -1.7903
10495TIP3    H252977   1.719   6.700  15.014  0.5072 -0.1004 -1.5709
10496TIP3   OH252978   0.778   0.348   0.240 -0.2067 -0.0291 -0.3629
10496TIP3    H152979   0.757   0.378   0.329 -1.3959 -0.5901 -0.4411
10496TIP3    H252980   0.866   0.381   0.224 -0.9368  2.2995  0.0636
10497TIP3   OH252981   3.361   5.384  11.891 -0.0670  0.4467  0.2100
10497TIP3    H152982   3.338   5.291  11.879  0.8797  0.1808  0.3623
10497TIP3    H252983   3.331   5.405  11.979  0.4834  0.0322  0.5039
10498TIP3   OH252984   1.308   4.473  15.139 -0.2349 -0.1396  0.5233
10498TIP3    H152985   1.273   4.488  15.227 -0.0576  0.0288  0.5654
10498TIP3    H252986   1.237   4.430  15.092 -0.1368 -0.7579  0.9235
10499TIP3   OH252987   3.854   1.867  11.583  0.1728  0.0707  0.6979
10499TIP3    H152988   3.844   1.771  11.583  1.8213 -0.1401  1.0455
10499TIP3    H252989   3.809   1.896  11.504 -0.7164 -0.9450  0.8061
10500TIP3   OH252990   4.670   2.210   2.139  0.3897  0.5662  0.4448
10500TIP3    H152991   4.718   2.228   2.220 -1.1227  2.4925  0.9703
10500TIP3    H252992   4.736   2.168   2.082  1.7602  0.1036  2.2552
10501TIP3   OH252993   3.037   0.345   2.180 -0.4374 -0.3494  0.1202
10501TIP3    H152994   3.129   0.331   2.200 -0.3528 -0.4573 -0.3304
10501TIP3    H252995   2.991   0.329   2.263  0.0446  0.7589  0.6198
10502TIP3   OH252996   5.218   1.003  14.952 -0.4266  0.1173  0.0263
10502TIP3    H152997   5.278   1.001  15.026 -0.8946  0.4939  0.4197
10502TIP3    H252998   5.133   0.978  14.988 -0.8462  1.1478 -0.1900
10503TIP3   OH252999   4.361   0.151   0.337 -0.1035  0.4897 -0.0626
10503TIP3    H153000   4.381   0.104   0.257 -0.7718  2.7149 -1.6355
10503TIP3    H253001   4.435   0.210   0.349 -0.5717  1.0275  0.2526
10504TIP3   OH253002   1.823   2.428   1.939 -0.1024  0.0762 -0.4801
10504TIP3    H153003   1.758   2.359   1.926 -0.9550  1.1294 -2.0037
10504TIP3    H253004   1.786   2.506   1.898  1.0113  1.3772  0.8504
10505TIP3   OH253005   4.831   4.953   1.474 -0.0317  0.4398 -0.3174
10505TIP3    H153006   4.839   4.911   1.560  0.6302 -0.6951 -0.9055
10505TIP3    H253007   4.894   4.907   1.419 -0.7296  0.8786 -1.5255
10506TIP3   OH253008   0.768   5.636   3.348  0.4229  0.4197  0.3502
10506TIP3    H153009   0.769   5.730   3.368  0.0346  0.7366 -1.0042
10506TIP3    H253010   0.831   5.627   3.276 -1.6228  0.1509 -1.5014
10507TIP3   OH253011   1.632   6.037   3.325 -0.1576  0.1981  0.4399
10507TIP3    H153012   1.692   5.985   3.272  0.9704  1.4472  0.4478
10507TIP3    H253013   1.676   6.046   3.409 -1.6040 -1.1405  1.3949
10508TIP3   OH253014   1.683   4.105  14.954 -0.1220 -0.1889  0.0138
10508TIP3    H153015   1.632   4.140  15.028 -1.0883  0.0867 -0.7623
10508TIP3    H253016   1.725   4.026  14.989 -0.2232  0.1630  0.9742
10509TIP3   OH253017   2.351   3.693  10.595  0.4040  0.4435  0.2132
10509TIP3    H153018   2.310   3.632  10.534  0.4665 -0.3516  0.9421
10509TIP3    H253019   2.388   3.637  10.663  2.4685  1.1418 -0.2663
10510TIP3   OH253020   6.169   4.486  14.829 -0.5025  0.2941  0.2592
10510TIP3    H153021   6.082   4.471  14.866 -1.4647 -0.3436 -2.0721
10510TIP3    H253022   6.198   4.400  14.799  0.7140  0.5928  0.5195
10511TIP3   OH253023   5.613   0.415  15.880 -0.1444  0.0019 -0.3176
10511TIP3    H153024   5.684   0.359  15.912 -1.9589 -2.4761 -0.3516
10511TIP3    H253025   5.534   0.362  15.890 -1.8625  2.1758 -1.4432
10512TIP3   OH253026   5.765   2.302   3.122  0.3421 -0.1218 -0.0510
10512TIP3    H153027   5.818   2.377   3.150  2.1327 -1.5216  0.4703
10512TIP3    H253028   5.682   2.312   3.168  0.7337  1.2572  0.3977
10513TIP3   OH253029   3.072   4.546   3.285  0.0175  0.6857  0.7333
10513TIP3    H153030   3.120   4.609   3.232  1.2515 -1.0567 -0.3163
10513TIP3    H253031   2.988   4.589   3.304  1.0530  2.8590  0.6173
10514TIP3   OH253032   6.833   5.962   2.489 -0.2433  0.1971  0.2792
10514TIP3    H153033   6.760   5.941   2.548 -0.7122  0.2244 -0.2849
10514TIP3    H253034   6.791   6.000   2.412  0.2178 -1.4670 -0.8453
10515TIP3   OH253035   6.627   2.215   3.932 -0.4787 -0.0620 -0.8205
10515TIP3    H153036   6.630   2.144   3.867  0.0345 -1.1860  0.3766
10515TIP3    H253037   6.665   2.290   3.888 -0.0122 -0.8377 -1.7765
10516TIP3   OH253038   2.744   1.213  14.597  0.2530 -0.0739  0.0304
10516TIP3    H153039   2.672   1.150  14.595  0.1691 -0.0418  1.2803
10516TIP3    H253040   2.746   1.251  14.510 -0.3957 -1.0306 -0.4098
10517TIP3   OH253041   2.226   0.434   5.262  0.0134 -0.4026 -0.4204
10517TIP3    H153042   2.292   0.470   5.203 -0.4551  1.1685 -0.0200
10517TIP3    H253043   2.275   0.376   5.320  1.0087  0.5302 -0.3047
10518TIP3   OH253044   3.085   3.519   0.002 -0.1327 -0.0696  0.7867
10518TIP3    H153045   3.131   3.441  -0.028 -1.1707 -1.5772  2.8919
10518TIP3    H253046   3.147   3.561   0.062  0.6432  1.1030 -0.7664
10519TIP3   OH253047   0.195   4.474   4.684  0.1578 -0.6026  0.3627
10519TIP3    H153048   0.110   4.518   4.685  0.9110  0.9056  0.6734
10519TIP3    H253049   0.258   4.542   4.707  1.7064 -1.1300 -1.9222
10520TIP3   OH253050   0.803   0.913  13.772  0.0463  0.5458 -0.1486
10520TIP3    H153051   0.745   0.987  13.753 -0.7598 -0.0592 -0.0472
10520TIP3    H253052   0.872   0.920  13.706 -0.9366  0.4136 -1.2214
10521TIP3   OH253053   2.396   3.206  15.267  0.6386 -0.5010  0.2436
10521TIP3    H153054   2.408   3.170  15.355  1.2679  0.4081  0.5481
10521TIP3    H253055   2.465   3.272  15.258  0.1266 -0.0613 -0.6555
10522TIP3   OH253056   3.288   5.512   3.070 -0.0822  0.3172 -0.3909
10522TIP3    H153057   3.247   5.430   3.044  1.5178 -0.1439 -1.6397
10522TIP3    H253058   3.311   5.500   3.162  0.9447 -1.0158 -0.7966
10523TIP3   OH253059   4.725   3.957  13.872 -0.2067 -0.5024  0.2115
10523TIP3    H153060   4.787   3.998  13.813  0.4555  0.8672  1.8043
10523TIP3    H253061   4.744   3.993  13.958 -2.4819 -0.8703  0.9634
10524TIP3   OH253062   6.062   2.548   3.701  0.2618  0.3674 -0.2019
10524TIP3    H153063   6.051   2.628   3.753  0.7707  0.2813  0.0432
10524TIP3    H253064   5.996   2.488   3.736  0.3611  0.4324  0.0993
10525TIP3   OH253065   6.838   3.258   1.419  0.1057  0.7462 -0.5443
10525TIP3    H153066   6.837   3.353   1.433 -0.8300  0.4347  1.8536
10525TIP3    H253067   6.920   3.242   1.371 -0.0189  2.7911 -1.5482
10526TIP3   OH253068   3.718   4.852   5.114  0.5697 -0.0229 -0.4385
10526TIP3    H153069   3.813   4.840   5.119  0.5523  0.0727  0.2349
10526TIP3    H253070   3.683   4.763   5.099  0.8316  0.1090 -1.9703
10527TIP3   OH253071   1.110   3.492   3.288 -0.0459 -0.0450 -0.1118
10527TIP3    H153072   1.079   3.503   3.198 -0.5809  0.9176  0.1837
10527TIP3    H253073   1.048   3.430   3.327 -1.1272  1.1966  0.2159
10528TIP3   OH253074   4.406   0.943  16.134  0.4110  0.7643  0.5080
10528TIP3    H153075   4.479   0.914  16.188 -0.7833 -1.6789  0.9495
10528TIP3    H253076   4.446   0.999  16.067  2.3792  1.0711  1.8581
10529TIP3   OH253077   4.833   0.005   2.231 -0.3385 -0.2743  0.3656
10529TIP3    H153078   4.797  -0.031   2.312 -0.5862  1.0007  0.8451
10529TIP3    H253079   4.904  -0.055   2.207 -2.1731 -2.3764 -0.1343
10530TIP3   OH253080   0.881   5.819  16.027  0.5037  0.0961 -0.1821
10530TIP3    H153081   0.814   5.751  16.014  0.5151  0.1111 -0.3246
10530TIP3    H253082   0.930   5.790  16.104  0.1057  0.2672  0.1398
10531TIP3   OH253083   2.514   6.349  15.143 -0.0518  0.0912 -0.1817
10531TIP3    H153084   2.608   6.346  15.161 -0.5067 -2.4723  2.6625
10531TIP3    H253085   2.479   6.407  15.210 -0.6040  0.1110 -0.4830
10532TIP3   OH253086   1.112   0.544  15.075  0.1059  0.1412  0.6248
10532TIP3    H153087   1.067   0.501  15.148 -0.0660  2.2770  1.8670
10532TIP3    H253088   1.198   0.502  15.070  0.4574  0.5397  2.6790
10533TIP3   OH253089   0.359   0.083  13.794  0.2442  0.3689 -0.1606
10533TIP3    H153090   0.454   0.090  13.782  0.4097  1.4425  1.5712
10533TIP3    H253091   0.325   0.166  13.763  0.2677  1.4403  2.4427
10534TIP3   OH253092   4.109   3.760   3.390  0.1303 -0.4546  0.3149
10534TIP3    H153093   4.085   3.838   3.340 -0.4317 -1.5188 -1.1456
10534TIP3    H253094   4.204   3.765   3.396  0.1070  0.3352  0.2358
10535TIP3   OH253095   0.841   1.076  15.237 -0.1534 -0.7692 -0.3437
10535TIP3    H153096   0.827   1.042  15.149  0.1362  0.1495 -0.7593
10535TIP3    H253097   0.905   1.016  15.276 -0.2068 -1.1233 -0.7943
10536TIP3   OH253098   4.000   1.276  11.784 -0.3180 -1.0467  0.4555
10536TIP3    H153099   4.040   1.355  11.821 -0.1248 -0.9189 -0.0142
10536TIP3    H253100   3.909   1.301  11.768  0.0990 -0.4017 -1.1180
10537TIP3   OH253101   5.337   3.876  13.772  0.3072  0.6548  0.3548
10537TIP3    H153102   5.333   3.808  13.839  1.0135  1.4952  1.2843
10537TIP3    H253103   5.366   3.831  13.693  1.3745 -0.0282  1.1120
10538TIP3   OH253104   5.616   3.672   3.491 -0.0903  0.0523  0.2786
10538TIP3    H153105   5.565   3.607   3.539 -0.2996  0.5521  0.7412
10538TIP3    H253106   5.573   3.755   3.509 -0.3735  0.2270 -1.0496
10539TIP3   OH253107   1.369   5.983   0.703 -0.2175  0.2520  0.4720
10539TIP3    H153108   1.370   6.046   0.630 -0.4688 -0.0337  0.2203
10539TIP3    H253109   1.454   5.941   0.700 -0.0241  0.6184  0.6778
10540TIP3   OH253110   2.734   2.022  16.844 -0.0986 -0.3756 -0.0062
10540TIP3    H153111   2.803   1.957  16.832  0.1823 -0.0678 -0.0470
10540TIP3    H253112   2.726   2.031  16.939 -0.9218 -1.3042  0.0316
10541TIP3   OH253113   3.762   2.546   0.079 -0.7623  0.0708 -0.0328
10541TIP3    H153114   3.848   2.505   0.065 -1.1832 -0.2909 -1.7963
10541TIP3    H253115   3.733   2.512   0.164  0.7441  0.0568  0.5100
10542TIP3   OH253116   4.763   1.373  13.635 -0.3483  0.2217  0.1207
10542TIP3    H153117   4.793   1.289  13.600  0.3067 -0.4529  2.1541
10542TIP3    H253118   4.804   1.439  13.578 -0.3583 -0.8123 -1.1176
10543TIP3   OH253119   5.776   0.115  13.783 -0.5253  0.1850 -0.4931
10543TIP3    H153120   5.855   0.146  13.827 -0.5280  0.8128 -0.9253
10543TIP3    H253121   5.807   0.080  13.699 -0.7313  0.6707 -0.7764
10544TIP3   OH253122   0.563   3.768   0.497 -0.5893  0.1357 -0.3756
10544TIP3    H153123   0.493   3.772   0.433 -0.4194 -1.9386 -0.7824
10544TIP3    H253124   0.539   3.831   0.564 -1.6857  1.0542 -1.5920
10545TIP3   OH253125   3.284   2.493  14.514 -0.2452 -0.7855 -0.4432
10545TIP3    H153126   3.316   2.556  14.449 -0.6681 -0.0432  0.0510
10545TIP3    H253127   3.353   2.491  14.581 -0.3831 -0.5927 -0.2947
10546TIP3   OH253128   2.379   6.351   1.985  0.7530  0.2141 -0.0287
10546TIP3    H153129   2.392   6.442   2.011 -1.5117 -0.0191  2.2679
10546TIP3    H253130   2.326   6.356   1.905 -0.6294  0.9654  0.8893
10547TIP3   OH253131   5.360   5.498  15.789  0.8849 -0.8210  0.2929
10547TIP3    H153132   5.335   5.406  15.781  0.3842 -0.5973 -0.8081
10547TIP3    H253133   5.300   5.545  15.731 -0.0491  0.4241  2.1599
10548TIP3   OH253134   2.979   3.179  17.018  0.0566  0.0302 -0.1540
10548TIP3    H153135   2.982   3.180  16.922  0.0795  1.8914 -0.1821
10548TIP3    H253136   3.053   3.233  17.045 -1.2816  1.4928  0.8133
10549TIP3   OH253137   6.518   1.589  15.187 -0.4483  0.2445  0.1913
10549TIP3    H153138   6.513   1.662  15.249  0.0867  1.4741 -1.1487
10549TIP3    H253139   6.608   1.589  15.157  0.0079 -2.0782  1.3859
10550TIP3   OH253140   5.648   4.112  14.135 -0.1050 -0.1147  0.4271
10550TIP3    H153141   5.686   4.151  14.056 -1.6981 -0.2114 -0.4428
10550TIP3    H253142   5.562   4.153  14.142 -1.0935 -2.0727  0.5263
10551TIP3   OH253143   3.488   6.213  16.344 -0.2111 -0.8756 -0.8499
10551TIP3    H153144   3.523   6.243  16.428 -0.4748 -3.3769  0.2559
10551TIP3    H253145   3.402   6.255  16.338  0.4497  0.5542 -0.6614
10552TIP3   OH253146   1.958   5.128  16.658  0.5986  0.2603 -0.6818
10552TIP3    H153147   1.889   5.194  16.654  0.3721 -0.0366 -2.4119
10552TIP3    H253148   2.029   5.164  16.605  0.5625 -0.7559 -1.4589
10553TIP3   OH253149   5.207   0.435   5.137 -0.2398  0.0035 -0.0886
10553TIP3    H153150   5.258   0.474   5.208  0.1588  0.4047 -0.5929
10553TIP3    H253151   5.222   0.341   5.146  2.0227  0.1853 -1.2815
10554TIP3   OH253152   3.167   1.458   0.054  0.0911 -0.2670 -0.6661
10554TIP3    H153153   3.248   1.479   0.101 -1.6343  0.1514  2.3628
10554TIP3    H253154   3.139   1.541   0.017 -0.5132  0.3056  0.9893
10555TIP3   OH253155   0.441   6.212  15.177  0.0869  0.1316 -0.4258
10555TIP3    H153156   0.512   6.157  15.211 -1.4744 -0.7202  1.7693
10555TIP3    H253157   0.432   6.187  15.085  0.8439 -1.7721 -0.0324
10556TIP3   OH253158   4.507   4.342  15.359  0.0868  0.0512  0.9004
10556TIP3    H153159   4.480   4.367  15.447 -0.9762 -3.7488  1.8398
10556TIP3    H253160   4.426   4.342  15.308  0.1299 -0.8942  0.8184
10557TIP3   OH253161   3.249   0.670  12.662 -0.2540 -0.4366  0.1202
10557TIP3    H153162   3.343   0.677  12.683 -0.0209 -0.5300 -0.8471
10557TIP3    H253163   3.231   0.576  12.666  0.2122 -0.6436 -1.7590
10558TIP3   OH253164   1.541   2.657  12.574  0.4372  0.1456  0.5635
10558TIP3    H153165   1.508   2.746  12.590 -0.8605  0.1617 -1.7958
10558TIP3    H253166   1.490   2.601  12.632 -0.2858  0.7287  0.5050
10559TIP3   OH253167   2.901   4.531  13.166  0.0595 -0.0706  0.2362
10559TIP3    H153168   2.843   4.607  13.164 -0.2423 -0.2855  0.5754
10559TIP3    H253169   2.964   4.547  13.096 -0.4074  0.1692 -0.1383
10560TIP3   OH253170   2.114   6.453   3.803  0.2160 -0.5475  0.0237
10560TIP3    H153171   2.189   6.491   3.758  0.1519 -0.7281 -0.2312
10560TIP3    H253172   2.104   6.366   3.766 -0.2635 -0.4395 -0.1109
10561TIP3   OH253173   3.915   1.294  16.821  0.2042 -0.1659 -0.1591
10561TIP3    H153174   3.993   1.324  16.867  0.0426 -2.6257  1.9731
10561TIP3    H253175   3.853   1.272  16.891 -2.0464  0.6872 -1.7452
10562TIP3   OH253176   2.591   5.815  12.941  0.0300 -0.2880  0.3781
10562TIP3    H153177   2.625   5.779  12.858 -0.6755 -0.1978  0.0445
10562TIP3    H253178   2.662   5.870  12.974  0.2870 -0.2544 -0.2171
10563TIP3   OH253179   1.019   2.700   5.946  0.3278  0.7581  0.0823
10563TIP3    H153180   1.005   2.789   5.913 -0.3866  0.3797 -0.6979
10563TIP3    H253181   0.938   2.654   5.923  0.8567 -0.2003  0.0872
10564TIP3   OH253182   0.123   0.457  10.900 -0.1930 -0.6574 -0.3791
10564TIP3    H153183   0.061   0.411  10.844  0.2200 -1.6147 -0.0694
10564TIP3    H253184   0.087   0.546  10.908 -1.7290 -1.2900  0.0910
10565TIP3   OH253185   5.866   2.021   4.013  0.2682  0.2270 -0.6006
10565TIP3    H153186   5.825   1.935   4.016 -1.2652  0.9140 -0.7664
10565TIP3    H253187   5.868   2.050   4.105 -0.8264  0.7101 -0.7116
10566TIP3   OH253188   3.499   4.330  15.466  0.6756 -0.1624 -0.0476
10566TIP3    H153189   3.431   4.333  15.398  0.3448 -0.1304  0.2847
10566TIP3    H253190   3.459   4.371  15.542  1.1741  0.1306  0.0612
10567TIP3   OH253191   0.444   3.610   0.876  0.2429  0.2020 -0.7366
10567TIP3    H153192   0.427   3.667   0.952 -1.9211  0.2110 -1.1561
10567TIP3    H253193   0.423   3.522   0.908  2.2890 -0.2406 -0.4821
10568TIP3   OH253194   5.246   1.751  15.600  0.8200  0.0824 -0.4902
10568TIP3    H153195   5.302   1.774  15.526 -1.0231 -0.4912 -2.1731
10568TIP3    H253196   5.198   1.673  15.570 -0.5089  0.2591  1.0305
10569TIP3   OH253197   1.732   3.670   6.248  0.2057 -0.3969 -0.1899
10569TIP3    H153198   1.809   3.726   6.240  0.5306 -0.8815 -0.4570
10569TIP3    H253199   1.661   3.730   6.270  0.8844 -0.0781  1.3050
10570TIP3   OH253200   0.888   5.218   3.511  0.0831  0.4389  0.0611
10570TIP3    H153201   0.982   5.228   3.527  0.0150  0.4383  0.4746
10570TIP3    H253202   0.866   5.133   3.548 -0.3797  1.1139  1.4256
10571TIP3   OH253203   4.825   1.868   5.916  0.4105  0.0217 -0.5592
10571TIP3    H153204   4.858   1.840   6.001 -0.7697 -0.8370 -0.3612
10571TIP3    H253205   4.735   1.836   5.913  0.7269 -0.8435 -2.5340
10572TIP3   OH253206   1.958   2.397   3.643 -0.5280 -0.1616  0.1328
10572TIP3    H153207   2.044   2.356   3.649 -0.3631  0.3345  1.3793
10572TIP3    H253208   1.906   2.353   3.709 -1.0807 -0.0736 -0.2365
10573TIP3   OH253209   2.758   0.364   4.862  0.1215  0.6081  0.6791
10573TIP3    H153210   2.692   0.389   4.926 -1.9586  3.4058 -2.2196
10573TIP3    H253211   2.818   0.439   4.858 -0.2451  0.8583 -1.0833
10574TIP3   OH253212   3.279   3.216   5.570 -0.1265  0.1720 -0.1533
10574TIP3    H153213   3.334   3.248   5.499  1.0439  0.6129  0.8938
10574TIP3    H253214   3.310   3.127   5.587 -1.5525 -0.5761 -1.2822
10575TIP3   OH253215   3.867   5.339  13.378  0.0635  0.4629 -0.3066
10575TIP3    H153216   3.821   5.403  13.323  1.3630  0.2348 -1.7177
10575TIP3    H253217   3.798   5.280  13.408 -0.7565  0.8684 -1.3212
10576TIP3   OH253218   2.935   5.599  16.437 -0.5108 -0.9116  0.1113
10576TIP3    H153219   2.976   5.664  16.493 -1.5149  0.5181 -0.7216
10576TIP3    H253220   2.932   5.641  16.350  0.1821 -2.6858 -0.8271
10577TIP3   OH253221   2.593   2.162   6.380  0.1503 -0.3789  0.0988
10577TIP3    H153222   2.639   2.171   6.464 -0.0857  0.3978  0.1594
10577TIP3    H253223   2.502   2.145   6.405  0.2574 -1.1140 -0.0115
10578TIP3   OH253224   4.401   1.731  15.040  0.2721 -0.1780 -0.3980
10578TIP3    H153225   4.383   1.652  14.989  1.4540 -0.0381 -1.0441
10578TIP3    H253226   4.316   1.776  15.045 -0.5632 -1.7598  0.5001
10579TIP3   OH253227   4.569   3.470   2.389  0.6124  0.1444  0.7377
10579TIP3    H153228   4.661   3.477   2.363  0.4304  0.8548  0.2546
10579TIP3    H253229   4.523   3.444   2.310  0.2929  0.5470  0.7880
10580TIP3   OH253230   5.084   4.307   2.662 -0.1708  0.1122 -0.1843
10580TIP3    H153231   5.016   4.247   2.633  0.6764 -0.1935 -1.6283
10580TIP3    H253232   5.043   4.394   2.656 -0.1298  0.0382 -2.1192
10581TIP3   OH253233   1.613   1.509   5.557 -0.7389  0.4834  0.0602
10581TIP3    H153234   1.648   1.514   5.646  0.4020  0.9186 -0.3886
10581TIP3    H253235   1.607   1.600   5.529 -0.1214  0.3119 -0.6569
10582TIP3   OH253236   3.742   5.608  11.452 -0.4174 -0.2743  0.4618
10582TIP3    H153237   3.761   5.546  11.382 -0.2244  0.0165  0.2561
10582TIP3    H253238   3.754   5.558  11.533  0.2780 -0.3539  0.3090
10583TIP3   OH253239   1.307   2.604   4.835 -0.5124  1.1027  0.2531
10583TIP3    H153240   1.323   2.698   4.849  2.2056  0.9553 -1.1505
10583TIP3    H253241   1.388   2.562   4.864 -0.4813 -0.4868 -1.8912
10584TIP3   OH253242   5.362   4.959   2.559 -1.2456  0.5062 -0.3092
10584TIP3    H153243   5.398   4.882   2.515 -0.8341  0.9909 -0.8265
10584TIP3    H253244   5.354   4.932   2.651 -0.0719  0.1955 -0.2736
10585TIP3   OH253245   4.671   5.540   0.861  0.3587 -0.5992 -0.5529
10585TIP3    H153246   4.625   5.610   0.907 -1.2551 -1.1961 -1.1904
10585TIP3    H253247   4.611   5.515   0.790  1.1108 -2.3042 -0.6163
10586TIP3   OH253248   2.096   1.007  10.815 -0.2956  0.4586  0.4053
10586TIP3    H153249   2.143   1.004  10.898  2.2686  0.5348 -0.9499
10586TIP3    H253250   2.132   0.935  10.764 -0.7729  1.2778 -1.1602
10587TIP3   OH253251   2.463   6.776   6.277  0.2333 -0.2398 -0.3186
10587TIP3    H153252   2.457   6.681   6.267 -0.1654 -0.1933 -0.5049
10587TIP3    H253253   2.418   6.812   6.201  0.9004  0.1028 -0.5646
10588TIP3   OH253254   0.243   4.676   6.227 -0.1218  0.3303 -0.0976
10588TIP3    H153255   0.270   4.731   6.153 -0.6301  1.7422  0.7276
10588TIP3    H253256   0.317   4.616   6.240  0.4467  0.7907 -1.0490
10589TIP3   OH253257   2.797   0.563  15.456  0.2091 -0.3509 -0.0039
10589TIP3    H153258   2.787   0.600  15.368  1.5639  0.0154 -0.0334
10589TIP3    H253259   2.889   0.581  15.479  0.6018 -2.6251  0.4716
10590TIP3   OH253260   1.230   2.004   1.985  0.0594 -0.1046 -0.3188
10590TIP3    H153261   1.260   2.072   1.924 -2.2278 -0.6161 -2.1579
10590TIP3    H253262   1.279   1.925   1.959  0.5538  0.1386 -0.1384
10591TIP3   OH253263   1.089   2.975  12.317 -0.2807  0.3519 -0.3069
10591TIP3    H153264   1.113   3.047  12.258 -0.5738 -0.7535 -1.8386
10591TIP3    H253265   1.002   2.948  12.288  0.4850 -1.6960 -0.8853
10592TIP3   OH253266   3.449   5.656  13.010 -0.2918  0.4208 -0.3150
10592TIP3    H153267   3.403   5.682  12.931 -0.6968  0.5876 -0.0227
10592TIP3    H253268   3.496   5.576  12.984 -0.2452  0.5939 -0.7816
10593TIP3   OH253269   5.947   6.448  12.555  0.5900  0.1339  0.0570
10593TIP3    H153270   6.038   6.450  12.527 -0.0383  0.4757 -2.1637
10593TIP3    H253271   5.902   6.507  12.494 -0.9790  0.7311  1.6938
10594TIP3   OH253272   1.028   5.722  14.037 -0.2569 -0.2064 -0.2586
10594TIP3    H153273   0.949   5.700  13.987  0.8939  0.9825 -2.7930
10594TIP3    H253274   1.000   5.792  14.097 -1.1779  0.0550 -0.9702
10595TIP3   OH253275   3.314   1.988   1.161  0.1881 -0.2681 -0.2081
10595TIP3    H153276   3.355   1.901   1.155 -0.8873 -0.7052 -2.0292
10595TIP3    H253277   3.388   2.049   1.160  0.9204 -1.1217  0.1836
10596TIP3   OH253278   3.530   1.362  12.854 -0.5420 -0.5181  0.0472
10596TIP3    H153279   3.497   1.281  12.815  0.7781 -0.6491 -0.8853
10596TIP3    H253280   3.574   1.407  12.782  0.0365  0.3111  0.8909
10597TIP3   OH253281   6.205   6.454  10.276 -0.6969 -0.4231 -0.0409
10597TIP3    H153282   6.233   6.375  10.230 -0.1961 -0.4789  0.3605
10597TIP3    H253283   6.111   6.443  10.288 -0.7266 -0.6902 -0.5026
10598TIP3   OH253284   0.331   5.952  13.682  0.1547 -0.2759  0.2155
10598TIP3    H153285   0.243   5.969  13.717 -0.1486 -0.6437 -0.3478
10598TIP3    H253286   0.315   5.913  13.596  0.8695  2.0067 -1.0429
10599TIP3   OH253287   0.499   6.500  17.122  0.5831  0.7711  0.2866
10599TIP3    H153288   0.581   6.477  17.079  2.6060 -1.2370  4.6399
10599TIP3    H253289   0.518   6.582  17.168 -0.4295  1.1271  0.1059
10600TIP3   OH253290   3.706   2.320   1.229 -0.0163 -0.1597 -0.5365
10600TIP3    H153291   3.641   2.388   1.208  1.8811  2.6550  1.8995
10600TIP3    H253292   3.787   2.353   1.191  0.6395 -2.0491 -0.8476
10601TIP3   OH253293   5.097   6.291  12.454 -0.0508 -0.2882 -0.5836
10601TIP3    H153294   5.124   6.212  12.502  0.5363 -0.0486 -0.5142
10601TIP3    H253295   5.052   6.345  12.519  2.9182  1.1796  0.4111
10602TIP3   OH253296   1.528   2.598   1.204  0.3380  0.0955  0.6175
10602TIP3    H153297   1.464   2.537   1.166 -1.0459 -0.7367  3.9188
10602TIP3    H253298   1.611   2.551   1.199 -0.1345 -0.7283  0.2944
10603TIP3   OH253299   0.107   1.508   5.008  0.6946 -0.1638  0.2779
10603TIP3    H153300   0.039   1.526   5.072  1.3248 -2.5340  1.7467
10603TIP3    H253301   0.059   1.489   4.927 -0.2538  0.3992  0.6886
10604TIP3   OH253302   6.549   6.734   2.301  0.0494 -0.3779 -0.3260
10604TIP3    H153303   6.533   6.791   2.225  1.5615 -2.2015 -2.1402
10604TIP3    H253304   6.532   6.646   2.268  0.4095 -1.1961  1.5917
10605TIP3   OH253305   5.276   6.193   4.376  0.2575  0.1801 -0.8771
10605TIP3    H153306   5.337   6.120   4.363 -0.6204 -0.5543 -0.9996
10605TIP3    H253307   5.329   6.271   4.362  1.2187 -0.4354 -0.7544
10606TIP3   OH253308   6.245   4.590  15.624 -0.0751 -0.4355 -0.1017
10606TIP3    H153309   6.162   4.637  15.614 -0.6618 -1.6574 -1.3176
10606TIP3    H253310   6.226   4.522  15.689  0.6125  0.6250  1.2403
10607TIP3   OH253311   4.697   3.689  16.424 -0.2739  0.1674  0.0024
10607TIP3    H153312   4.617   3.647  16.391 -0.8562 -0.8122  2.4235
10607TIP3    H253313   4.766   3.625  16.408 -0.1440  0.5737 -1.1384
10608TIP3   OH253314   2.433   5.516  16.016  0.0531  0.3294  0.0548
10608TIP3    H153315   2.376   5.582  15.976 -0.5133 -0.6892 -0.8602
10608TIP3    H253316   2.521   5.555  16.012 -0.1973  0.8269 -0.9201
10609TIP3   OH253317   2.085   1.141   3.550  0.3737  0.1996  0.0714
10609TIP3    H153318   2.135   1.158   3.471 -0.8316  1.0355 -0.5537
10609TIP3    H253319   2.027   1.217   3.558 -1.1827 -0.9824  0.4400
10610TIP3   OH253320   4.229   0.669   4.827  0.1054  0.0651  0.6728
10610TIP3    H153321   4.143   0.660   4.867 -0.3489 -1.3915 -0.5249
10610TIP3    H253322   4.283   0.604   4.873  0.1448 -0.0980  0.4014
10611TIP3   OH253323   3.717   1.966   3.049  0.0619 -0.2516  0.4990
10611TIP3    H153324   3.720   2.019   3.129  1.1502  0.9467 -0.2862
10611TIP3    H253325   3.757   2.022   2.983  0.4859 -1.7689 -0.5648
10612TIP3   OH253326   1.598   5.931  11.723 -0.1066 -0.2770  0.0871
10612TIP3    H153327   1.649   5.923  11.804 -0.6948 -0.1643  0.4703
10612TIP3    H253328   1.660   5.969  11.660 -0.0405  0.9280  0.8570
10613TIP3   OH253329   4.785   2.470   4.175  0.4224 -0.3850  0.5658
10613TIP3    H153330   4.838   2.527   4.119  1.2870 -1.9620 -0.2983
10613TIP3    H253331   4.706   2.520   4.192  0.1092  0.1924 -2.1035
10614TIP3   OH253332   1.260   5.097  16.826  0.1049 -0.2907 -0.4228
10614TIP3    H153333   1.350   5.067  16.814 -0.7445 -2.4804 -2.2178
10614TIP3    H253334   1.228   5.047  16.901 -0.4709 -1.9051 -1.6866
10615TIP3   OH253335   6.103   3.985  13.734 -0.1196  0.5305  0.2534
10615TIP3    H153336   6.106   3.925  13.808 -0.3929  0.2930  0.0719
10615TIP3    H253337   6.028   4.042  13.752 -2.1473 -1.4736 -1.3197
10616TIP3   OH253338   3.040   2.357  14.568  0.0515  0.5382  0.0881
10616TIP3    H153339   3.121   2.394  14.532  1.1814  0.1485  2.1133
10616TIP3    H253340   3.061   2.336  14.659 -2.0327 -0.5364  0.3823
10617TIP3   OH253341   5.845   2.335  16.019  0.0936  0.2023  0.2030
10617TIP3    H153342   5.933   2.334  16.055  0.3663  0.2916 -0.4452
10617TIP3    H253343   5.807   2.251  16.047  0.0352  0.5845  1.3058
10618TIP3   OH253344   6.443   1.991   4.824 -0.0881 -0.1566 -0.0002
10618TIP3    H153345   6.361   1.981   4.776  0.0053  0.2528 -0.2519
10618TIP3    H253346   6.492   1.912   4.804 -0.6419 -0.6659  0.5950
10619TIP3   OH253347   5.002   1.544  16.464  0.3563  0.2629 -0.5357
10619TIP3    H153348   5.026   1.608  16.398  3.3079  0.0352  0.1628
10619TIP3    H253349   5.036   1.461  16.431  0.2665 -0.1777  0.4402
10620TIP3   OH253350   3.044   6.716   6.030 -0.1544 -0.0214 -0.4655
10620TIP3    H153351   3.068   6.637   6.078 -0.7428 -1.1515 -1.9462
10620TIP3    H253352   3.092   6.786   6.074  0.4282 -1.1969  0.8577
10621TIP3   OH253353   4.918   0.913  16.872 -0.1247 -0.2871 -0.2563
10621TIP3    H153354   4.879   0.951  16.951 -2.4336  1.6132 -2.1527
10621TIP3    H253355   4.877   0.827  16.863 -2.0644  0.6476 -0.8279
10622TIP3   OH253356   2.509   3.367  14.949 -0.7367 -0.3566 -0.7882
10622TIP3    H153357   2.488   3.436  15.012  2.0547 -1.0972  1.1489
10622TIP3    H253358   2.508   3.410  14.864 -0.4278  1.7338  0.2220
10623TIP3   OH253359   2.814   5.257   5.275  0.3487 -0.2685 -0.2442
10623TIP3    H153360   2.821   5.257   5.370  0.1043 -0.5284 -0.2240
10623TIP3    H253361   2.888   5.204   5.246  0.1860 -0.5402 -0.1747
10624TIP3   OH253362   1.739   2.161  15.721  0.3427 -0.3377  0.2145
10624TIP3    H153363   1.763   2.217  15.648  2.1528 -0.0890  0.9578
10624TIP3    H253364   1.789   2.081  15.708  0.5201 -0.3714  1.0681
10625TIP3   OH253365   4.210   2.366  16.669  0.1293  0.0528  0.3907
10625TIP3    H153366   4.116   2.372  16.651  0.4471 -0.9100 -1.9526
10625TIP3    H253367   4.246   2.449  16.639  0.0284  0.5353  1.5488
10626TIP3   OH253368   2.762   1.160  15.987  0.3271 -0.7859 -0.2094
10626TIP3    H153369   2.758   1.201  16.073  1.5771 -3.1431  1.0703
10626TIP3    H253370   2.822   1.215  15.937  0.4393  0.0198  0.7947
10627TIP3   OH253371   4.984   1.077   3.401  0.0111  0.1759  0.9894
10627TIP3    H153372   5.012   1.082   3.310 -0.9479 -2.3034  0.4713
10627TIP3    H253373   5.042   1.137   3.448  1.1559  0.7805 -1.1003
10628TIP3   OH253374   4.118   5.916   0.692 -0.2073 -0.1241  0.6476
10628TIP3    H153375   4.186   5.861   0.653  0.3815  0.8974  0.1644
10628TIP3    H253376   4.063   5.943   0.618 -1.6142 -1.5299  1.1306
10629TIP3   OH253377   2.434   3.039  14.654  0.0723  0.7991  0.0576
10629TIP3    H153378   2.379   3.102  14.700 -0.8563 -0.6344  1.0315
10629TIP3    H253379   2.373   2.968  14.630  0.6843  1.1041 -2.7139
10630TIP3   OH253380   5.661   0.384   6.033  0.8615 -0.3467 -0.0074
10630TIP3    H153381   5.620   0.379   6.120 -0.3715 -0.3611 -0.5644
10630TIP3    H253382   5.648   0.297   5.995 -0.7619  0.3232 -1.1061
10631TIP3   OH253383   1.852   2.734  15.807  0.0536 -0.3794  0.1704
10631TIP3    H153384   1.859   2.759  15.714  0.6787  1.8820  0.7584
10631TIP3    H253385   1.942   2.715  15.833 -0.3263 -2.9660 -0.0907
10632TIP3   OH253386   3.507   6.384  16.130 -0.4108 -0.0774  0.1823
10632TIP3    H153387   3.512   6.327  16.207 -0.8772  0.8334  0.9066
10632TIP3    H253388   3.415   6.408  16.123  0.0620  2.2989  1.2005
10633TIP3   OH253389   5.063   4.450  14.016  0.3666  0.3023 -0.3610
10633TIP3    H153390   5.026   4.538  14.022 -1.3532 -0.3166 -1.2421
10633TIP3    H253391   4.991   4.392  14.041  0.4953 -0.9935 -2.6996
10634TIP3   OH253392   3.611   5.112   3.988 -0.0250 -0.0185  0.0442
10634TIP3    H153393   3.557   5.039   3.958  0.4018 -0.0116 -0.7803
10634TIP3    H253394   3.673   5.073   4.049 -0.3864 -0.1816  0.3101
10635TIP3   OH253395   4.676   1.063  12.367  0.1175 -0.6253  0.1287
10635TIP3    H153396   4.710   1.028  12.450 -0.4725  1.2398  1.2083
10635TIP3    H253397   4.622   0.992  12.332  0.8763 -1.6829  1.0016
10636TIP3   OH253398   3.470   0.166   1.375  0.2051 -0.3560  1.0599
10636TIP3    H153399   3.453   0.159   1.469 -1.1707  1.7896  1.0530
10636TIP3    H253400   3.389   0.136   1.334  0.3120 -0.0605  0.6234
10637TIP3   OH253401   6.320   0.505   4.476 -0.0528  0.0364  0.2049
10637TIP3    H153402   6.244   0.478   4.526  0.1220  0.0823  0.5001
10637TIP3    H253403   6.358   0.424   4.443  0.1646 -0.0450  0.6396
10638TIP3   OH253404   3.488   1.476   1.752 -0.1222 -0.3349 -0.2865
10638TIP3    H153405   3.517   1.478   1.843  1.6411 -1.0510 -0.7831
10638TIP3    H253406   3.566   1.451   1.702 -0.6993  1.2528 -2.1469
10639TIP3   OH253407   3.356   1.886  13.417  0.0284  0.6483  0.2691
10639TIP3    H153408   3.400   1.836  13.486 -0.3525 -0.1693 -0.0655
10639TIP3    H253409   3.356   1.977  13.449  0.9906  0.4863  0.7529
10640TIP3   OH253410   0.317   3.168  14.878  0.2924 -0.3698  0.6084
10640TIP3    H153411   0.322   3.258  14.848  2.5990 -0.8414 -0.6005
10640TIP3    H253412   0.333   3.173  14.973 -0.6440  0.5361  0.7365
10641TIP3   OH253413   3.823   1.058   6.639 -0.1686 -0.6153  0.0456
10641TIP3    H153414   3.785   1.124   6.696  1.4584  0.6466 -0.2369
10641TIP3    H253415   3.895   1.104   6.594  0.5487 -2.3856 -0.7139
10642TIP3   OH253416   2.376   1.522   1.668 -0.6102 -0.1395 -0.2436
10642TIP3    H153417   2.451   1.463   1.676  0.2576  0.5503 -2.5679
10642TIP3    H253418   2.408   1.606   1.701 -0.3269  0.1575 -1.2452
10643TIP3   OH253419   3.344   5.023  11.275 -0.0165  0.6865  0.3434
10643TIP3    H153420   3.320   5.083  11.345  0.0701  2.4849 -1.1097
10643TIP3    H253421   3.440   5.024  11.275 -0.0137  0.4857  0.3444
10644TIP3   OH253422   3.084   4.293   3.413 -0.5995  0.0540  0.2087
10644TIP3    H153423   3.077   4.383   3.382  1.7857  0.5342  0.8520
10644TIP3    H253424   3.017   4.245   3.363 -1.4116  2.0242 -0.6875
10645TIP3   OH253425   3.398   6.467   6.171  0.5847  0.1558 -0.2058
10645TIP3    H153426   3.377   6.555   6.140 -0.0591 -0.4451 -1.5874
10645TIP3    H253427   3.489   6.473   6.202 -0.2819  1.9006  2.2753
10646TIP3   OH253428   5.223   6.817  12.707  0.3948 -0.2891  0.0040
10646TIP3    H153429   5.273   6.778  12.779 -0.1374 -0.2079  0.4236
10646TIP3    H253430   5.235   6.757  12.634  1.7307  0.1208 -0.1287
10647TIP3   OH253431   2.750   5.075  14.787  0.0030 -0.1269 -1.0270
10647TIP3    H153432   2.844   5.064  14.774  0.0471 -0.8708 -0.1722
10647TIP3    H253433   2.721   4.992  14.826 -1.2144 -0.3581 -2.3343
10648TIP3   OH253434   3.160   5.085  11.008 -0.2574  0.1894  0.2239
10648TIP3    H153435   3.111   5.160  11.041 -0.0527  1.0442 -1.3376
10648TIP3    H253436   3.240   5.122  10.972  0.7386 -0.9988  1.1147
10649TIP3   OH253437   4.189   6.505   1.314  0.0618  0.0338  0.9316
10649TIP3    H153438   4.134   6.429   1.333  1.0598 -1.1176 -0.4864
10649TIP3    H253439   4.277   6.477   1.338  0.6735  0.1274 -1.0355
10650TIP3   OH253440   6.233   5.568  16.559 -0.0957  0.6962 -0.3439
10650TIP3    H153441   6.144   5.541  16.537 -0.4728  1.4344  0.1866
10650TIP3    H253442   6.231   5.581  16.654  1.2395 -1.5716  0.0551
10651TIP3   OH253443   2.026   2.585   1.869  0.2598 -0.8295  0.5497
10651TIP3    H153444   2.039   2.662   1.924 -0.7165  0.1658 -0.5531
10651TIP3    H253445   1.988   2.519   1.927  0.6622 -0.3343  1.3943
10652TIP3   OH253446   6.476   6.350   5.097  1.0273  0.6209  0.2913
10652TIP3    H153447   6.484   6.259   5.126  1.3255  0.8490  0.9428
10652TIP3    H253448   6.554   6.393   5.132  1.2344  0.9824 -0.5833
10653TIP3   OH253449   2.278   3.734   1.059  0.1182  0.6592  0.5135
10653TIP3    H153450   2.198   3.692   1.025  0.8641 -1.1204  0.8316
10653TIP3    H253451   2.339   3.732   0.985  0.3921  0.5146  0.7416
10654TIP3   OH253452   4.139   6.792   2.532 -0.6626 -0.1548  0.1968
10654TIP3    H153453   4.168   6.780   2.622 -0.7460  0.3515  0.2948
10654TIP3    H253454   4.112   6.884   2.527 -0.8055 -0.2178 -0.3013
10655TIP3   OH253455   5.339   3.970   2.543 -0.3710  0.6261 -0.0216
10655TIP3    H153456   5.345   3.882   2.505 -0.7172  0.7070 -0.2718
10655TIP3    H253457   5.255   4.004   2.511  0.0084  1.2579 -0.3813
10656TIP3   OH253458   6.243   2.895   1.327  0.3622 -0.0473 -0.7409
10656TIP3    H153459   6.263   2.807   1.296  2.4984 -0.0388  0.4188
10656TIP3    H253460   6.328   2.931   1.352 -0.7615  1.3676  1.3299
10657TIP3   OH253461   0.400   5.939  11.387  0.0475  0.0358  0.2789
10657TIP3    H153462   0.405   5.864  11.446 -0.3937  2.1893  3.3024
10657TIP3    H253463   0.474   5.994  11.413  0.0038  0.9679 -1.4474
10658TIP3   OH253464   2.117   1.033   1.291 -0.4580  0.0964 -0.4415
10658TIP3    H153465   2.111   0.939   1.310 -0.7237  0.2463  0.2567
10658TIP3    H253466   2.055   1.073   1.352 -2.2750  0.5193 -2.4513
10659TIP3   OH253467   3.826   1.268  10.840  0.6418 -0.2388 -0.2134
10659TIP3    H153468   3.807   1.354  10.804  0.2656 -1.2895 -2.7417
10659TIP3    H253469   3.743   1.220  10.832  1.1748 -1.2137 -0.0433
10660TIP3   OH253470   1.955   1.262  16.209 -0.1902  0.3151 -0.2902
10660TIP3    H153471   1.954   1.285  16.116  0.9975 -0.7373 -0.5794
10660TIP3    H253472   1.951   1.167  16.211  0.2992  0.3026  0.7330
10661TIP3   OH253473   3.323   6.625   1.570  0.8617  0.2747  0.4448
10661TIP3    H153474   3.333   6.542   1.618  1.4546 -0.1116 -0.3272
10661TIP3    H253475   3.269   6.603   1.494  0.7777  0.6679  0.3868
10662TIP3   OH253476   5.233   4.048   2.825  0.2754  0.9656  0.5095
10662TIP3    H153477   5.183   4.057   2.906 -0.9996 -0.4220 -0.0845
10662TIP3    H253478   5.225   4.134   2.783 -1.5368  0.8173  0.4838
10663TIP3   OH253479   3.011   4.477   6.122  0.5734  0.5246 -0.1266
10663TIP3    H153480   3.065   4.426   6.182 -1.1841 -0.7473  0.4742
10663TIP3    H253481   2.971   4.544   6.178 -1.5208 -1.0152  0.3867
10664TIP3   OH253482   1.659   0.068  13.219 -0.3015 -0.2358 -0.2591
10664TIP3    H153483   1.668   0.148  13.167 -0.2774 -0.8259 -1.1799
10664TIP3    H253484   1.565   0.052  13.222 -0.2680 -0.5019 -0.5890
10665TIP3   OH253485   1.059   0.041   1.439  0.5272 -0.7248 -0.1635
10665TIP3    H153486   1.146   0.081   1.444  0.8545 -1.4995  0.6827
10665TIP3    H253487   1.069  -0.043   1.484 -1.1522  0.0438  1.8047
10666TIP3   OH253488   0.532   5.684  12.806  0.5097  0.3093  0.5463
10666TIP3    H153489   0.605   5.659  12.864 -1.0381 -0.4921  2.2485
10666TIP3    H253490   0.543   5.778  12.794  2.0417  0.1476  0.4237
10667TIP3   OH253491   6.598   6.315  16.733  0.2195 -0.8140  0.4829
10667TIP3    H153492   6.610   6.312  16.828 -0.2814 -0.1749  0.5693
10667TIP3    H253493   6.673   6.365  16.701  0.9421 -1.8864  0.4251
10668TIP3   OH253494   4.168   5.019  12.077  0.1161 -0.1217  0.0099
10668TIP3    H153495   4.218   5.086  12.124  0.5276  0.8207 -1.6782
10668TIP3    H253496   4.235   4.964  12.036 -0.2353 -0.4238 -0.1648
10669TIP3   OH253497   0.781   4.454  14.800  0.3841 -0.4482 -0.2004
10669TIP3    H153498   0.818   4.447  14.712  0.1439 -0.5313 -0.2960
10669TIP3    H253499   0.751   4.365  14.821  0.6002 -0.4669  0.0366
10670TIP3   OH253500   0.196   1.041  13.466  0.4881 -0.4530 -0.2804
10670TIP3    H153501   0.229   0.970  13.520  1.7330  1.0013  0.9624
10670TIP3    H253502   0.252   1.040  13.388  0.7340 -0.6262 -0.1027
10671TIP3   OH253503   3.637   3.607   1.912  0.0059 -0.8789  0.2557
10671TIP3    H153504   3.610   3.698   1.926  1.0610 -0.8508  2.5673
10671TIP3    H253505   3.664   3.604   1.820 -1.2361  0.7939 -0.2192
10672TIP3   OH253506   5.891   2.311  15.250 -0.6444  0.3120  0.5803
10672TIP3    H153507   5.858   2.306  15.161  0.6958  0.0238  0.0720
10672TIP3    H253508   5.882   2.403  15.274 -1.3571  0.3200  0.2832
10673TIP3   OH253509   2.299   1.218  15.690 -0.2721 -0.0247 -0.5529
10673TIP3    H153510   2.297   1.253  15.779  0.2057 -2.3132  0.4433
10673TIP3    H253511   2.209   1.191  15.673  0.1004 -2.1276  0.4222
10674TIP3   OH253512   3.836   2.343   2.380 -0.6394  0.6305 -0.2011
10674TIP3    H153513   3.829   2.274   2.446  2.3154  0.6960  0.3275
10674TIP3    H253514   3.842   2.296   2.297 -0.4062  0.3280 -0.0168
10675TIP3   OH253515   1.795   6.732  11.287  0.1636 -0.8201  0.4705
10675TIP3    H153516   1.786   6.649  11.334 -0.0712 -2.9368 -2.9843
10675TIP3    H253517   1.725   6.787  11.323 -1.9444 -3.3675  0.5710
10676TIP3   OH253518   2.204   2.544  11.226  0.3710 -0.5571 -0.3321
10676TIP3    H153519   2.158   2.625  11.204 -1.3922 -1.8880 -1.7487
10676TIP3    H253520   2.141   2.493  11.277  1.7048 -0.7877  1.1642
10677TIP3   OH253521   4.892   6.064  10.855 -0.3697 -0.4265 -0.3063
10677TIP3    H153522   4.882   5.970  10.871  0.9505 -0.2568  2.0031
10677TIP3    H253523   4.983   6.082  10.877 -0.3281  1.2433 -1.6978
10678TIP3   OH253524   3.553   2.053  16.196  0.8260 -0.3207 -0.1599
10678TIP3    H153525   3.626   2.052  16.134  0.1031  0.1686 -1.0290
10678TIP3    H253526   3.481   2.095  16.149  0.3762  0.4280  1.1419
10679TIP3   OH253527   5.884   6.287  12.272  0.1625 -1.0277 -0.4293
10679TIP3    H153528   5.809   6.281  12.332  1.8233  1.8250  2.2336
10679TIP3    H253529   5.852   6.343  12.201 -0.5759 -0.7666  0.0904
10680TIP3   OH253530   1.623   6.531   5.410  0.0784 -0.2384 -0.2763
10680TIP3    H153531   1.571   6.559   5.335  0.2923  0.5071 -0.1544
10680TIP3    H253532   1.708   6.573   5.396 -0.1337  0.5948  0.8068
10681TIP3   OH253533   4.172   3.273  11.320  0.1999  0.4510  0.6902
10681TIP3    H153534   4.103   3.339  11.320 -0.7848 -0.5419  0.3786
10681TIP3    H253535   4.253   3.323  11.308 -0.6002  1.5174 -0.6775
10682TIP3   OH253536   2.087   5.104  13.957 -0.5249 -0.7298 -0.0554
10682TIP3    H153537   2.050   5.191  13.944 -2.1718 -1.7334 -3.3662
10682TIP3    H253538   2.151   5.115  14.026 -0.0764  3.2659 -0.8511
10683TIP3   OH253539   3.615   5.830  10.763 -0.7662 -0.5489  0.0167
10683TIP3    H153540   3.573   5.916  10.763 -1.2610 -0.6576  3.2561
10683TIP3    H253541   3.548   5.771  10.799  0.1661 -1.9447 -0.4626
10684TIP3   OH253542   1.946   4.546  10.926  0.0744  0.7834 -0.0507
10684TIP3    H153543   1.900   4.462  10.919 -1.0729  1.3757  0.1248
10684TIP3    H253544   1.904   4.600  10.859  0.7370  1.2495 -0.0881
10685TIP3   OH253545   0.343   5.172   4.649 -0.3264 -0.3017 -0.6696
10685TIP3    H153546   0.356   5.265   4.627  0.1466  0.1245  1.1986
10685TIP3    H253547   0.408   5.126   4.596  1.2655  0.7223  0.2892
10686TIP3   OH253548   1.726   2.220  13.752 -0.1415 -0.3440  0.3498
10686TIP3    H153549   1.791   2.283  13.783 -0.4510  0.9475 -1.4572
10686TIP3    H253550   1.654   2.274  13.719 -0.9043 -1.6843 -0.2558
10687TIP3   OH253551   1.419   2.070  13.236 -0.6894 -0.1443 -0.2147
10687TIP3    H153552   1.418   1.976  13.223 -0.3181 -0.0498 -0.9859
10687TIP3    H253553   1.508   2.089  13.266 -1.1452 -0.1910  1.2565
10688TIP3   OH253554   3.751   0.769   6.585 -0.2508 -0.0361  0.1834
10688TIP3    H153555   3.760   0.863   6.596 -2.4245  0.2628 -0.2373
10688TIP3    H253556   3.738   0.756   6.491  0.0647 -0.7684  0.2284
10689TIP3   OH253557   1.565   1.789   4.215  0.1712 -0.1416 -0.7196
10689TIP3    H153558   1.482   1.810   4.258  0.0179  0.6497 -1.3676
10689TIP3    H253559   1.546   1.797   4.121  1.5238  2.3664 -0.8706
10690TIP3   OH253560   0.009   5.748  14.693  0.0169 -0.3299  0.0768
10690TIP3    H153561   0.022   5.777  14.603  0.1709  2.3896  0.8771
10690TIP3    H253562   0.049   5.662  14.697  1.1694  0.0379 -2.1201
10691TIP3   OH253563   0.723   5.707   2.296  0.0931  0.0999 -0.1577
10691TIP3    H153564   0.679   5.690   2.379  0.7809  1.1840  0.4627
10691TIP3    H253565   0.726   5.803   2.291 -1.2591  0.0904 -2.1548
10692TIP3   OH253566   0.392   3.688   0.012  0.7083  0.9076  0.7837
10692TIP3    H153567   0.459   3.620   0.016  0.1413  0.3472  0.7610
10692TIP3    H253568   0.340   3.667  -0.065 -0.4685  0.4158  1.6708
10693TIP3   OH253569   5.886   1.332  16.276  0.5427 -0.4107 -0.2488
10693TIP3    H153570   5.811   1.386  16.303  0.8741  0.0588 -0.2551
10693TIP3    H253571   5.859   1.295  16.192  0.0732 -0.7400  0.0354
10694TIP3   OH253572   5.400   4.070  12.634  0.2410 -0.4699  0.2111
10694TIP3    H153573   5.393   4.071  12.538  1.9449  1.8400  0.0423
10694TIP3    H253574   5.366   3.984  12.659  0.7454 -1.5780 -2.5445
10695TIP3   OH253575   5.413   2.089  11.298 -0.4990 -0.3974 -0.1057
10695TIP3    H153576   5.321   2.113  11.305 -0.1897  1.5874 -1.6585
10695TIP3    H253577   5.457   2.172  11.276  1.2323 -1.7826 -2.2797
10696TIP3   OH253578   0.469   4.434   4.276 -0.1881  0.1300  0.0355
10696TIP3    H153579   0.411   4.500   4.238  0.7271 -0.3255 -2.3426
10696TIP3    H253580   0.493   4.469   4.362 -1.8154  1.5835 -0.0332
10697TIP3   OH253581   2.713   4.490   2.582 -0.4974 -0.4653  0.5443
10697TIP3    H153582   2.778   4.439   2.535 -0.3267 -0.3833  0.6876
10697TIP3    H253583   2.665   4.426   2.634 -1.9992 -0.8445 -1.1970
10698TIP3   OH253584   2.466   2.551  12.395 -0.4749 -0.1519 -0.5789
10698TIP3    H153585   2.448   2.609  12.321  0.3258  1.3402  0.3316
10698TIP3    H253586   2.500   2.610  12.463 -0.9286 -1.5080  0.8789
10699TIP3   OH253587   0.807   5.951   5.275  0.1210  0.5951  0.7473
10699TIP3    H153588   0.714   5.934   5.261  0.3663 -0.0648 -0.1942
10699TIP3    H253589   0.843   5.868   5.307  1.0465 -0.3716 -2.4417
10700TIP3   OH253590   6.599   6.772  11.691 -0.0943  0.4197 -0.0883
10700TIP3    H153591   6.616   6.680  11.711 -0.8408  0.5557  1.3522
10700TIP3    H253592   6.683   6.806  11.661  0.1525 -0.7576 -0.7965
10701TIP3   OH253593   3.070   5.688  14.736  0.1140 -0.5240 -0.0563
10701TIP3    H153594   3.149   5.633  14.730  0.8242  0.2584  1.3859
10701TIP3    H253595   3.087   5.761  14.676  1.0688  0.2669  1.1229
10702TIP3   OH253596   0.795   6.798   0.980 -0.8881  0.5525 -0.0871
10702TIP3    H153597   0.753   6.874   0.940 -0.5650  0.1821 -1.1784
10702TIP3    H253598   0.825   6.745   0.905  4.5055  2.3485  0.3624
10703TIP3   OH253599   0.290   2.072  15.866 -0.3443  0.0988 -0.0908
10703TIP3    H153600   0.340   2.014  15.924 -0.5856  0.7642  0.8089
10703TIP3    H253601   0.353   2.139  15.841 -0.2863 -0.0982 -0.4799
10704TIP3   OH253602   3.386   0.668  14.760  0.2750 -0.2923  0.0103
10704TIP3    H153603   3.413   0.671  14.852 -1.2274  0.0712  0.4589
10704TIP3    H253604   3.433   0.593  14.724  0.5735 -0.6878  1.1794
10705TIP3   OH253605   4.613   2.481  16.286 -0.4363 -0.4133 -0.2097
10705TIP3    H153606   4.526   2.443  16.289 -0.5171 -0.2043  0.1288
10705TIP3    H253607   4.624   2.524  16.371 -0.8561  1.4717 -1.0689
10706TIP3   OH253608   4.532   6.683  14.645  0.0474  0.1190 -0.1956
10706TIP3    H153609   4.472   6.754  14.667  0.7118  0.6397 -0.0465
10706TIP3    H253610   4.595   6.722  14.584  0.5565 -0.2809  0.0645
10707TIP3   OH253611   1.363   0.165  16.603  0.1918 -0.6543  0.3430
10707TIP3    H153612   1.347   0.231  16.670 -2.6194 -1.0502  0.1668
10707TIP3    H253613   1.424   0.208  16.542 -0.4740  1.2749  0.9455
10708TIP3   OH253614   1.388   5.883   5.487 -0.1985  0.4926  0.5196
10708TIP3    H153615   1.310   5.845   5.526 -1.1670  3.0423  1.2397
10708TIP3    H253616   1.362   5.906   5.397  0.1208  0.1991  0.3504
10709TIP3   OH253617   4.932   1.500  11.560 -0.0563  0.4521 -0.0898
10709TIP3    H153618   4.961   1.409  11.556  1.1241  0.8551 -1.4949
10709TIP3    H253619   4.868   1.502  11.632  2.0904 -0.8412  1.9922
10710TIP3   OH253620   5.821   0.137  14.557 -0.3930 -0.1149  0.3089
10710TIP3    H153621   5.863   0.200  14.499  3.8800 -0.2648  2.8007
10710TIP3    H253622   5.768   0.189  14.617 -0.6907  0.5482 -0.5186
10711TIP3   OH253623   3.916   2.171   6.153  0.5339  0.2797  0.3676
10711TIP3    H153624   3.881   2.259   6.161 -0.5389 -0.1698  0.8756
10711TIP3    H253625   4.011   2.182   6.149  0.3760  1.5042 -0.4963
10712TIP3   OH253626   4.694   0.335   4.040  0.4605  0.5153  0.1324
10712TIP3    H153627   4.707   0.412   4.096 -0.1380  1.6097 -1.1935
10712TIP3    H253628   4.661   0.370   3.958 -0.4813 -1.2290 -0.2785
10713TIP3   OH253629   6.172   2.588  16.780 -0.0630  0.1802 -0.6017
10713TIP3    H153630   6.240   2.633  16.729  0.8333 -0.0241  0.3712
10713TIP3    H253631   6.156   2.507  16.732  0.0059  0.4649 -1.1183
10714TIP3   OH253632   6.491   5.679  16.554 -0.8523  0.3259 -0.2464
10714TIP3    H153633   6.547   5.621  16.502  1.2162  0.4213  1.7277
10714TIP3    H253634   6.409   5.629  16.564 -0.3410 -0.8036 -1.3518
10715TIP3   OH253635   4.038   1.487   5.709  0.5055 -0.5210 -0.6761
10715TIP3    H153636   4.104   1.499   5.776 -0.0245 -1.5224  0.0535
10715TIP3    H253637   4.046   1.396   5.682 -0.3829 -0.5886 -0.7689
10716TIP3   OH253638   6.437   4.951   0.759  0.0969  0.1310 -0.5342
10716TIP3    H153639   6.396   5.022   0.807 -0.1606 -0.9366  0.8875
10716TIP3    H253640   6.371   4.882   0.756  0.8789 -0.6439 -0.4751
10717TIP3   OH253641   3.798   1.820   0.829 -0.0286 -0.1787 -0.0099
10717TIP3    H153642   3.847   1.794   0.750 -1.5631 -1.2257 -0.6611
10717TIP3    H253643   3.787   1.915   0.819  1.5805  0.0380  0.0138
10718TIP3   OH253644   5.270   1.111   4.930  0.1768  0.8030 -0.1593
10718TIP3    H153645   5.258   1.018   4.917  0.9381  0.5008  1.0697
10718TIP3    H253646   5.195   1.152   4.887 -0.5201 -0.4095 -0.1310
10719TIP3   OH253647   6.701   0.470  13.648  0.0247  0.5224  0.6049
10719TIP3    H153648   6.745   0.446  13.730  1.2105  0.4326 -0.0445
10719TIP3    H253649   6.735   0.557  13.628  0.6868  0.0278 -0.4433
10720TIP3   OH253650   0.801   1.313   5.988 -0.2715 -0.2329  0.3508
10720TIP3    H153651   0.741   1.387   5.992  0.1626  0.2726 -1.5685
10720TIP3    H253652   0.865   1.338   5.922  0.2726 -2.0666  0.1370
10721TIP3   OH253653   6.836   6.643   2.242  0.3588  0.2646  0.0465
10721TIP3    H153654   6.755   6.680   2.277 -0.5839 -0.9704 -0.7266
10721TIP3    H253655   6.830   6.549   2.262  0.9343 -0.0708 -1.2469
10722TIP3   OH253656   2.046   6.058   0.729 -0.0123 -0.4752  0.0913
10722TIP3    H153657   2.128   6.033   0.771 -0.4230  0.0630  1.2293
10722TIP3    H253658   2.065   6.051   0.635  1.1225 -1.0118  0.3419
10723TIP3   OH253659   1.498   2.515  14.241  0.2657 -0.0610 -0.6732
10723TIP3    H153660   1.445   2.587  14.275 -0.4339 -1.3776  1.1432
10723TIP3    H253661   1.586   2.532  14.275 -0.2573 -0.9280  1.2592
10724TIP3   OH253662   5.772   0.721  14.012 -0.6666 -0.1569 -0.0969
10724TIP3    H153663   5.747   0.808  13.980  0.4985  0.4608  0.6101
10724TIP3    H253664   5.697   0.692  14.064 -0.8127  0.6959  0.1795
10725TIP3   OH253665   5.752   4.101  16.415 -0.5266  0.5120 -0.0184
10725TIP3    H153666   5.768   4.023  16.362 -1.5339 -0.6226  1.2828
10725TIP3    H253667   5.800   4.085  16.496  1.4476  2.4594 -0.6814
10726TIP3   OH253668   5.457   2.457   1.028 -0.1356  0.5583 -0.0275
10726TIP3    H153669   5.431   2.376   1.070  0.5520 -0.6052 -1.7146
10726TIP3    H253670   5.552   2.460   1.038 -0.1814  1.3135  0.2661
10727TIP3   OH253671   5.250   2.202   3.585 -0.5233 -0.0489  0.0603
10727TIP3    H153672   5.206   2.146   3.648 -0.6016 -1.9169 -1.5428
10727TIP3    H253673   5.340   2.209   3.617 -0.2828 -1.8678 -0.1305
10728TIP3   OH253674   1.673   4.474   4.531  0.0704  0.3511  0.2713
10728TIP3    H153675   1.628   4.473   4.615  0.0964  0.8873  0.2992
10728TIP3    H253676   1.665   4.565   4.501  0.7574  0.3499  0.0753
10729TIP3   OH253677   2.657   2.047   1.632 -1.2038 -0.6095  0.2540
10729TIP3    H153678   2.648   2.025   1.539 -2.1145 -0.1915  0.2360
10729TIP3    H253679   2.751   2.035   1.650 -1.1940 -1.7746 -0.4359
10730TIP3   OH253680   3.917   2.336  16.667 -0.4601 -0.2008  0.1903
10730TIP3    H153681   3.904   2.420  16.624  0.6842  1.4111  2.7545
10730TIP3    H253682   3.837   2.287  16.648 -2.0295  2.1982  0.1466
10731TIP3   OH253683   0.913   0.311  13.180  0.1409 -0.7921 -0.4637
10731TIP3    H153684   0.972   0.374  13.221 -0.9884 -0.1718  0.2626
10731TIP3    H253685   0.966   0.233  13.166  0.6437 -0.9410  1.9842
10732TIP3   OH253686   1.159   5.782   0.733  0.3112  0.6061 -0.1036
10732TIP3    H153687   1.237   5.836   0.742  1.5043 -0.8245 -1.3709
10732TIP3    H253688   1.137   5.755   0.822  1.8879  0.2143  0.1932
10733TIP3   OH253689   3.804   0.021   2.389 -0.3927  0.0976 -0.0050
10733TIP3    H153690   3.731   0.016   2.326 -0.0121 -0.9195 -0.3941
10733TIP3    H253691   3.798   0.108   2.426  0.2643  1.3187 -2.5387
10734TIP3   OH253692   2.830   4.310   5.520 -0.0757 -0.5576  0.0651
10734TIP3    H153693   2.773   4.360   5.578  0.6506 -0.6213  0.8476
10734TIP3    H253694   2.883   4.255   5.578  0.6560 -0.6400 -0.6491
10735TIP3   OH253695   5.263   0.404   0.758  0.0384  0.0739 -0.0658
10735TIP3    H153696   5.286   0.417   0.666 -0.3350 -2.0624 -0.5120
10735TIP3    H253697   5.285   0.313   0.776  0.5880  0.5590  2.1383
10736TIP3   OH253698   3.096   4.370  11.550 -0.1987 -0.4323  0.7364
10736TIP3    H153699   3.113   4.285  11.509  0.4583 -0.7702  1.6739
10736TIP3    H253700   3.177   4.419  11.540 -0.5058  0.0110  0.3900
10737TIP3   OH253701   5.322   1.800   0.184 -1.0401  0.4494 -0.2070
10737TIP3    H153702   5.246   1.748   0.211 -0.2339 -1.1648 -0.9015
10737TIP3    H253703   5.395   1.763   0.233 -0.5714  1.4981 -0.0896
10738TIP3   OH253704   2.573   3.222   1.990  0.0108  0.4203 -0.0983
10738TIP3    H153705   2.655   3.224   1.940 -0.5636  0.1440 -1.0758
10738TIP3    H253706   2.579   3.142   2.042  0.2672  0.2859 -0.3311
10739TIP3   OH253707   2.014   0.964  13.153 -0.0494 -0.2948  0.4372
10739TIP3    H153708   1.926   0.953  13.189  0.1797 -1.3168  0.7478
10739TIP3    H253709   2.064   1.002  13.225 -0.0439 -0.5165  0.5527
10740TIP3   OH253710   2.803   2.126   5.765  0.5387 -0.0924  0.3445
10740TIP3    H153711   2.729   2.065   5.769 -1.9406  2.6141  0.0458
10740TIP3    H253712   2.869   2.089   5.823 -1.1924 -2.5014  0.9361
10741TIP3   OH253713   2.616   3.659   0.237 -0.7975 -0.4687 -0.3491
10741TIP3    H153714   2.547   3.613   0.189 -0.8235 -1.2471  0.3997
10741TIP3    H253715   2.617   3.617   0.323  0.0242  0.1227 -0.0553
10742TIP3   OH253716   0.831   0.778  16.050  0.4087  0.7435  0.4749
10742TIP3    H153717   0.915   0.823  16.059  0.9134 -0.3727  1.7384
10742TIP3    H253718   0.849   0.688  16.079 -0.3573 -0.5659 -2.6209
10743TIP3   OH253719   1.822   1.587  11.244  0.5277 -0.6837 -0.1986
10743TIP3    H153720   1.761   1.591  11.170  1.4073  2.1527 -0.8942
10743TIP3    H253721   1.908   1.581  11.203  0.9820  0.1344  0.5931
10744TIP3   OH253722   6.667   1.670  16.428 -0.1381 -0.0583 -0.1112
10744TIP3    H153723   6.727   1.702  16.361 -2.9317 -1.1216 -3.3574
10744TIP3    H253724   6.686   1.576  16.435  1.1168  0.2791  1.8033
10745TIP3   OH253725   1.802   5.833  11.323  0.0883 -0.0480  0.5401
10745TIP3    H153726   1.836   5.782  11.396  1.0220  0.3989  0.4360
10745TIP3    H253727   1.767   5.912  11.362  0.8464  0.3203  0.4888
10746TIP3   OH253728   0.805   6.610  16.587 -0.6811  0.2340 -0.2271
10746TIP3    H153729   0.809   6.650  16.500 -1.2666  2.3379  0.6483
10746TIP3    H253730   0.896   6.605  16.616 -0.5613  0.4287 -0.5659
10747TIP3   OH253731   5.597   2.724   2.729  0.4631  0.2390 -0.2016
10747TIP3    H153732   5.519   2.765   2.693  0.6058  0.0899 -0.6904
10747TIP3    H253733   5.592   2.741   2.823 -1.4629 -1.9411  0.1669
10748TIP3   OH253734   2.743   5.639   5.027  0.4473  0.5027 -0.3007
10748TIP3    H153735   2.714   5.681   5.108 -0.3130 -0.1822 -0.2014
10748TIP3    H253736   2.705   5.551   5.030  1.8113 -0.1259 -0.6202
10749TIP3   OH253737   5.128   6.108  17.118 -0.2325 -0.4035 -0.5413
10749TIP3    H153738   5.065   6.096  17.190 -0.4124 -0.7245 -0.7514
10749TIP3    H253739   5.086   6.067  17.042  0.7121 -1.6701 -0.4248
10750TIP3   OH253740   2.566   1.650   0.774 -0.1323  0.2573  0.0486
10750TIP3    H153741   2.646   1.687   0.810 -0.1954  1.2527 -0.7821
10750TIP3    H253742   2.587   1.631   0.682 -0.5876 -0.2729  0.0503
10751TIP3   OH253743   3.872   0.764   2.955  0.3672 -0.7799  0.2447
10751TIP3    H153744   3.856   0.803   2.870 -2.2506 -2.6821 -0.2761
10751TIP3    H253745   3.942   0.700   2.940  1.9220  0.8553  0.2416
10752TIP3   OH253746   0.726   1.688   1.687  0.0854 -0.1130  0.1964
10752TIP3    H153747   0.786   1.750   1.727 -0.4806  0.0850  0.7544
10752TIP3    H253748   0.774   1.652   1.613  0.8902  0.0374  0.6384
10753TIP3   OH253749   3.225   0.393   5.523  0.1712 -0.2448  0.6049
10753TIP3    H153750   3.141   0.351   5.500  0.6086 -1.0362  0.3995
10753TIP3    H253751   3.218   0.481   5.487 -1.2329  0.2722  2.0282
10754TIP3   OH253752   0.472   2.220  13.394 -0.1558  0.3702 -0.4183
10754TIP3    H153753   0.550   2.224  13.450  0.7220  1.0632 -1.6497
10754TIP3    H253754   0.424   2.300  13.413 -0.4314  0.0817  0.1268
10755TIP3   OH253755   2.296   1.619  15.831 -0.6519  0.3425 -0.1769
10755TIP3    H153756   2.390   1.604  15.844 -1.1483 -1.7842  1.4338
10755TIP3    H253757   2.278   1.581  15.745 -0.1419  0.2966 -0.2689
10756TIP3   OH253758   3.181   6.110   1.843  0.3148 -0.8673 -0.6008
10756TIP3    H153759   3.127   6.051   1.791  0.4531 -1.8493  0.3317
10756TIP3    H253760   3.271   6.089   1.819  0.3332  0.0029 -1.3424
10757TIP3   OH253761   1.938   2.515  16.977 -0.3782  0.0861 -0.2436
10757TIP3    H153762   1.877   2.585  16.998  0.7453  1.1176 -0.2744
10757TIP3    H253763   1.992   2.551  16.907  1.2355 -0.1943  0.8000
10758TIP3   OH253764   0.311   1.638  10.622 -0.2810 -0.1892 -0.4295
10758TIP3    H153765   0.275   1.724  10.601 -1.0578 -0.6965 -1.2286
10758TIP3    H253766   0.319   1.594  10.537 -0.1975 -1.0245  0.0022
10759TIP3   OH253767   2.553   0.339   5.055 -0.4669  0.3306  0.0647
10759TIP3    H153768   2.600   0.290   5.122 -0.5236 -1.0613 -0.8772
10759TIP3    H253769   2.510   0.410   5.103  1.3395  0.7479  1.1560
10760TIP3   OH253770   2.509   2.325   1.461  0.2106  0.2104 -0.6740
10760TIP3    H153771   2.505   2.256   1.395  0.6026 -0.1998 -0.2748
10760TIP3    H253772   2.595   2.365   1.450  0.8208 -0.7368  0.4478
10761TIP3   OH253773   2.218   1.798   5.452 -0.0146 -0.1973  0.5303
10761TIP3    H153774   2.253   1.877   5.412  1.7739 -1.5306 -0.6990
10761TIP3    H253775   2.267   1.788   5.534  0.7391 -0.7293  0.0255
10762TIP3   OH253776   4.502   4.657   4.816 -0.2750 -0.4507  0.1826
10762TIP3    H153777   4.472   4.742   4.848  1.4982  0.0600  0.5799
10762TIP3    H253778   4.596   4.658   4.830 -0.0091 -1.8836 -1.2362
10763TIP3   OH253779   3.705   5.327  14.533 -0.3155 -0.1589  0.1360
10763TIP3    H153780   3.691   5.246  14.483 -0.3475 -0.7415  1.0639
10763TIP3    H253781   3.668   5.309  14.619  0.5071  0.5155  0.6474
10764TIP3   OH253782   4.711   6.591  14.952  0.1641  0.0715  0.2622
10764TIP3    H153783   4.713   6.643  14.872  1.5933  0.2011  0.3636
10764TIP3    H253784   4.639   6.529  14.938  0.1242  0.3623 -0.9392
10765TIP3   OH253785   2.861   2.243   4.581 -0.1166  0.1062 -0.2525
10765TIP3    H153786   2.838   2.262   4.490  0.1469 -1.0156 -0.5681
10765TIP3    H253787   2.847   2.149   4.590 -1.7917  0.4646  1.3762
10766TIP3   OH253788   3.777   3.850  13.212  0.3992  0.7769  0.1593
10766TIP3    H153789   3.788   3.914  13.142  1.0182 -0.3896 -0.8473
10766TIP3    H253790   3.861   3.851  13.259 -1.0948  4.1216  3.2563
10767TIP3   OH253791   4.540   2.302   0.243  0.1209 -0.6669  0.0757
10767TIP3    H153792   4.616   2.315   0.187  1.3225 -2.0955  1.2956
10767TIP3    H253793   4.569   2.239   0.309 -2.2308 -1.5568  0.3663
10768TIP3   OH253794   4.265   0.578   2.346  0.6876  0.2043  0.3111
10768TIP3    H153795   4.172   0.563   2.329  0.5085 -0.0900  1.4630
10768TIP3    H253796   4.269   0.664   2.386  0.7834 -0.1738  1.1448
10769TIP3   OH253797   1.212   3.909  16.791 -0.5599  0.4467 -0.5532
10769TIP3    H153798   1.292   3.890  16.840  0.2625  1.2531 -1.5567
10769TIP3    H253799   1.188   3.998  16.818 -2.7325 -0.7220  1.8643
10770TIP3   OH253800   6.334   2.277  11.196 -0.3331  0.1843  0.1527
10770TIP3    H153801   6.365   2.280  11.106  0.5665  2.3506  0.4676
10770TIP3    H253802   6.239   2.271  11.189 -0.1519 -2.9996 -0.8661
10771TIP3   OH253803   5.932   1.950   1.995 -0.4790 -0.1606  0.1177
10771TIP3    H153804   5.945   1.994   2.079  1.3538  1.7719 -1.0672
10771TIP3    H253805   5.847   1.980   1.965 -0.6929 -0.0425  0.8286
10772TIP3   OH253806   0.551   3.340  12.070 -0.7617 -0.6030  1.1866
10772TIP3    H153807   0.642   3.363  12.050 -0.8875 -1.5893 -0.6588
10772TIP3    H253808   0.550   3.244  12.070 -2.0020 -0.6085  0.1655
10773TIP3   OH253809   1.847   1.791   0.461 -0.5748 -0.3193 -0.6446
10773TIP3    H153810   1.865   1.863   0.521 -1.5587 -2.2119  2.1308
10773TIP3    H253811   1.754   1.771   0.474  0.1371 -3.4749  0.4825
10774TIP3   OH253812   1.086   2.560   2.514 -0.1990 -0.6341 -0.0985
10774TIP3    H153813   1.090   2.620   2.588 -3.1405 -0.5357  0.0985
10774TIP3    H253814   1.010   2.589   2.464 -0.5806 -3.0267 -1.0344
10775TIP3   OH253815   0.641   6.484  16.776 -0.1973 -0.4122  0.0629
10775TIP3    H153816   0.571   6.442  16.727 -1.3584 -1.0076  2.1283
10775TIP3    H253817   0.701   6.516  16.709 -0.9412 -2.4446 -1.6784
10776TIP3   OH253818   3.512   2.975  13.498 -0.1421 -0.4553 -0.2738
10776TIP3    H153819   3.532   3.021  13.579  2.0149 -1.1433 -0.3522
10776TIP3    H253820   3.558   2.891  13.506 -0.6055 -0.9018 -1.8482
10777TIP3   OH253821   3.219   3.388   2.377 -0.0876  0.1554 -0.4895
10777TIP3    H153822   3.142   3.436   2.347  0.5833  1.3237 -0.4045
10777TIP3    H253823   3.184   3.323   2.438 -1.1384 -0.2563 -1.4708
10778TIP3   OH253824   4.862   0.700   1.808  0.1448  0.1887 -0.0583
10778TIP3    H153825   4.851   0.612   1.772  0.9464  0.5700 -1.3039
10778TIP3    H253826   4.950   0.700   1.846 -0.7689 -0.2713  2.1779
10779TIP3   OH253827   5.983   2.056  15.325  0.1676  0.2454 -0.4438
10779TIP3    H153828   6.024   2.035  15.242  0.7862 -1.1623  0.1935
10779TIP3    H253829   5.960   2.149  15.318  1.0223  0.3670 -1.8255
10780TIP3   OH253830   3.509   4.491  14.595 -0.4814 -0.2396  0.6011
10780TIP3    H153831   3.459   4.544  14.533  1.0027 -0.8980 -1.2554
10780TIP3    H253832   3.452   4.484  14.672 -1.2119  3.0318  0.5149
10781TIP3   OH253833   0.310   2.167   1.461 -0.4708 -0.1700  0.4636
10781TIP3    H153834   0.381   2.136   1.405 -0.2589  0.5337  0.3362
10781TIP3    H253835   0.341   2.251   1.495  0.6071 -1.8017  3.8769
10782TIP3   OH253836   1.783   4.934   4.319  0.3058  0.2446 -0.5200
10782TIP3    H153837   1.702   4.931   4.268 -0.3269  1.7349  0.3473
10782TIP3    H253838   1.809   4.842   4.328  0.3276 -0.0960 -3.2875
10783TIP3   OH253839   6.798   5.265   3.609 -0.3378  0.1036  0.2754
10783TIP3    H153840   6.854   5.342   3.597  1.3228 -0.8979  1.1698
10783TIP3    H253841   6.820   5.208   3.535 -1.3267  0.3442 -0.2111
10784TIP3   OH253842   5.979   0.032   1.072 -0.0150  0.2760  0.0577
10784TIP3    H153843   5.964  -0.007   1.158 -1.1537 -1.7631 -1.0037
10784TIP3    H253844   5.938   0.118   1.077 -1.8221 -0.5854  0.9602
10785TIP3   OH253845   3.778   6.589   5.950 -0.6300 -0.1747 -0.4180
10785TIP3    H153846   3.872   6.574   5.947 -0.5633 -0.9579  2.4225
10785TIP3    H253847   3.769   6.672   5.997 -1.3506 -0.7549  0.4979
10786TIP3   OH253848   1.889   0.829   3.480 -0.4618  0.4171  0.3300
10786TIP3    H153849   1.862   0.852   3.569  0.0783 -1.7127  1.1003
10786TIP3    H253850   1.844   0.747   3.462  0.6619  0.0144 -0.7509
10787TIP3   OH253851   4.691   3.459   0.695  0.1162 -0.2709  0.8291
10787TIP3    H153852   4.687   3.489   0.604 -0.5545 -1.1602  0.5500
10787TIP3    H253853   4.765   3.398   0.697 -0.4606 -0.9915  0.6372
10788TIP3   OH253854   5.890   4.488   3.227 -0.3549 -0.1442 -0.0484
10788TIP3    H153855   5.862   4.411   3.178 -1.0928  0.4856 -0.6494
10788TIP3    H253856   5.832   4.491   3.303 -0.6454  0.0790 -0.2764
10789TIP3   OH253857   2.975   5.596  13.125  0.1922 -0.4684 -0.0521
10789TIP3    H153858   2.992   5.533  13.055 -1.0564  0.4441 -1.2121
10789TIP3    H253859   2.880   5.604  13.128  0.3111  1.8730 -0.4323
10790TIP3   OH253860   4.088   2.962  12.193  0.4674  0.4539  0.3010
10790TIP3    H153861   4.013   2.973  12.134  0.7440 -0.3115 -0.1940
10790TIP3    H253862   4.083   2.871  12.222  1.1115  0.4516  0.4146
10791TIP3   OH253863   2.348   5.009   3.252  0.6347 -0.1583 -0.5485
10791TIP3    H153864   2.314   4.942   3.192  0.1266 -0.8845  0.5259
10791TIP3    H253865   2.270   5.057   3.281  0.9483  0.6053 -0.9587
10792TIP3   OH253866   1.575   4.500  12.216 -0.1105 -0.0591  0.4011
10792TIP3    H153867   1.585   4.586  12.257  0.3917  1.2339 -2.2469
10792TIP3    H253868   1.632   4.503  12.139  1.2516 -3.4133  1.0888
10793TIP3   OH253869   2.562   0.268  15.727 -0.3206  0.1013  0.8679
10793TIP3    H153870   2.483   0.287  15.778 -0.5370  1.6140  0.0186
10793TIP3    H253871   2.556   0.325  15.651  1.9707  0.8085  1.1481
10794TIP3   OH253872   3.573   1.594   2.024 -0.2265  0.0534 -0.1119
10794TIP3    H153873   3.641   1.531   2.045 -0.7046 -0.4787 -0.1458
10794TIP3    H253874   3.615   1.679   2.035  0.3190 -0.2629  0.2796
10795TIP3   OH253875   0.762   1.715   1.225  0.1815  0.0336  0.7378
10795TIP3    H153876   0.833   1.734   1.164  0.4027 -1.6177  0.4533
10795TIP3    H253877   0.739   1.801   1.261  0.3389  1.0042 -1.3148
10796TIP3   OH253878   5.023   0.948  15.136 -0.5101  0.4774 -0.6864
10796TIP3    H153879   4.939   0.908  15.115  0.4969 -2.3127  0.2346
10796TIP3    H253880   5.018   0.966  15.230 -0.2470  0.8036 -0.7337
10797TIP3   OH253881   0.472   1.431   2.689  0.3367  0.6290  0.0674
10797TIP3    H153882   0.380   1.405   2.697  0.3827  0.1783 -0.7258
10797TIP3    H253883   0.504   1.381   2.614  1.5022  0.0108  0.9470
10798TIP3   OH253884   6.518   1.352  11.990 -0.2064  0.1335  0.3604
10798TIP3    H153885   6.440   1.298  12.002  0.2690 -0.6505  0.0800
10798TIP3    H253886   6.591   1.291  12.005  0.3665  1.1047  1.7702
10799TIP3   OH253887   2.653   0.776  10.854 -0.0585 -0.3712  0.1867
10799TIP3    H153888   2.644   0.704  10.917  1.4463  1.2596  2.4115
10799TIP3    H253889   2.746   0.778  10.832 -0.3176  0.0433 -0.9428
10800TIP3   OH253890   5.257   5.726   5.133 -0.1521  0.0695  0.6892
10800TIP3    H153891   5.181   5.784   5.127 -0.1391 -0.0333 -1.1943
10800TIP3    H253892   5.220   5.637   5.130  0.0114  0.0190 -0.3004
10801TIP3   OH253893   3.476   5.113  12.137 -0.2315  0.0757  0.2924
10801TIP3    H153894   3.568   5.090  12.147  0.1732  0.9926 -1.0740
10801TIP3    H253895   3.464   5.189  12.195 -0.5172 -0.9236  1.5816
10802TIP3   OH253896   5.002   3.196   4.568 -0.7020 -0.1801 -0.3527
10802TIP3    H153897   5.033   3.180   4.657 -0.5618 -1.5091 -0.6172
10802TIP3    H253898   5.050   3.133   4.515  0.4401  1.6646 -1.6362
10803TIP3   OH253899   1.769   2.075   4.690 -0.2264  0.2544 -0.8094
10803TIP3    H153900   1.741   2.015   4.759  0.9113  0.1139 -0.4462
10803TIP3    H253901   1.773   2.161   4.732 -4.8733  1.3510 -2.0344
10804TIP3   OH253902   5.238   3.031  15.180  0.4529 -0.3822 -0.8763
10804TIP3    H153903   5.293   3.071  15.247 -1.4828  0.4209  0.3348
10804TIP3    H253904   5.294   2.966  15.138  2.9116  1.7294 -1.0939
10805TIP3   OH253905   5.846   2.521  15.734  0.0002  0.0585  0.0302
10805TIP3    H153906   5.830   2.497  15.825 -1.0286 -0.4740 -0.2755
10805TIP3    H253907   5.903   2.598  15.739  0.9796 -0.6903  1.0918
10806TIP3   OH253908   0.193   3.312   5.806 -0.6375  0.4362  0.0067
10806TIP3    H153909   0.218   3.404   5.811 -1.4640  0.6438  0.3857
10806TIP3    H253910   0.156   3.292   5.892  1.6329 -0.8908  0.7600
10807TIP3   OH253911   0.900   3.434   3.501 -0.4843 -0.0307 -0.0061
10807TIP3    H153912   0.868   3.509   3.551  1.3421  1.4459 -0.9337
10807TIP3    H253913   0.958   3.388   3.562 -0.1172  0.4129 -0.0144
10808TIP3   OH253914   4.307   1.057  12.471  0.1948  0.2457  0.1554
10808TIP3    H153915   4.312   1.103  12.554  0.3512 -0.7596  0.7165
10808TIP3    H253916   4.351   1.115  12.408 -1.7488  2.0070  0.2927
10809TIP3   OH253917   3.210   1.767  11.388 -0.0061  0.6513  0.1425
10809TIP3    H153918   3.131   1.806  11.350 -0.9209  0.1334  1.4233
10809TIP3    H253919   3.250   1.718  11.316 -0.8626  0.9038 -0.5296
10810TIP3   OH253920   4.690   5.228   2.009  0.0981 -0.0800 -0.4035
10810TIP3    H153921   4.666   5.187   1.926 -1.5592  0.5122 -0.2508
10810TIP3    H253922   4.747   5.301   1.984  1.7472 -1.4561 -0.7916
10811TIP3   OH253923   5.335   4.498   1.743 -0.1135  0.1466  0.1825
10811TIP3    H153924   5.321   4.420   1.689 -1.1277  1.2420 -1.1942
10811TIP3    H253925   5.276   4.485   1.818  0.4003 -0.8156  0.4426
10812TIP3   OH253926   1.995   5.926  16.816 -0.2263  0.0091  0.1860
10812TIP3    H153927   1.994   5.982  16.739 -0.6912 -0.3812 -0.0942
10812TIP3    H253928   1.944   5.973  16.882 -1.7518 -0.6688 -0.4692
10813TIP3   OH253929   4.528   0.700  15.165  0.7266  0.3973  0.3422
10813TIP3    H153930   4.550   0.793  15.160  2.2966 -0.0305 -2.7516
10813TIP3    H253931   4.456   0.688  15.104  0.8587 -0.4899  0.3358
10814TIP3   OH253932   0.977   5.551   2.962  0.4608 -0.5578  0.0379
10814TIP3    H153933   1.068   5.578   2.964  0.0527  0.8227  1.4032
10814TIP3    H253934   0.980   5.456   2.947  2.1512 -0.7296  1.2206
10815TIP3   OH253935   3.197   0.604  11.440 -0.0806  0.1774  0.0526
10815TIP3    H153936   3.144   0.533  11.405  0.2737  0.2459 -0.6513
10815TIP3    H253937   3.153   0.630  11.521 -0.2152 -0.8289  0.3152
10816TIP3   OH253938   0.883   2.425  16.152  0.3682 -0.2518  0.6154
10816TIP3    H153939   0.837   2.437  16.068 -0.1454 -0.6827  0.8299
10816TIP3    H253940   0.896   2.514  16.184  0.7405 -0.0713 -0.0126
10817TIP3   OH253941   5.053   0.284  12.441 -0.4722 -0.0369 -0.4756
10817TIP3    H153942   5.099   0.268  12.358  2.6342  0.0755  1.0507
10817TIP3    H253943   5.025   0.197  12.470 -0.9789 -0.1609 -1.3044
10818TIP3   OH253944   5.004   6.252   6.273  0.3379 -0.4114 -0.4856
10818TIP3    H153945   4.994   6.347   6.261  0.3903 -0.3650 -0.1842
10818TIP3    H253946   4.941   6.214   6.212 -0.6855 -0.1481  0.3590
10819TIP3   OH253947   0.932   0.458  16.780  0.9666 -0.2010  0.1325
10819TIP3    H153948   0.970   0.391  16.723  0.3348 -1.2694  0.9529
10819TIP3    H253949   0.959   0.433  16.868  1.2600  0.9951  0.4061
10820TIP3   OH253950   4.955   5.804  13.806  0.3023 -0.6626 -0.1311
10820TIP3    H153951   4.904   5.827  13.728  0.0217  2.0001  0.7171
10820TIP3    H253952   5.024   5.746  13.773 -1.1409 -1.4839 -1.9201
10821TIP3   OH253953   0.805   4.455  12.551 -0.5527 -0.2330  0.0902
10821TIP3    H153954   0.882   4.400  12.538 -2.7962 -3.6018 -0.2759
10821TIP3    H253955   0.787   4.493  12.465  0.9197  0.9874  0.2962
10822TIP3   OH253956   1.482   0.785  16.265  0.0035 -0.0588  0.8743
10822TIP3    H153957   1.432   0.803  16.185  0.9273  1.0278  0.5142
10822TIP3    H253958   1.444   0.845  16.330  0.4783  0.3948  0.7396
10823TIP3   OH253959   6.444   5.301   6.142  0.0040  0.3453 -0.3506
10823TIP3    H153960   6.539   5.293   6.152  0.0587  2.0435  0.8515
10823TIP3    H253961   6.420   5.375   6.197 -2.0668 -0.1692 -0.4838
10824TIP3   OH253962   6.589   3.438  15.881  0.4728  0.1495 -0.2350
10824TIP3    H153963   6.659   3.377  15.905 -0.6323 -1.0269  0.1034
10824TIP3    H253964   6.525   3.430  15.952 -0.6894  0.1043 -1.2585
10825TIP3   OH253965   5.352   4.091   0.588 -0.6463  0.1441 -0.2435
10825TIP3    H153966   5.410   4.155   0.547  0.6620  0.7350  2.3496
10825TIP3    H253967   5.310   4.138   0.660 -2.4491 -0.9845 -0.4841
10826TIP3   OH253968   3.360   5.372  13.768  0.7211  0.3299  0.1080
10826TIP3    H153969   3.319   5.443  13.816 -1.4023 -0.4251 -0.4995
10826TIP3    H253970   3.302   5.297  13.780  2.4269 -1.0714 -0.0204
10827TIP3   OH253971   6.322   6.327  12.592 -0.6155  0.0112 -0.2620
10827TIP3    H153972   6.330   6.420  12.611 -1.3517 -0.2334  1.4874
10827TIP3    H253973   6.270   6.323  12.512 -1.6066  1.0980  0.2969
10828TIP3   OH253974   1.252   1.920  16.935 -0.3535  0.2501  0.1183
10828TIP3    H153975   1.237   1.902  16.842  0.6962  3.7035 -0.8460
10828TIP3    H253976   1.338   1.882  16.953  0.1857  0.9756 -0.8192
10829TIP3   OH253977   2.901   4.793   0.105 -0.6547  0.1356 -0.7140
10829TIP3    H153978   2.939   4.711   0.138 -1.6086 -0.6866 -1.5903
10829TIP3    H253979   2.976   4.840   0.068 -0.0790 -0.3146 -0.1427
10830TIP3   OH253980   2.713   0.826   1.519 -0.0602 -0.1999  0.4674
10830TIP3    H153981   2.649   0.893   1.493 -1.2257 -0.4825  2.4067
10830TIP3    H253982   2.660   0.748   1.538  0.8996 -0.6207  1.5787
10831TIP3   OH253983   6.332   1.121   1.001  0.3478 -0.2014 -0.0946
10831TIP3    H153984   6.286   1.069   0.935 -0.4417 -0.4787  0.6563
10831TIP3    H253985   6.401   1.063   1.033  1.2401  0.2108 -1.2142
10832TIP3   OH253986   2.692   6.218   4.076 -0.1252 -0.0621 -0.0292
10832TIP3    H153987   2.690   6.310   4.101 -0.4324  0.0370 -0.3995
10832TIP3    H253988   2.608   6.204   4.032  0.8635  0.1080 -2.1096
10833TIP3   OH253989   6.360   0.731  13.748 -0.0352  0.4073  0.5899
10833TIP3    H153990   6.307   0.665  13.703  1.6460  0.1489 -1.1622
10833TIP3    H253991   6.409   0.683  13.814 -0.4118  0.2921  0.7890
10834TIP3   OH253992   3.435   1.553   0.062 -0.2991 -0.5467  0.2117
10834TIP3    H153993   3.421   1.647   0.047  0.0628 -0.5458 -0.1431
10834TIP3    H253994   3.495   1.549   0.136 -0.1268 -0.4957  0.0735
10835TIP3   OH253995   1.951   6.782  16.869 -0.0950 -0.5082  0.1571
10835TIP3    H153996   2.022   6.809  16.927 -0.1439 -1.1739  0.5432
10835TIP3    H253997   1.986   6.792  16.781 -0.1674  0.9203  0.2702
10836TIP3   OH253998   6.690   1.237   2.036 -0.3826 -0.7568  0.6253
10836TIP3    H153999   6.674   1.290   1.958  0.0257 -0.3242  0.8308
10836TIP3    H254000   6.757   1.175   2.010 -0.2250 -0.5933  0.6365
10837TIP3   OH254001   5.921   4.454   4.983 -0.1046  0.2807  0.0166
10837TIP3    H154002   5.844   4.475   4.930 -1.2963 -1.7847  0.8068
10837TIP3    H254003   5.986   4.422   4.920 -0.2384  1.0976 -0.5496
10838TIP3   OH254004   2.100   5.420  11.471  0.8172 -0.3505  0.1314
10838TIP3    H154005   2.031   5.397  11.408 -0.1860  2.3879  0.1266
10838TIP3    H254006   2.059   5.408  11.557 -0.7995  3.8507  0.1512
10839TIP3   OH254007   6.143   2.800   1.913 -0.0992 -0.2954 -0.1945
10839TIP3    H154008   6.156   2.705   1.910  1.5249 -0.1299  0.1639
10839TIP3    H254009   6.187   2.827   1.994  1.2110  0.9731 -1.2614
10840TIP3   OH254010   1.516   6.050  16.835 -0.0104 -0.4698 -0.1558
10840TIP3    H154011   1.598   6.036  16.883  0.3113  2.8712  0.5330
10840TIP3    H254012   1.542   6.054  16.743  0.4131 -0.5697 -0.0411
10841TIP3   OH254013   5.137   0.304  12.187  0.1297 -0.0463 -0.0535
10841TIP3    H154014   5.212   0.266  12.143  0.1822  0.0458 -0.0429
10841TIP3    H254015   5.121   0.387  12.141  0.0140 -0.0815 -0.0774
10842TIP3   OH254016   3.132   6.835  12.094  0.2048  0.6002 -0.1949
10842TIP3    H154017   3.180   6.814  12.174 -0.0338 -1.2499 -0.4929
10842TIP3    H254018   3.040   6.824  12.118  0.1356 -0.1130 -0.7278
10843TIP3   OH254019   6.397   6.286   5.690  0.3284  0.3765 -0.4148
10843TIP3    H154020   6.351   6.311   5.771  0.1769 -0.0644 -0.3612
10843TIP3    H254021   6.449   6.363   5.668  0.9759  0.2361  0.5342
10844TIP3   OH254022   2.322   2.356  16.635 -0.2500  0.2124 -0.5527
10844TIP3    H154023   2.330   2.295  16.562  0.1088  1.3711 -1.5223
10844TIP3    H254024   2.277   2.307  16.703 -0.6037 -0.9027 -1.5613
10845TIP3   OH254025   6.682   0.885   0.297 -0.1581 -0.1590 -0.1193
10845TIP3    H154026   6.711   0.875   0.388  1.2581 -0.3690 -0.5818
10845TIP3    H254027   6.588   0.903   0.304 -0.2180 -0.9412  1.3433
10846TIP3   OH254028   2.884   4.670   6.234  0.2085  0.0141  0.1958
10846TIP3    H154029   2.792   4.695   6.246  0.2523  0.2722  0.0168
10846TIP3    H254030   2.930   4.754   6.224  0.9257  0.1263  3.2427
10847TIP3   OH254031   5.720   1.549   1.804 -0.1339  0.1792 -0.8628
10847TIP3    H154032   5.791   1.485   1.807  0.0783  0.4483  0.1590
10847TIP3    H254033   5.678   1.543   1.889 -0.2839  1.2018 -0.8532
10848TIP3   OH254034   5.602   6.128   5.716  0.1979 -0.2619 -0.1057
10848TIP3    H154035   5.650   6.202   5.754  1.0079 -0.3168 -0.9827
10848TIP3    H254036   5.618   6.055   5.776 -0.5180  0.2251  0.7080
10849TIP3   OH254037   2.113   1.724   4.293  0.6318 -0.0026 -0.3559
10849TIP3    H154038   2.046   1.778   4.251  0.3097 -2.1165 -2.8269
10849TIP3    H254039   2.183   1.718   4.228  1.7867 -0.4600  0.8940
10850TIP3   OH254040   6.009   2.118  13.824 -0.1601  0.3776 -0.4308
10850TIP3    H154041   6.104   2.121  13.817 -0.1560  3.4220 -0.3129
10850TIP3    H254042   5.980   2.089  13.737  0.8352 -0.7905 -0.3997
10851TIP3   OH254043   4.010   1.597  12.528  0.0202 -0.3263  0.2824
10851TIP3    H154044   4.002   1.636  12.441 -0.1107  1.6828  1.1411
10851TIP3    H254045   4.103   1.574  12.535  0.1462  0.0243 -0.1759
10852TIP3   OH254046   0.859   3.061  16.966 -0.0703 -0.0885 -0.8552
10852TIP3    H154047   0.904   3.044  17.049  0.0011  2.6746 -0.2332
10852TIP3    H254048   0.929   3.057  16.900 -0.1296 -2.3051 -0.8794
10853TIP3   OH254049   0.412   5.913   1.986 -0.1694  0.0756 -0.3409
10853TIP3    H154050   0.473   5.841   2.004 -0.2323  0.3099  0.8857
10853TIP3    H254051   0.332   5.870   1.957 -0.8143 -0.4900  2.1009
10854TIP3   OH254052   4.918   1.165   5.260 -0.1896  0.7683 -0.1268
10854TIP3    H154053   4.905   1.240   5.318 -2.1405  0.4859 -0.1145
10854TIP3    H254054   4.936   1.203   5.174  1.8521  1.1946  0.4475
10855TIP3   OH254055   6.115   2.236   1.161  0.3346  0.2637  0.5570
10855TIP3    H154056   6.126   2.323   1.122 -1.8494  0.4021  0.1166
10855TIP3    H254057   6.040   2.247   1.221  1.7974 -0.6543  2.6495
10856TIP3   OH254058   6.455   2.595  10.844 -0.2439  0.3890 -0.7882
10856TIP3    H154059   6.482   2.642  10.765  0.9525 -1.7167 -1.7225
10856TIP3    H254060   6.367   2.627  10.861  0.9661  4.0387 -0.4145
10857TIP3   OH254061   2.067   5.665   2.254 -0.5158 -0.3170  0.0608
10857TIP3    H154062   2.041   5.748   2.215 -0.1133  0.0366  0.5356
10857TIP3    H254063   2.006   5.652   2.327  0.4007  0.3536  0.9743
10858TIP3   OH254064   3.834   4.526   2.609  0.2079  1.0469  0.1596
10858TIP3    H154065   3.889   4.579   2.666  2.5358 -0.7229 -0.3127
10858TIP3    H254066   3.831   4.575   2.526  0.9886  1.2359  0.2374
10859TIP3   OH254067   2.476   3.957  13.206  0.0944 -0.2274  0.5067
10859TIP3    H154068   2.558   3.993  13.239  0.2687 -0.2588  0.1145
10859TIP3    H254069   2.484   3.961  13.111  0.1278 -1.3202  0.4512
10860TIP3   OH254070   2.472   2.155  15.119 -0.4051  0.1054 -0.3631
10860TIP3    H154071   2.379   2.178  15.120 -0.6837 -0.9269  0.8486
10860TIP3    H254072   2.497   2.159  15.027 -1.1745  2.1895 -0.5253
10861TIP3   OH254073   4.410   5.786  17.017 -0.0315 -0.1449  0.0751
10861TIP3    H154074   4.429   5.763  16.925 -1.3638 -0.4739 -0.1418
10861TIP3    H254075   4.387   5.702  17.057 -1.1226  0.2380  0.2688
10862TIP3   OH254076   2.461   5.631  13.885  0.3791  0.4246  0.1753
10862TIP3    H154077   2.554   5.608  13.891  0.0846 -1.3228 -1.2548
10862TIP3    H254078   2.459   5.711  13.833  1.0665  0.2936 -0.0599
10863TIP3   OH254079   2.556   2.178   4.598 -0.1221  0.3647  0.1535
10863TIP3    H154080   2.535   2.091   4.632 -0.2127 -0.0343 -0.8916
10863TIP3    H254081   2.568   2.232   4.677  2.3712 -1.1383  0.9260
10864TIP3   OH254082   4.196   1.890  12.777 -0.3567 -0.1071  0.4505
10864TIP3    H154083   4.208   1.881  12.871 -1.6036  0.8274  0.7319
10864TIP3    H254084   4.284   1.904  12.743 -0.0756  1.9912  1.8038
10865TIP3   OH254085   2.748   0.826   4.961 -0.0180  0.1657  0.1639
10865TIP3    H154086   2.719   0.910   4.996 -0.5515  0.1097 -0.1285
10865TIP3    H254087   2.673   0.794   4.910  0.5136 -0.0546 -0.4963
10866TIP3   OH254088   6.060   0.198  15.246 -0.3414 -0.3005 -0.1866
10866TIP3    H154089   6.121   0.244  15.187 -1.0865  0.6133 -0.2751
10866TIP3    H254090   6.111   0.125  15.281  0.7404  0.3128 -0.4220
10867TIP3   OH254091   5.364   6.719   5.780 -0.0600  0.2755  0.0383
10867TIP3    H154092   5.389   6.627   5.770 -2.6113 -0.6632  1.2369
10867TIP3    H254093   5.378   6.738   5.873  0.0775  0.9798 -0.1221
10868TIP3   OH254094   4.751   5.566  12.556  0.3600  0.5250 -0.2497
10868TIP3    H154095   4.656   5.574  12.551  0.0166 -1.4444  1.3749
10868TIP3    H254096   4.783   5.587  12.469 -1.6002  0.9338 -0.8978
10869TIP3   OH254097   1.719   2.005  17.062  0.5968 -0.4940 -0.0983
10869TIP3    H154098   1.730   2.050  17.146  0.9829 -1.6403  0.4933
10869TIP3    H254099   1.752   2.067  16.997  1.2253  0.0357  0.7003
10870TIP3   OH254100   2.595   4.850  16.592 -0.5270  0.0935 -0.0774
10870TIP3    H154101   2.542   4.927  16.614  0.8368  1.4142 -1.2284
10870TIP3    H254102   2.667   4.852  16.655 -1.2969 -1.1954  0.9107
10871TIP3   OH254103   5.404   5.312  13.581  0.4364 -0.4599  0.7407
10871TIP3    H154104   5.375   5.301  13.671  0.8556  0.0036  0.9316
10871TIP3    H254105   5.346   5.378  13.544  0.2416 -0.6757  0.6554
10872TIP3   OH254106   5.057   5.254  11.397 -0.1627  0.2893 -0.2979
10872TIP3    H154107   5.034   5.203  11.319 -0.1371 -0.7138  0.3430
10872TIP3    H254108   5.005   5.217  11.467  0.5776  0.5100  0.3824
10873TIP3   OH254109   6.451   2.504   4.291  0.1804  0.0362 -0.3601
10873TIP3    H154110   6.400   2.468   4.218  0.2781  1.7527 -1.3341
10873TIP3    H254111   6.392   2.503   4.366  0.3538 -2.5853 -0.1823
10874TIP3   OH254112   0.422   4.881   6.562 -0.0926 -0.5808 -0.3884
10874TIP3    H154113   0.506   4.837   6.580  0.1186 -0.3283 -0.7538
10874TIP3    H254114   0.390   4.907   6.649  0.3732 -0.3688 -0.2785
10875TIP3   OH254115   2.046   2.449  15.972 -0.0322 -0.7827  0.2272
10875TIP3    H154116   2.126   2.436  16.022  0.2379  2.3527  0.7654
10875TIP3    H254117   1.976   2.444  16.038 -0.1513 -1.5585  0.0601
10876TIP3   OH254118   6.367   6.078  14.240  0.2164  0.1789 -0.1729
10876TIP3    H154119   6.275   6.060  14.220 -0.1327  3.4733 -2.4614
10876TIP3    H254120   6.410   6.084  14.154  1.5672  2.7550  0.5646
10877TIP3   OH254121   4.370   5.538   1.721 -0.4479 -0.3500 -0.1899
10877TIP3    H154122   4.372   5.602   1.650  1.8487  0.2853  0.3550
10877TIP3    H254123   4.421   5.464   1.688  1.4084  0.3100  1.0222
10878TIP3   OH254124   0.526   5.660  13.743  0.9189 -0.3647 -0.1347
10878TIP3    H154125   0.612   5.653  13.786  2.2328 -0.8460 -2.6622
10878TIP3    H254126   0.546   5.690  13.655 -1.5599 -0.4098 -0.7695
10879TIP3   OH254127   0.562   3.106   1.981 -0.0401  0.3841 -0.1326
10879TIP3    H154128   0.588   3.158   1.906  0.3558 -0.1607 -0.3775
10879TIP3    H254129   0.467   3.118   1.987  0.1560  1.8643  0.3780
10880TIP3   OH254130   1.988   0.713  14.594  0.0763  0.1083 -0.1226
10880TIP3    H154131   1.956   0.701  14.683  1.2704 -0.5885  0.2394
10880TIP3    H254132   2.065   0.656  14.589  0.5593  0.8383 -1.3102
10881TIP3   OH254133   1.669   4.329  14.789  0.0338  0.2165  0.1296
10881TIP3    H154134   1.623   4.394  14.843  0.0078 -0.2693  0.6996
10881TIP3    H254135   1.672   4.251  14.843  0.1717 -0.2297 -0.5107
10882TIP3   OH254136   3.556   1.806   1.658 -0.0359 -0.5981 -0.1330
10882TIP3    H154137   3.547   1.898   1.680  1.6004 -0.4045 -0.1997
10882TIP3    H254138   3.487   1.762   1.708 -0.9432  0.6564 -0.2352
10883TIP3   OH254139   5.744   5.891  14.431 -0.3835  0.3833 -0.1767
10883TIP3    H154140   5.669   5.859  14.381 -0.2539  0.8673 -0.6879
10883TIP3    H254141   5.717   5.881  14.522 -1.9996  2.6398 -0.3206
10884TIP3   OH254142   0.215   0.802  13.113  0.5404 -0.5894  0.0739
10884TIP3    H154143   0.154   0.870  13.083  2.2922  0.7705 -0.5957
10884TIP3    H254144   0.268   0.845  13.180  2.2444 -0.9720 -0.9429
10885TIP3   OH254145   5.681   2.037  13.272  0.2667 -0.0837 -0.2006
10885TIP3    H154146   5.604   2.090  13.252 -0.1922 -1.1057 -1.2491
10885TIP3    H254147   5.755   2.095  13.257 -0.2446  0.4646 -0.6470
10886TIP3   OH254148   5.226   6.155  14.313 -0.2834  0.1647 -0.7368
10886TIP3    H154149   5.215   6.065  14.343 -1.3190  0.3048 -0.6661
10886TIP3    H254150   5.284   6.148  14.237 -0.0099 -0.5118 -0.4701
10887TIP3   OH254151   1.765   6.024   0.555  0.3811  0.5953  0.3613
10887TIP3    H154152   1.842   6.017   0.500 -0.4709 -2.9694 -0.6552
10887TIP3    H254153   1.799   6.033   0.644  1.8379  2.4301 -0.3325
10888TIP3   OH254154   5.658   1.743   1.574  0.1935 -0.3899  0.4920
10888TIP3    H154155   5.713   1.678   1.531  0.5714 -0.0712  0.4880
10888TIP3    H254156   5.650   1.712   1.664  0.5498 -0.3252  0.5441
10889TIP3   OH254157   4.135   6.587  16.069  0.3119 -0.1175 -0.5542
10889TIP3    H154158   4.164   6.512  16.016  0.0227 -0.9044  0.3602
10889TIP3    H254159   4.083   6.547  16.139  1.0502  0.8497  0.5777
10890TIP3   OH254160   4.239   2.967   0.144  0.5173 -0.1026 -0.0508
10890TIP3    H154161   4.245   3.004   0.232  0.1913 -0.8536  0.3003
10890TIP3    H254162   4.254   3.041   0.086 -0.3603  0.6297  0.6256
10891TIP3   OH254163   0.934   2.630   0.086  0.3263  0.2483  0.0160
10891TIP3    H154164   0.896   2.692   0.149  1.0545 -0.5802  1.3085
10891TIP3    H254165   0.889   2.548   0.104  1.3711 -0.2789  0.2673
10892TIP3   OH254166   4.067   4.653   4.479  0.4764  0.3419  0.3714
10892TIP3    H154167   4.066   4.577   4.420 -1.2451  1.6011 -1.3517
10892TIP3    H254168   3.975   4.664   4.505  0.8068  1.4578  1.1229
10893TIP3   OH254169   5.899   1.253  14.894 -0.4723  0.3997 -0.2768
10893TIP3    H154170   5.972   1.209  14.849  0.1885 -0.5668  1.6071
10893TIP3    H254171   5.821   1.224  14.847  0.0438 -1.9232  0.1534
10894TIP3   OH254172   2.230   4.400   0.603 -0.4325  0.0044  0.1009
10894TIP3    H154173   2.318   4.382   0.636  0.3437 -0.0880 -1.9134
10894TIP3    H254174   2.204   4.320   0.558 -0.8576  0.6121 -0.7537
10895TIP3   OH254175   5.423   5.748  14.518  0.3173  0.1815 -0.4671
10895TIP3    H154176   5.335   5.732  14.552  0.0647 -0.1568 -1.2734
10895TIP3    H254177   5.439   5.841  14.535 -0.6754  0.5394 -1.4001
10896TIP3   OH254178   0.547   4.095  11.448  0.3252  0.1089 -0.0621
10896TIP3    H154179   0.631   4.105  11.493 -0.1365  3.0936  0.3363
10896TIP3    H254180   0.531   4.180  11.408 -0.8982 -1.4406 -3.1721
10897TIP3   OH254181   5.193   1.819  11.072 -0.6208  0.1446  0.0878
10897TIP3    H154182   5.154   1.734  11.089 -1.0890  0.3855  0.2229
10897TIP3    H254183   5.141   1.881  11.123  0.2506  0.4075  0.6797
10898TIP3   OH254184   4.901   6.004  11.621 -0.2904 -0.5018  0.0158
10898TIP3    H154185   4.886   6.086  11.668  0.2884 -0.2374 -0.2602
10898TIP3    H254186   4.892   5.936  11.688 -1.1117 -0.2463  0.1813
10899TIP3   OH254187   4.247   5.981   3.719  0.3844 -0.2533 -0.0784
10899TIP3    H154188   4.223   6.060   3.769 -3.1764 -1.6910  0.8097
10899TIP3    H254189   4.217   5.999   3.630  2.4371  0.4956 -0.6737
10900TIP3   OH254190   3.248   6.710  15.632  0.0229 -0.2662  0.2773
10900TIP3    H154191   3.187   6.731  15.562  2.4322  3.8693 -0.9334
10900TIP3    H254192   3.299   6.637  15.597  0.6025  1.1472 -2.0608
10901TIP3   OH254193   2.211   1.845  15.261 -0.3919 -0.3052  0.4951
10901TIP3    H154194   2.207   1.819  15.169  0.5650  1.6433 -0.1680
10901TIP3    H254195   2.121   1.864  15.285 -0.5427  0.1334 -0.3744
10902TIP3   OH254196   4.135   0.354   4.826  0.2185 -0.4341 -0.2350
10902TIP3    H154197   4.208   0.393   4.874 -1.9490  2.4910  0.9792
10902TIP3    H254198   4.066   0.342   4.891 -1.5318  0.1277 -1.8755
10903TIP3   OH254199   1.474   0.864  12.336 -0.5669  0.6216  0.2431
10903TIP3    H154200   1.561   0.851  12.299 -0.5388  1.9783 -0.1972
10903TIP3    H254201   1.451   0.778  12.373  0.5397 -0.0106 -0.4844
10904TIP3   OH254202   4.446   6.841  11.966  0.1682  0.7331  0.0259
10904TIP3    H154203   4.359   6.881  11.955  0.3028  0.3547 -3.9709
10904TIP3    H254204   4.493   6.900  12.025 -2.3139  1.6730  1.2236
10905TIP3   OH254205   3.437   5.197   3.099 -0.3081  0.1339 -0.1012
10905TIP3    H154206   3.358   5.145   3.112 -1.5854  1.6482 -1.3546
10905TIP3    H254207   3.419   5.280   3.143 -0.5080  1.4320 -2.4594
10906TIP3   OH254208   2.721   2.910  15.941 -0.0306 -0.5142 -0.3650
10906TIP3    H154209   2.770   2.831  15.960  1.5882  0.9404  2.0141
10906TIP3    H254210   2.758   2.942  15.859  1.3866 -0.6829  0.1942
10907TIP3   OH254211   6.532   5.105  12.906  0.4797 -0.2195  0.2360
10907TIP3    H154212   6.501   5.022  12.871 -1.9628  0.0676  1.5068
10907TIP3    H254213   6.515   5.168  12.835  1.4908 -0.6194 -0.3840
10908TIP3   OH254214   4.505   6.460  15.459 -0.6651 -0.0142 -0.1778
10908TIP3    H154215   4.441   6.397  15.426 -1.3549  0.2331  0.6390
10908TIP3    H254216   4.519   6.434  15.550  2.4416 -1.7069 -1.0187
10909TIP3   OH254217   6.686   1.286  12.869  0.4279 -0.3355  0.7728
10909TIP3    H154218   6.740   1.365  12.861 -1.0567  0.6379 -0.1004
10909TIP3    H254219   6.605   1.307  12.823  0.8802 -3.2214 -1.7011
10910TIP3   OH254220   3.201   2.151  10.553 -0.0488  0.3504  0.0855
10910TIP3    H154221   3.155   2.233  10.537  0.3131  0.5693  0.1482
10910TIP3    H254222   3.217   2.151  10.648 -0.7442 -0.1660  0.2066
10911TIP3   OH254223   3.984   4.498  11.322 -0.5849 -0.4711 -0.1363
10911TIP3    H154224   3.975   4.494  11.417 -1.2366 -1.1573 -0.2197
10911TIP3    H254225   3.901   4.464  11.289 -0.3647 -0.2227 -0.9504
10912TIP3   OH254226   5.170   3.394   1.628  0.3916  0.0270 -0.1167
10912TIP3    H154227   5.161   3.317   1.572 -0.0545 -0.7045  0.9244
10912TIP3    H254228   5.101   3.453   1.599 -2.7716 -2.1232  2.3961
10913TIP3   OH254229   0.579   1.342  12.231 -0.1885  0.4297  0.1670
10913TIP3    H154230   0.527   1.294  12.166  0.3184  0.8723 -0.5754
10913TIP3    H254231   0.555   1.302  12.314  0.2522 -1.1522 -0.4254
10914TIP3   OH254232   6.369   2.838   3.098  0.5265  0.1924 -0.0930
10914TIP3    H154233   6.305   2.786   3.146  0.2629 -1.8530 -2.4190
10914TIP3    H254234   6.351   2.928   3.123 -1.3063 -0.5600  1.5427
10915TIP3   OH254235   1.321   0.280  11.732  0.2333  0.4562  0.2192
10915TIP3    H154236   1.333   0.321  11.646  2.2314  0.3846  0.4030
10915TIP3    H254237   1.273   0.345  11.783  1.4099  1.6981 -0.1655
10916TIP3   OH254238   1.657   0.930  10.397 -0.1128  0.1967  0.1656
10916TIP3    H154239   1.675   0.854  10.452  0.5462  1.4028  1.7170
10916TIP3    H254240   1.601   0.986  10.451  1.2988  1.8399  0.0337
10917TIP3   OH254241   2.551   6.138   2.093 -0.3068  0.3098  0.0080
10917TIP3    H154242   2.562   6.049   2.062  0.3540  0.7323 -1.0330
10917TIP3    H254243   2.476   6.171   2.045  1.4994  1.3936 -2.2872
10918TIP3   OH254244   1.398   2.770  15.632 -0.8902 -0.6110  0.8343
10918TIP3    H154245   1.425   2.703  15.696 -0.1190  1.1028  2.4075
10918TIP3    H254246   1.337   2.825  15.680 -2.7362 -1.0106 -0.9166
10919TIP3   OH254247   3.104   0.404   3.130 -0.0985  0.3412  0.1722
10919TIP3    H154248   3.184   0.380   3.177 -0.6013  0.0688  0.8949
10919TIP3    H254249   3.063   0.471   3.185  0.3972  1.6359 -0.9517
10920TIP3   OH254250   1.551   3.178  15.399  0.0566  0.0828 -0.3140
10920TIP3    H154251   1.494   3.217  15.465  2.8087  2.6144  0.8060
10920TIP3    H254252   1.552   3.084  15.420 -0.7804  0.5140  1.9259
10921TIP3   OH254253   0.354   3.956  12.097  0.2325 -0.3352 -0.1532
10921TIP3    H154254   0.359   3.864  12.071 -2.3395 -0.3480 -0.9824
10921TIP3    H254255   0.341   4.003  12.014  0.0845  0.5967  0.3848
10922TIP3   OH254256   6.486   5.176   3.403  0.0065 -0.0622  0.1443
10922TIP3    H154257   6.518   5.145   3.318  1.4897 -0.7856  0.9257
10922TIP3    H254258   6.415   5.116   3.426 -2.1603  1.6310 -1.6716
10923TIP3   OH254259   2.132   2.975  13.234  0.3059  0.3618  0.0627
10923TIP3    H154260   2.087   2.907  13.284 -0.0912  2.0168  2.1418
10923TIP3    H254261   2.221   2.977  13.271 -0.0062  1.6427  0.7925
10924TIP3   OH254262   5.949   1.058   2.683 -0.0456  0.5451 -0.2938
10924TIP3    H154263   5.899   0.978   2.662  0.7801 -0.5364  1.5522
10924TIP3    H254264   5.913   1.086   2.767  0.0518  1.8300 -0.6709
10925TIP3   OH254265   0.753   6.528   3.224 -0.1432  0.0204 -0.7683
10925TIP3    H154266   0.730   6.528   3.131 -0.3669  0.8934 -0.7238
10925TIP3    H254267   0.686   6.582   3.265  0.9422  1.1259 -0.3706
10926TIP3   OH254268   6.289   0.878  13.460 -0.6802  0.0211 -0.1844
10926TIP3    H154269   6.383   0.867  13.474 -0.8699 -3.0192 -0.4883
10926TIP3    H254270   6.251   0.795  13.490 -2.9148 -0.0493 -2.8004
10927TIP3   OH254271   5.393   5.244   4.888 -0.0921 -0.0593  0.4219
10927TIP3    H154272   5.394   5.332   4.851  1.3400 -0.1416  0.2051
10927TIP3    H254273   5.438   5.253   4.972 -1.3951 -0.2935  1.1800
10928TIP3   OH254274   6.259   6.756  13.946  0.0336  0.1920  0.4955
10928TIP3    H154275   6.230   6.830  13.999  1.1331 -0.6152  2.3608
10928TIP3    H254276   6.212   6.681  13.982 -1.1756 -0.0516 -1.4629
10929TIP3   OH254277   3.849   2.830  17.050 -0.0745  0.4718 -0.4315
10929TIP3    H154278   3.771   2.775  17.064 -0.4001  1.1893  0.7473
10929TIP3    H254279   3.884   2.843  17.138  0.5504  1.3566 -0.7999
10930TIP3   OH254280   5.970   3.822  13.000 -0.0774 -0.9507 -0.4166
10930TIP3    H154281   5.916   3.900  13.011 -1.6599 -2.0267 -0.2096
10930TIP3    H254282   6.027   3.821  13.077  1.6441  1.1747 -1.5210
10931TIP3   OH254283   3.050   4.163   4.860  0.4078 -0.2747  0.0293
10931TIP3    H154284   3.135   4.129   4.889  0.5703  1.3275  1.5860
10931TIP3    H254285   3.040   4.246   4.907 -1.9165 -0.3075 -0.2976
10932TIP3   OH254286   5.974   5.647   4.598  0.4422  0.2639  0.7140
10932TIP3    H154287   5.941   5.689   4.519  2.3587  0.0327 -0.2690
10932TIP3    H254288   5.905   5.659   4.662  0.1758  3.4318  0.0065
10933TIP3   OH254289   0.596   2.286  13.968 -0.0348  0.4267 -0.2242
10933TIP3    H154290   0.522   2.298  13.909 -1.3210  1.9156  1.5872
10933TIP3    H254291   0.565   2.224  14.033  1.1289 -0.6662 -0.6771
10934TIP3   OH254292   1.072   4.133   5.534  0.1060 -0.2296  0.2161
10934TIP3    H154293   1.024   4.150   5.615  0.0742 -0.7399  0.3071
10934TIP3    H254294   1.013   4.160   5.464 -0.5492 -1.4084  0.3065
10935TIP3   OH254295   5.809   1.864   0.145 -0.6869  0.4727  0.3101
10935TIP3    H154296   5.830   1.934   0.084 -2.8933  0.4513 -0.5503
10935TIP3    H254297   5.745   1.901   0.205  1.8703  0.6908  3.1575
10936TIP3   OH254298   2.355   2.772   4.077 -0.3074 -0.1640  0.3224
10936TIP3    H154299   2.397   2.858   4.073 -0.3613 -0.1712 -0.6385
10936TIP3    H254300   2.277   2.786   4.131 -0.4835  0.4590 -0.0907
10937TIP3   OH254301   2.423   5.868  10.816 -0.7467 -0.1004 -0.1018
10937TIP3    H154302   2.472   5.786  10.821 -1.0092 -0.2839 -0.4866
10937TIP3    H254303   2.477   5.931  10.863 -0.5073 -0.4784  0.1333
10938TIP3   OH254304   6.039   3.020  15.730  0.6972 -0.2114  0.6892
10938TIP3    H154305   6.111   3.078  15.757 -0.6226  0.6762  2.4818
10938TIP3    H254306   5.979   3.076  15.681 -1.3260  0.4511  3.6860
10939TIP3   OH254307   0.656   1.121  14.634 -0.1352  0.3286 -0.3706
10939TIP3    H154308   0.681   1.187  14.699  0.3021  0.4528 -0.6586
10939TIP3    H254309   0.689   1.038  14.670 -0.9903  0.2119  0.1570
10940TIP3   OH254310   4.909   1.948  13.492  0.5401 -0.2597 -0.1378
10940TIP3    H154311   4.986   1.966  13.547 -0.6546 -0.3046  1.6110
10940TIP3    H254312   4.868   2.033  13.480 -0.5441 -0.5622  1.1575
10941TIP3   OH254313   2.576   3.477   1.811  0.1535 -0.0786  1.1197
10941TIP3    H154314   2.640   3.456   1.879 -1.1447 -0.8034  2.1349
10941TIP3    H254315   2.556   3.570   1.826  0.3052 -0.0796  1.3449
10942TIP3   OH254316   3.187   4.819   5.031  0.1501 -0.4459  0.5434
10942TIP3    H154317   3.181   4.861   5.117 -2.3076 -0.9412  0.6898
10942TIP3    H254318   3.237   4.880   4.978  0.4136  0.5860  1.9232
10943TIP3   OH254319   0.407   1.039   2.714  0.1311  0.0343  0.0802
10943TIP3    H154320   0.318   1.004   2.713 -0.7362  2.1049  0.2016
10943TIP3    H254321   0.409   1.102   2.642  1.4976  0.0303  0.0912
10944TIP3   OH254322   0.653   0.506  12.361  0.4840  0.1980  0.1451
10944TIP3    H154323   0.709   0.431  12.342 -1.0285 -0.5956 -1.5050
10944TIP3    H254324   0.698   0.580  12.321  1.4900  0.0237  0.9053
10945TIP3   OH254325   3.050   4.077  13.601 -0.1198  0.2016 -0.1243
10945TIP3    H154326   3.003   3.995  13.609 -1.9194  1.2893  1.0783
10945TIP3    H254327   3.127   4.067  13.656 -0.1118 -0.7940 -0.3037
10946TIP3   OH254328   2.748   4.261   1.034  0.0949 -0.6789 -0.3443
10946TIP3    H154329   2.738   4.201   1.109 -1.3836 -2.7582 -2.0811
10946TIP3    H254330   2.749   4.204   0.958  0.6396  1.4344 -2.0045
10947TIP3   OH254331   0.042   3.608   3.975 -0.1938 -0.0370  0.2107
10947TIP3    H154332   0.045   3.527   4.026  1.2098 -1.4342 -1.9538
10947TIP3    H254333   0.129   3.646   3.986  0.2159 -0.4904 -1.2667
10948TIP3   OH254334   2.903   0.006  15.938  0.0032  0.0697  0.0495
10948TIP3    H154335   2.867   0.084  15.895  1.1892 -0.8871 -2.9613
10948TIP3    H254336   2.978   0.039  15.988 -0.1671  0.9988 -0.2803
10949TIP3   OH254337   0.519   6.761   0.416  0.2839 -0.8016 -0.3015
10949TIP3    H154338   0.589   6.826   0.410 -1.4152  1.1766  0.4357
10949TIP3    H254339   0.483   6.755   0.328 -0.1535 -0.0533 -0.1734
10950TIP3   OH254340   4.904   1.546   2.545  0.0840 -0.2638 -0.5325
10950TIP3    H154341   4.934   1.570   2.633  0.3775 -0.2636 -0.6323
10950TIP3    H254342   4.954   1.468   2.524  1.3213  0.7209 -1.4075
10951TIP3   OH254343   2.564   0.711   4.345 -0.4115  0.0980  0.1020
10951TIP3    H154344   2.543   0.785   4.402 -2.1844  1.6686 -2.3350
10951TIP3    H254345   2.479   0.676   4.319  0.3569 -1.3513 -0.5836
10952TIP3   OH254346   3.572   3.882   0.910  0.1666 -0.0986  0.0880
10952TIP3    H154347   3.651   3.927   0.940  0.1082  0.5720 -0.7252
10952TIP3    H254348   3.508   3.951   0.897  0.2122 -0.3269 -1.6294
10953TIP3   OH254349   0.451   4.486   1.202  0.3338 -0.3407 -0.2636
10953TIP3    H154350   0.436   4.547   1.274  0.9576 -1.3232  0.7492
10953TIP3    H254351   0.535   4.445   1.223  0.5346 -0.6376 -1.5692
10954TIP3   OH254352   6.517   0.230  14.864 -0.1465 -0.2579  0.3703
10954TIP3    H154353   6.586   0.195  14.920  1.2705 -0.7292 -1.5588
10954TIP3    H254354   6.555   0.308  14.824 -0.3766 -0.9711 -1.3347
10955TIP3   OH254355   0.755   6.617   0.274  0.1297  0.1500 -0.2131
10955TIP3    H154356   0.677   6.622   0.329 -1.0318  0.6720 -1.8240
10955TIP3    H254357   0.819   6.569   0.326 -1.8027 -1.7313  0.5551
10956TIP3   OH254358   5.717   3.480  15.859  0.4253 -0.4747 -0.4323
10956TIP3    H154359   5.765   3.486  15.941 -1.1621 -2.4210  0.7538
10956TIP3    H254360   5.625   3.473  15.886 -0.5674  2.5441 -2.5656
10957TIP3   OH254361   2.422   6.552  16.652  0.0638  0.0546 -0.4188
10957TIP3    H154362   2.419   6.647  16.653  0.7955  0.0930  1.5536
10957TIP3    H254363   2.513   6.530  16.674 -0.3509 -1.0841  0.2727
10958TIP3   OH254364   1.596   2.091  12.635 -0.0950 -0.3693 -0.2125
10958TIP3    H154365   1.618   2.184  12.635  0.1579 -0.4193  0.6308
10958TIP3    H254366   1.500   2.089  12.636 -0.0952 -0.1118  0.3362
10959TIP3   OH254367   1.283   6.423  12.436  0.1789 -0.3335  0.2740
10959TIP3    H154368   1.337   6.377  12.372  0.0629 -1.2832  0.8518
10959TIP3    H254369   1.320   6.399  12.521 -1.7245 -1.8255  0.7544
10960TIP3   OH254370   3.659   6.641  16.209  0.4151  0.2778 -0.1091
10960TIP3    H154371   3.710   6.677  16.136  0.7499  0.9785  0.4663
10960TIP3    H254372   3.619   6.561  16.173  0.7222  0.5174 -1.0030
10961TIP3   OH254373   1.847   4.687  16.053 -0.2632 -0.3522 -0.3973
10961TIP3    H154374   1.879   4.667  15.965 -0.2231  1.0502 -0.7283
10961TIP3    H254375   1.754   4.703  16.042 -0.5971 -1.7986  0.1150
10962TIP3   OH254376   4.525   0.978  13.652  0.0031 -0.2049  0.0993
10962TIP3    H154377   4.532   1.026  13.735 -1.5966  0.0309  0.1414
10962TIP3    H254378   4.443   1.009  13.614  0.8355 -0.1144 -1.7211
10963TIP3   OH254379   4.637   5.997   0.579 -0.8489 -0.3145  0.4652
10963TIP3    H154380   4.560   6.024   0.628 -1.8449  1.3657 -1.8444
10963TIP3    H254381   4.606   5.929   0.519 -0.3057 -0.3381  0.2030
10964TIP3   OH254382   2.453   1.357  12.258  0.6039  0.6589  0.6959
10964TIP3    H154383   2.372   1.309  12.244  0.8276  0.9442 -2.0306
10964TIP3    H254384   2.522   1.290  12.253  0.6812  0.7113  0.9947
10965TIP3   OH254385   2.177   0.045   4.788  0.1585 -0.0202  0.2176
10965TIP3    H154386   2.170   0.130   4.831 -0.7825  0.0827 -0.1107
10965TIP3    H254387   2.229   0.062   4.710  0.9632  0.0106  0.7565
10966TIP3   OH254388   3.582   6.758   1.312  0.5186  0.0006  0.5981
10966TIP3    H154389   3.545   6.823   1.372  0.6567 -0.3927  1.1154
10966TIP3    H254390   3.611   6.687   1.368 -0.6970 -1.0516 -0.0311
10967TIP3   OH254391   1.858   4.209   2.087  0.6053  0.4120 -0.0634
10967TIP3    H154392   1.847   4.141   2.154  2.1410 -0.2575 -0.4377
10967TIP3    H254393   1.883   4.287   2.136  0.5420  0.2425  0.2428
10968TIP3   OH254394   2.839   4.687  14.743 -0.2366  0.1983  0.6427
10968TIP3    H154395   2.883   4.711  14.824  0.9062  0.7582 -0.1244
10968TIP3    H254396   2.800   4.601  14.761  0.9591 -0.1971  1.4260
10969TIP3   OH254397   4.710   0.754   4.787 -0.0151  0.1570  0.1719
10969TIP3    H154398   4.623   0.732   4.752  0.3527 -1.8178  0.3796
10969TIP3    H254399   4.753   0.801   4.716 -1.0994  0.7824 -0.0920
10970TIP3   OH254400   4.330   4.363   4.667 -0.4129 -0.0977 -0.4065
10970TIP3    H154401   4.288   4.330   4.746  1.6724 -0.7458  0.4982
10970TIP3    H254402   4.365   4.286   4.623  0.9646  0.5051 -0.4195
10971TIP3   OH254403   3.476   1.849  14.842 -0.3217  0.0269  0.1539
10971TIP3    H154404   3.434   1.895  14.915 -0.0766  0.2325  0.1693
10971TIP3    H254405   3.431   1.881  14.764  0.2448  0.7507  0.1149
10972TIP3   OH254406   0.007   6.087  12.394 -0.0700 -0.2817 -0.0330
10972TIP3    H154407   0.069   6.116  12.461  0.5588  0.1050 -0.7644
10972TIP3    H254408  -0.079   6.109  12.430  0.3087  1.0037  0.1579
10973TIP3   OH254409   5.941   3.235  14.492  0.0665 -0.4339  0.7924
10973TIP3    H154410   5.903   3.152  14.462  0.4529 -0.9703  1.7354
10973TIP3    H254411   5.889   3.259  14.568  1.3561 -0.9982  1.8866
10974TIP3   OH254412   2.368   1.818   0.272  0.3514  0.5972  0.3976
10974TIP3    H154413   2.375   1.908   0.303 -1.2985  1.1304 -0.5955
10974TIP3    H254414   2.273   1.801   0.271  0.5936 -0.8529 -0.2176
10975TIP3   OH254415   4.939   4.920   0.931  0.0673  0.3529 -0.2173
10975TIP3    H154416   4.883   4.951   1.002 -0.4557 -2.7730  0.9126
10975TIP3    H254417   4.878   4.890   0.864  0.3324 -1.5887  0.3450
10976TIP3   OH254418   4.049   3.967   0.776  0.1161  0.3647 -0.1703
10976TIP3    H154419   3.999   3.890   0.802 -1.5818  0.8618 -1.7771
10976TIP3    H254420   4.036   4.029   0.848 -1.8634  0.5663 -0.6387
10977TIP3   OH254421   0.815   4.491  17.038 -0.6410 -0.3788  0.3680
10977TIP3    H154422   0.729   4.451  17.047 -1.1498  0.8777  1.2149
10977TIP3    H254423   0.799   4.585  17.033  0.6860 -0.1104  0.6224
10978TIP3   OH254424   4.334   0.461  16.099  0.1918  0.4510  0.4141
10978TIP3    H154425   4.399   0.501  16.157  1.3719 -0.7476 -0.0290
10978TIP3    H254426   4.258   0.520  16.104  1.0336  1.5049  1.5049
10979TIP3   OH254427   3.734   5.213   3.764  0.0373 -0.0409 -0.5324
10979TIP3    H154428   3.817   5.257   3.785  0.1524  0.3562 -1.7367
10979TIP3    H254429   3.698   5.189   3.849 -0.2463  2.7700  0.2567
10980TIP3   OH254430   2.013   4.816   4.456  0.1831 -0.0925 -0.6665
10980TIP3    H154431   1.981   4.817   4.366 -0.0931 -0.2063 -0.5713
10980TIP3    H254432   2.001   4.906   4.487 -1.7827 -0.5173 -0.0378
10981TIP3   OH254433   4.819   1.944  13.053 -0.1613  0.4631  0.2114
10981TIP3    H154434   4.726   1.958  13.071  0.1305  0.4082  1.9194
10981TIP3    H254435   4.843   1.870  13.109  1.2306  1.3888  0.8878
10982TIP3   OH254436   4.618   4.119  17.057  0.3344 -0.3397  0.1758
10982TIP3    H154437   4.619   4.194  16.997  1.1197 -0.3231  0.1950
10982TIP3    H254438   4.556   4.144  17.126 -0.7117 -0.4348 -0.7060
10983TIP3   OH254439   0.791   5.609  16.320  0.1546 -0.1819  0.2357
10983TIP3    H154440   0.879   5.648  16.319  0.5611 -1.0617  0.5013
10983TIP3    H254441   0.777   5.577  16.231 -0.2016  0.6112  0.0024
10984TIP3   OH254442   4.113   2.217   5.098  0.5858 -0.2668  0.1713
10984TIP3    H154443   4.034   2.269   5.080  0.3243 -0.2606  1.2581
10984TIP3    H254444   4.128   2.229   5.192  2.8177  1.0434 -0.2781
10985TIP3   OH254445   3.545   1.386  14.182  0.6785  0.0386  0.5689
10985TIP3    H154446   3.464   1.368  14.230  0.1775  1.2114  0.1959
10985TIP3    H254447   3.614   1.354  14.239  0.0346  0.5061  1.6424
10986TIP3   OH254448   3.714   1.455   4.769  0.8869 -0.4254  0.3643
10986TIP3    H154449   3.786   1.456   4.832  3.8292  2.2271 -2.6363
10986TIP3    H254450   3.755   1.425   4.687 -2.1374 -1.4321 -0.9382
10987TIP3   OH254451   6.432   3.840  16.018 -0.0195  0.4145  0.3327
10987TIP3    H154452   6.510   3.834  16.074  1.3857 -0.4000 -1.5701
10987TIP3    H254453   6.435   3.760  15.966 -1.7762  0.7117 -0.2770
10988TIP3   OH254454   3.940   5.860  14.899  0.6885  0.1534  0.3940
10988TIP3    H154455   4.010   5.798  14.922  0.2296 -0.7537 -0.5642
10988TIP3    H254456   3.899   5.881  14.982  1.8410  0.3874  0.9307
10989TIP3   OH254457   1.327   3.976  13.950  0.1126 -0.1045  0.2709
10989TIP3    H154458   1.396   4.039  13.971  0.1278 -0.0359  0.0197
10989TIP3    H254459   1.277   4.018  13.881 -0.6561  0.1868  0.9891
10990TIP3   OH254460   1.894   2.014   0.605 -0.2373  0.4805  0.5340
10990TIP3    H154461   1.854   2.022   0.691  0.3478  0.5428  0.8090
10990TIP3    H254462   1.988   2.024   0.622 -0.1693  1.1175 -0.1910
10991TIP3   OH254463   0.905   0.055   1.695  0.7021  0.0025 -0.1799
10991TIP3    H154464   0.927   0.132   1.643 -1.1059  0.0611 -0.9438
10991TIP3    H254465   0.821   0.076   1.735  1.7904 -0.2384  2.4678
10992TIP3   OH254466   0.650   2.597   5.436  0.3167 -0.0001 -0.4602
10992TIP3    H154467   0.584   2.537   5.469  1.7420 -1.4800 -0.1841
10992TIP3    H254468   0.603   2.680   5.426 -1.4798 -0.8916  0.0415
10993TIP3   OH254469   3.088   2.037   4.037  0.3330 -0.5561  0.9446
10993TIP3    H154470   3.097   1.942   4.034  0.9824 -0.4769  0.3246
10993TIP3    H254471   3.000   2.051   4.074 -0.2703 -1.3981 -0.1248
10994TIP3   OH254472   5.303   5.339  13.212 -0.6500  0.2356 -0.6152
10994TIP3    H154473   5.209   5.334  13.227 -0.8022 -1.2571 -1.7758
10994TIP3    H254474   5.315   5.304  13.124  1.0582 -0.3901 -0.1833
10995TIP3   OH254475   6.249   4.267   4.392  0.3981 -0.2100 -0.2019
10995TIP3    H154476   6.284   4.179   4.382  0.2193 -0.2958 -0.0577
10995TIP3    H254477   6.160   4.262   4.358  0.2952 -0.1495  0.0556
10996TIP3   OH254478   6.065   6.748  14.265 -0.8684 -0.3340 -0.2473
10996TIP3    H154479   6.115   6.686  14.211 -0.7735  0.5091 -1.1488
10996TIP3    H254480   6.089   6.725  14.355 -0.2303 -1.0965 -0.5929
10997TIP3   OH254481   0.724   4.928  14.642  0.4241 -0.1069 -0.7939
10997TIP3    H154482   0.772   5.010  14.654 -1.2522  0.9035 -0.6368
10997TIP3    H254483   0.706   4.897  14.731  0.9595 -0.6070 -0.8513
10998TIP3   OH254484   6.593   1.405   3.496  0.6418  0.2605  0.1101
10998TIP3    H154485   6.665   1.382   3.436  0.8529 -0.6578  0.6877
10998TIP3    H254486   6.591   1.500   3.495  1.6398  0.3002 -0.1940
10999TIP3   OH254487   0.505   6.325   0.204 -0.2836 -1.2048 -0.0599
10999TIP3    H154488   0.466   6.397   0.155 -0.9320 -0.9123  0.8619
10999TIP3    H254489   0.439   6.256   0.202  0.1490 -1.6125 -0.5471
11000TIP3   OH254490   5.136   2.480   4.933 -0.1317 -0.3748  0.5855
11000TIP3    H154491   5.049   2.485   4.894  0.5863 -0.1232 -1.0734
11000TIP3    H254492   5.195   2.507   4.863  1.7345 -5.1970 -0.1381
11001TIP3   OH254493   4.913   2.933   4.716 -0.3256 -0.0072  0.0219
11001TIP3    H154494   5.005   2.918   4.696 -0.3001 -1.6172  1.1899
11001TIP3    H254495   4.911   3.022   4.751  0.5990  0.4294 -0.9569
11002TIP3   OH254496   3.845   6.448  15.703 -0.4293  0.3282  0.0302
11002TIP3    H154497   3.866   6.490  15.620 -1.6476 -1.6923 -1.3857
11002TIP3    H254498   3.774   6.500  15.740 -0.0882  1.0558 -0.3349
11003TIP3   OH254499   1.847   1.458   5.368  0.6182  0.4271 -0.0162
11003TIP3    H154500   1.935   1.495   5.376  1.0216 -0.5075  0.0358
11003TIP3    H254501   1.800   1.492   5.444  1.2179  0.2063  0.4658
11004TIP3   OH254502   6.265   6.252  13.394  0.3493 -0.1452  0.5437
11004TIP3    H154503   6.264   6.225  13.485 -0.3554 -2.7008 -0.1289
11004TIP3    H254504   6.343   6.307  13.385  0.5004  0.0341  2.6099
11005TIP3   OH254505   5.788   0.639   2.628 -0.0755 -0.0280 -0.0626
11005TIP3    H154506   5.861   0.685   2.586  0.6344  1.1005  2.2038
11005TIP3    H254507   5.751   0.704   2.688 -2.3194 -0.9081 -0.4064
11006TIP3   OH254508   3.532   6.471  13.941 -0.1655  0.5061 -0.0265
11006TIP3    H154509   3.462   6.406  13.934  0.0122  0.1373  1.4365
11006TIP3    H254510   3.598   6.429  13.995  0.4813  1.4688 -0.0531
11007TIP3   OH254511   3.143   4.518  13.492 -0.5682 -0.3569 -0.7217
11007TIP3    H154512   3.050   4.516  13.469 -0.5870 -1.4454 -0.5885
11007TIP3    H254513   3.151   4.458  13.565  0.3516 -0.7795 -1.1568
11008TIP3   OH254514   4.074   3.478   3.364  0.3074  0.1247  0.6907
11008TIP3    H154515   3.979   3.472   3.349  0.3711  1.3351 -0.3094
11008TIP3    H254516   4.094   3.571   3.356  1.4447  0.0168  1.8785
11009TIP3   OH254517   0.979   3.066   5.058 -0.2029  0.0531  0.6488
11009TIP3    H154518   0.971   3.146   5.109  1.6868 -0.5151  1.9308
11009TIP3    H254519   0.987   3.096   4.968  2.2368  1.4710  1.2558
11010TIP3   OH254520   2.099   0.667   3.742  0.5945 -0.0037 -0.0825
11010TIP3    H154521   2.066   0.752   3.768  1.9933  0.7291 -0.5598
11010TIP3    H254522   2.023   0.620   3.708 -0.4637  0.5091  1.4881
11011TIP3   OH254523   4.855   5.935  13.583 -0.6121  0.4387  0.0743
11011TIP3    H154524   4.897   5.974  13.506 -0.8220  0.0095 -0.2659
11011TIP3    H254525   4.766   5.970  13.581 -0.4272  0.9403  0.4978
11012TIP3   OH254526   5.702   2.682  11.347 -0.2185  0.1310  0.9542
11012TIP3    H154527   5.635   2.650  11.408 -0.8505 -0.2247  0.0911
11012TIP3    H254528   5.654   2.700  11.266  0.8502 -0.8886  0.0639
11013TIP3   OH254529   5.791   4.188   2.353 -0.5585  0.3923 -0.5252
11013TIP3    H154530   5.860   4.254   2.346  0.3931 -0.1187  2.4485
11013TIP3    H254531   5.758   4.197   2.443 -0.4700 -3.0273  0.0106
11014TIP3   OH254532   4.424   5.726   3.397 -0.0883  0.9667  0.2479
11014TIP3    H154533   4.491   5.781   3.438 -0.6908  2.2144 -0.3663
11014TIP3    H254534   4.399   5.664   3.464  1.8741  0.2777  0.4034
11015TIP3   OH254535   1.083   3.839   6.270  0.0047  0.0175  0.7137
11015TIP3    H154536   1.138   3.902   6.318  0.9339  0.1200 -0.4479
11015TIP3    H254537   1.132   3.757   6.273  0.0772  0.0270 -0.0530
11016TIP3   OH254538   3.998   4.437  14.614  0.3481 -0.3309  0.0768
11016TIP3    H154539   3.981   4.516  14.563 -1.1263 -0.3028  0.5421
11016TIP3    H254540   4.069   4.462  14.674  1.8397 -0.2567 -1.6396
11017TIP3   OH254541   0.440   6.757   1.626 -0.2013 -0.0350  0.1272
11017TIP3    H154542   0.379   6.737   1.697  0.4405 -2.8269  0.0245
11017TIP3    H254543   0.513   6.695   1.639  0.4216  0.0607 -2.3553
11018TIP3   OH254544   4.309   0.309  14.602  0.5323  0.0486 -0.1933
11018TIP3    H154545   4.375   0.343  14.663 -0.0588  4.4752 -1.7067
11018TIP3    H254546   4.228   0.307  14.654  0.8067 -0.2531  0.2355
11019TIP3   OH254547   0.408   4.044   3.268 -0.6166  0.3829  0.5728
11019TIP3    H154548   0.419   3.967   3.213  1.0678  0.7288  0.3804
11019TIP3    H254549   0.367   4.109   3.210 -2.3978 -0.4473  0.8426
11020TIP3   OH254550   6.459   4.834   4.866 -0.1989  0.0309 -0.5203
11020TIP3    H154551   6.451   4.913   4.920  1.6918 -1.5018  2.2324
11020TIP3    H254552   6.520   4.859   4.796 -0.6202  1.3498 -0.4409
11021TIP3   OH254553   1.778   0.365   6.332 -0.8332  0.2142 -0.0132
11021TIP3    H154554   1.711   0.405   6.276 -1.2736 -0.9752 -0.3798
11021TIP3    H254555   1.808   0.436   6.388 -0.1417  1.5509 -1.9531
11022TIP3   OH254556   1.480   4.786   2.952 -0.1059 -0.2364 -0.3452
11022TIP3    H154557   1.451   4.717   2.893 -0.6552 -0.7324  0.4842
11022TIP3    H254558   1.399   4.819   2.992  0.0556  1.4244 -1.2667
11023TIP3   OH254559   4.066   3.047  16.284  0.5865  0.8746 -0.2577
11023TIP3    H154560   4.133   3.115  16.290 -1.2369  2.6819  1.5930
11023TIP3    H254561   4.054   3.017  16.374  0.1566 -0.7066 -0.8156
11024TIP3   OH254562   0.122   1.184   4.267 -0.1396  0.3518 -0.2650
11024TIP3    H154563   0.105   1.264   4.316 -1.4847  0.1313 -0.3326
11024TIP3    H254564   0.054   1.122   4.297  0.7548 -0.7040 -0.3481
11025TIP3   OH254565   4.932   0.217   1.299  0.4973 -0.1695  0.2081
11025TIP3    H154566   5.017   0.233   1.257 -0.9270  0.2457 -2.7175
11025TIP3    H254567   4.911   0.300   1.342  1.4607 -0.2384  0.8625
11026TIP3   OH254568   1.981   3.699  16.436 -0.0118  0.4334 -0.4585
11026TIP3    H154569   1.930   3.780  16.445  0.6090  0.7905 -0.1181
11026TIP3    H254570   2.018   3.684  16.523  0.3523  0.1032 -0.6678
11027TIP3   OH254571   6.023   4.163  12.347  0.1432 -0.1823  0.3373
11027TIP3    H154572   6.023   4.236  12.409  2.7415 -0.2948  0.5796
11027TIP3    H254573   6.065   4.199  12.269  0.9123 -1.2352  0.2500
11028TIP3   OH254574   3.477   3.376   6.395  0.7818  0.1487  0.2616
11028TIP3    H154575   3.485   3.409   6.305  1.9378 -0.3459  0.1675
11028TIP3    H254576   3.498   3.451   6.450  0.3328  0.3814  0.1272
11029TIP3   OH254577   6.367   1.522   3.155 -0.1669 -0.6376 -0.6308
11029TIP3    H154578   6.419   1.526   3.075  0.4016 -0.6369 -0.2711
11029TIP3    H254579   6.388   1.437   3.193 -0.1566 -0.4901 -0.3005
11030TIP3   OH254580   1.544   1.852   2.521  0.1093  0.4090  0.1194
11030TIP3    H154581   1.586   1.776   2.480  0.8657  0.8533  0.0414
11030TIP3    H254582   1.570   1.847   2.613 -2.7537 -1.3852  0.9484
11031TIP3   OH254583   4.420   2.631   2.504  0.2581  0.2241 -0.0747
11031TIP3    H154584   4.473   2.710   2.502  0.6830 -0.0353  0.5065
11031TIP3    H254585   4.483   2.560   2.520  0.0382 -0.3771 -1.6949
11032TIP3   OH254586   2.895   4.229   3.166  0.0726 -0.5958 -0.2686
11032TIP3    H154587   2.852   4.220   3.081 -0.7091  0.6670 -0.0293
11032TIP3    H254588   2.928   4.319   3.167 -0.7514 -0.2821  1.1165
11033TIP3   OH254589   0.382   0.919  16.870 -0.1397  0.4015 -0.5280
11033TIP3    H154590   0.354   0.828  16.883 -1.4624  0.9913  1.1856
11033TIP3    H254591   0.393   0.953  16.959  1.3134  1.6547 -1.1510
11034TIP3   OH254592   5.602   2.913  16.770  0.3513 -0.5661 -0.0988
11034TIP3    H154593   5.580   2.896  16.679 -1.0866  2.1064 -0.3717
11034TIP3    H254594   5.669   2.981  16.766 -1.4551  1.3926  0.7242
11035TIP3   OH254595   1.278   1.087  10.743  0.4132  0.3338  0.1177
11035TIP3    H154596   1.348   1.088  10.808 -0.1360 -0.1003  0.7352
11035TIP3    H254597   1.200   1.061  10.793  0.5024 -2.9564 -1.2359
11036TIP3   OH254598   3.032   3.658   3.731 -0.3496  0.4475  0.0905
11036TIP3    H154599   3.046   3.583   3.788 -0.8963  1.2661  1.3197
11036TIP3    H254600   2.937   3.671   3.730 -0.6227 -0.9079 -2.8161
11037TIP3   OH254601   0.072   6.245  13.769  1.1159  0.2642  0.2670
11037TIP3    H154602   0.120   6.245  13.686  0.5274 -1.3779 -0.1128
11037TIP3    H254603   0.107   6.171  13.817 -0.9242 -0.9514  0.0017
11038TIP3   OH254604   6.841   3.882   6.153 -0.4156  0.3643 -0.2751
11038TIP3    H154605   6.896   3.955   6.125 -1.2558  0.1294 -2.7960
11038TIP3    H254606   6.876   3.857   6.239  1.5312  2.0491 -0.5024
11039TIP3   OH254607   3.543   6.129   6.095 -0.1858  0.0940 -0.2070
11039TIP3    H154608   3.559   6.173   6.012  0.5612  1.6534  0.7169
11039TIP3    H254609   3.623   6.078   6.110 -1.0098 -1.5806 -1.2275
11040TIP3   OH254610   0.130   1.733   2.074  0.2078 -0.0156 -0.6053
11040TIP3    H154611   0.145   1.755   2.166 -2.8587  1.7716 -0.3793
11040TIP3    H254612   0.146   1.815   2.027 -0.2153 -0.3595 -1.3736
11041TIP3   OH254613   0.998   1.124  14.923 -0.2214  0.5436 -0.4217
11041TIP3    H154614   1.022   1.058  14.859 -1.7164 -1.8697  1.3230
11041TIP3    H254615   0.910   1.152  14.897  0.2968  1.6990 -0.9958
11042TIP3   OH254616   0.177   3.093   5.490 -0.2375  0.1356 -0.0036
11042TIP3    H154617   0.098   3.109   5.540 -1.2872  0.8042 -1.7913
11042TIP3    H254618   0.220   3.021   5.537 -1.0767  0.7843  1.8753
11043TIP3   OH254619   1.249   4.109   3.618 -0.0737  0.4244 -0.5947
11043TIP3    H154620   1.342   4.108   3.639 -0.0375  1.7270 -0.6021
11043TIP3    H254621   1.228   4.202   3.605 -2.2015  0.6921  3.1414
11044TIP3   OH254622   0.276   1.668  13.191  0.5066  0.0353 -0.5728
11044TIP3    H154623   0.242   1.730  13.127 -1.0746 -0.3964 -0.1953
11044TIP3    H254624   0.291   1.720  13.270 -2.3754 -0.2439  0.2788
11045TIP3   OH254625   1.138   4.789  13.606  0.0540 -0.2661 -0.0509
11045TIP3    H154626   1.119   4.810  13.697 -1.4597 -1.5945 -0.0182
11045TIP3    H254627   1.175   4.869  13.570  1.2480  0.1013  1.8668
11046TIP3   OH254628   1.865   3.949   5.355 -0.0304 -0.2490  0.9028
11046TIP3    H154629   1.896   3.871   5.310 -2.1337 -0.2839 -0.6291
11046TIP3    H254630   1.835   3.918   5.440  1.7169 -0.6052  1.4192
11047TIP3   OH254631   2.229   4.521   1.190  0.2811  0.3462 -0.4611
11047TIP3    H154632   2.260   4.518   1.100 -1.2041  0.4601 -1.0003
11047TIP3    H254633   2.165   4.451   1.196  2.0554 -1.2706  1.2231
11048TIP3   OH254634   0.668   5.395   3.756  1.1497  0.5233  0.5289
11048TIP3    H154635   0.631   5.431   3.837  0.2729 -0.4068  0.5668
11048TIP3    H254636   0.657   5.464   3.691  0.6683  0.7917  0.8928
11049TIP3   OH254637   1.951   3.356   1.342  0.5406 -0.5751 -0.2086
11049TIP3    H154638   2.007   3.421   1.383  0.0868 -0.3827  0.1188
11049TIP3    H254639   1.984   3.348   1.253  0.9708 -0.3358 -0.0731
11050TIP3   OH254640   2.656   3.749   4.719 -0.1341  0.0408 -0.1153
11050TIP3    H154641   2.725   3.698   4.763  0.7675  1.0519 -0.3042
11050TIP3    H254642   2.701   3.827   4.687 -0.5487 -0.9725 -3.5643
11051TIP3   OH254643   0.734   3.042   3.893  0.2028 -0.7050 -0.7386
11051TIP3    H154644   0.712   2.970   3.953  1.1135  0.0783  0.5895
11051TIP3    H254645   0.795   3.005   3.831  0.7766 -1.0634  0.0267
11052TIP3   OH254646   2.056   3.027  12.937  0.0063  0.1483  0.4396
11052TIP3    H154647   2.092   2.992  13.018 -0.4401 -0.1734  0.5006
11052TIP3    H254648   2.132   3.058  12.888  0.3271 -0.1746  0.7336
11053TIP3   OH254649   1.871   5.250   2.822  0.3612  0.1720  0.7980
11053TIP3    H154650   1.836   5.235   2.910 -0.3658  2.2446  0.9364
11053TIP3    H254651   1.810   5.205   2.764  0.8670 -1.2455  1.3308
11054TIP3   OH254652   5.982   1.137   3.431 -0.0208 -0.4227 -0.1834
11054TIP3    H154653   5.942   1.125   3.345  1.1034  1.0852 -0.9834
11054TIP3    H254654   6.042   1.211   3.418  2.5859 -2.1707  1.0507
11055TIP3   OH254655   2.725   4.822   3.540  0.1645 -0.1242  0.6697
11055TIP3    H154656   2.763   4.907   3.518 -0.5258  0.3205  1.1517
11055TIP3    H254657   2.654   4.842   3.600  0.0850 -1.0605  0.9103
11056TIP3   OH254658   0.639   0.588  16.670 -0.3352  0.5010 -0.2964
11056TIP3    H154659   0.687   0.639  16.605  0.9184  0.5914  0.6560
11056TIP3    H254660   0.662   0.628  16.754 -1.3814 -0.0300  0.2714
11057TIP3   OH254661   3.579   1.264  11.127  0.0714 -0.0152 -0.2015
11057TIP3    H154662   3.560   1.171  11.121  0.7313 -0.3579  2.1741
11057TIP3    H254663   3.633   1.273  11.205  0.3520  2.3269 -0.5827
11058TIP3   OH254664   0.521   2.905  16.885  0.3077  0.6770 -0.0733
11058TIP3    H154665   0.476   2.927  16.804 -0.8087 -1.0585  0.0271
11058TIP3    H254666   0.614   2.910  16.863  0.0241  0.7918 -1.2909
11059TIP3   OH254667   5.558   2.988  17.112 -0.0673 -0.0544  0.2075
11059TIP3    H154668   5.591   2.904  17.142  0.9405  0.0332 -0.6170
11059TIP3    H254669   5.635   3.045  17.108 -0.1501 -0.0248 -2.3515
11060TIP3   OH254670   1.194   4.235   1.684 -0.5250 -0.4006  0.1390
11060TIP3    H154671   1.112   4.234   1.733 -0.3518  0.5055  0.4769
11060TIP3    H254672   1.261   4.212   1.749 -0.4558 -0.6088 -0.0071
11061TIP3   OH254673   0.347   4.300  15.736  0.5542 -0.1530  0.0122
11061TIP3    H154674   0.325   4.325  15.826 -0.1040 -1.0737  0.1270
11061TIP3    H254675   0.426   4.350  15.716 -0.7466  2.0785  0.1660
11062TIP3   OH254676   2.560   4.266   3.774  0.3869  0.5483 -0.5840
11062TIP3    H154677   2.477   4.249   3.729  0.1821  1.8431 -0.7544
11062TIP3    H254678   2.620   4.291   3.703  0.7058  0.3812 -0.3742
11063TIP3   OH254679   5.420   0.633  15.551 -0.3019  0.3009 -0.0018
11063TIP3    H154680   5.358   0.684  15.499 -1.0315 -0.3654  0.1891
11063TIP3    H254681   5.470   0.583  15.486 -0.8802 -0.1598 -0.1079
11064TIP3   OH254682   0.669   6.794   2.605  0.1511  0.0120 -0.0821
11064TIP3    H154683   0.668   6.871   2.549 -1.7548  0.0616 -0.0325
11064TIP3    H254684   0.667   6.720   2.544 -1.8108  0.0655 -0.1403
11065TIP3   OH254685   4.806   4.072  11.181  0.3324 -0.2262 -0.4991
11065TIP3    H154686   4.803   4.054  11.275  1.1530  0.1817 -0.3858
11065TIP3    H254687   4.764   3.996  11.140  0.5727 -0.7207  0.1575
11066TIP3   OH254688   4.268   2.319  13.980  0.0131 -0.5719 -0.1822
11066TIP3    H154689   4.234   2.382  14.044  1.4915  0.3209 -0.2410
11066TIP3    H254690   4.328   2.264  14.029  2.8219  1.4519 -1.0877
11067TIP3   OH254691   2.854   4.514  13.468  0.4612 -0.1014  0.0063
11067TIP3    H154692   2.818   4.507  13.379 -0.5630 -2.7194  0.5456
11067TIP3    H254693   2.812   4.592  13.505 -1.7911 -0.9476 -0.6613
11068TIP3   OH254694   5.072   6.298   1.839 -0.5599  0.3313 -0.1256
11068TIP3    H154695   5.106   6.220   1.883 -2.2613  0.1294  0.9330
11068TIP3    H254696   5.093   6.285   1.747 -0.9975 -1.4928  0.0054
11069TIP3   OH254697   3.427   2.448  11.071  0.2499 -0.0339  0.3607
11069TIP3    H154698   3.520   2.466  11.057  0.6797 -0.2252  2.6194
11069TIP3    H254699   3.414   2.360  11.036  0.4698  0.6668 -1.5919
11070TIP3   OH254700   1.387   0.370   3.286 -0.0731 -0.2731  0.5325
11070TIP3    H154701   1.341   0.309   3.343 -0.0149 -0.0199  0.8541
11070TIP3    H254702   1.384   0.329   3.199  0.2302 -0.8732  0.8011
11071TIP3   OH254703   6.578   6.444  16.246 -0.1609 -0.1070 -0.4699
11071TIP3    H154704   6.609   6.354  16.257  1.4180  0.4410 -0.1607
11071TIP3    H254705   6.537   6.465  16.330  0.3535 -0.2110 -0.1902
11072TIP3   OH254706   0.842   3.530  14.464 -0.0336  0.0434  0.2188
11072TIP3    H154707   0.780   3.528  14.537 -0.5098 -0.6903 -0.1862
11072TIP3    H254708   0.916   3.478  14.495 -0.8235 -1.4579 -0.2991
11073TIP3   OH254709   3.871   3.296  12.027 -0.1685 -0.1551 -0.0582
11073TIP3    H154710   3.885   3.203  12.041 -3.1555 -0.6934 -0.0301
11073TIP3    H254711   3.893   3.311  11.935 -0.8383 -1.1711 -0.3931
11074TIP3   OH254712   3.891   0.687  12.367  0.5024  0.1867  0.2807
11074TIP3    H154713   3.844   0.675  12.449 -0.3523  0.4717 -0.1594
11074TIP3    H254714   3.944   0.766  12.381  1.1881 -0.3667  0.9177
11075TIP3   OH254715   2.501   2.150   0.945  0.2395  0.0959  0.3798
11075TIP3    H154716   2.422   2.188   0.907  0.1779  1.1278  1.4716
11075TIP3    H254717   2.515   2.069   0.896 -0.7622  0.5416 -0.6825
11076TIP3   OH254718   5.101   1.505   1.884 -0.0664  0.6224 -0.3307
11076TIP3    H154719   5.118   1.585   1.834 -0.0046  0.2623 -0.8865
11076TIP3    H254720   5.075   1.441   1.819  0.0073  0.1477  0.1018
11077TIP3   OH254721   1.434   3.802   0.149  0.1554 -0.2276  0.1047
11077TIP3    H154722   1.395   3.756   0.224 -0.3038 -0.2775 -0.1640
11077TIP3    H254723   1.528   3.790   0.161  0.0495 -2.7142 -0.8702
11078TIP3   OH254724   2.127   0.437  10.565  0.1965  0.2020 -0.4096
11078TIP3    H154725   2.057   0.479  10.515 -1.3123 -2.5358 -0.8254
11078TIP3    H254726   2.206   0.451  10.512 -0.4774  1.3432 -1.1470
11079TIP3   OH254727   2.186   6.172  15.486  0.7213  0.3367 -0.0831
11079TIP3    H154728   2.217   6.245  15.539  1.8054 -0.0958 -0.0994
11079TIP3    H254729   2.233   6.180  15.403 -0.0409  0.2968 -0.5330
11080TIP3   OH254730   1.893   2.772  16.428  0.4548 -0.4037  0.3870
11080TIP3    H154731   1.807   2.797  16.395  0.4321 -0.9387  0.0463
11080TIP3    H254732   1.955   2.821  16.373  0.3865 -0.3998  0.3128
11081TIP3   OH254733   6.248   2.408  14.267 -0.3878  0.2354 -0.4419
11081TIP3    H154734   6.178   2.473  14.255 -1.4977 -0.7065  0.5950
11081TIP3    H254735   6.323   2.458  14.299 -0.8578  1.1610 -0.7621
11082TIP3   OH254736   1.057   0.860  13.342  0.3803 -0.3106  0.2031
11082TIP3    H154737   1.027   0.930  13.284  1.9339 -0.1724 -0.4824
11082TIP3    H254738   1.130   0.819  13.296  0.5542 -1.3355  1.3121
11083TIP3   OH254739   3.223   6.416   2.926  0.4283 -0.8296  0.1311
11083TIP3    H154740   3.288   6.438   2.859 -0.9144 -1.9384 -1.5898
11083TIP3    H254741   3.165   6.492   2.929  0.7463 -0.5931  0.3765
11084TIP3   OH254742   6.656   4.880   4.661  0.6442 -0.0380  0.4620
11084TIP3    H154743   6.699   4.965   4.667 -1.3730  1.4087 -2.7456
11084TIP3    H254744   6.711   4.829   4.602  1.4228 -0.7171  1.7396
11085TIP3   OH254745   6.706   4.939   3.560 -0.1619 -0.1088 -0.1949
11085TIP3    H154746   6.649   4.996   3.611 -0.5756 -0.9078  0.2362
11085TIP3    H254747   6.669   4.852   3.570  0.8651 -0.5684 -0.2913
11086TIP3   OH254748   2.413   0.114  16.387  0.2995  0.1417  0.2738
11086TIP3    H154749   2.374   0.159  16.312 -0.9340 -2.8583 -1.0507
11086TIP3    H254750   2.505   0.140  16.387  0.1992  0.6401 -1.9595
11087TIP3   OH254751   0.986   6.465  13.084  0.2414 -0.2409 -0.6517
11087TIP3    H154752   1.057   6.461  13.148 -1.1845 -1.2039  0.9637
11087TIP3    H254753   0.973   6.374  13.058 -0.3599 -0.0657 -0.9745
11088TIP3   OH254754   1.348   3.300  11.995  0.2680 -0.1422 -0.1802
11088TIP3    H154755   1.274   3.360  12.007  1.4923  1.6490 -1.0710
11088TIP3    H254756   1.343   3.274  11.903  0.4332 -0.4617 -0.0998
11089TIP3   OH254757   6.047   6.428   4.585 -0.4694  0.1627  0.3018
11089TIP3    H154758   5.979   6.494   4.599  2.1408  2.8588  1.1955
11089TIP3    H254759   6.102   6.433   4.663  2.0833 -0.2444 -1.3658
11090TIP3   OH254760   6.431   3.118  12.698 -0.5418  0.5310  0.5546
11090TIP3    H154761   6.496   3.129  12.767  0.2082 -1.2073  0.1665
11090TIP3    H254762   6.364   3.062  12.736 -0.5885  0.3305  0.1868
11091TIP3   OH254763   3.407   0.861  14.986 -0.3993  0.0045  0.7237
11091TIP3    H154764   3.335   0.901  15.034  0.2026  0.7450  1.0453
11091TIP3    H254765   3.465   0.826  15.054  0.5071  1.1406  0.5753
11092TIP3   OH254766   5.924   0.401   4.910  0.0879  0.2904 -0.1020
11092TIP3    H154767   6.009   0.441   4.896 -0.5951  2.7680  2.1984
11092TIP3    H254768   5.865   0.449   4.851  0.0185 -0.5646 -0.7559
11093TIP3   OH254769   1.638   1.772   5.179 -0.2941 -0.1433 -0.1385
11093TIP3    H154770   1.641   1.854   5.130 -0.9374  0.1508  0.3124
11093TIP3    H254771   1.583   1.714   5.127  1.5626 -0.9022 -1.3576
11094TIP3   OH254772   2.480   1.893  16.086  0.0626 -0.2440 -0.3082
11094TIP3    H154773   2.569   1.898  16.053 -0.9475 -1.2808 -3.6411
11094TIP3    H254774   2.442   1.979  16.069  0.6035  0.5362  2.0421
11095TIP3   OH254775   1.892   0.141  10.569  0.4766 -0.3844  0.1214
11095TIP3    H154776   1.900   0.209  10.502 -3.8141  0.6841  0.4338
11095TIP3    H254777   1.843   0.071  10.526  1.2179 -1.4957  1.0371
11096TIP3   OH254778   3.553   4.481   2.506 -0.4441 -0.3022  0.0289
11096TIP3    H154779   3.612   4.460   2.579 -0.4811 -0.1454  0.1045
11096TIP3    H254780   3.595   4.443   2.430 -1.1312 -1.7585  0.3440
11097TIP3   OH254781   0.693   6.153  16.923 -0.3798 -0.1990  0.2463
11097TIP3    H154782   0.716   6.241  16.954 -0.0760 -0.6279  1.2801
11097TIP3    H254783   0.762   6.097  16.959 -1.7796 -1.1864  1.5235
11098TIP3   OH254784   4.060   0.919  16.258 -0.0748  0.0179 -0.3724
11098TIP3    H154785   4.019   0.934  16.343  1.7700  2.0044  0.2653
11098TIP3    H254786   3.988   0.916  16.196 -1.2773  2.9642  0.7303
11099TIP3   OH254787   2.348   4.032  11.790  0.1283 -0.3411  0.2137
11099TIP3    H154788   2.304   4.064  11.711 -0.8108 -0.9894  0.4528
11099TIP3    H254789   2.293   4.064  11.862  0.7905 -0.0404  0.5930
11100TIP3   OH254790   5.254   5.726   0.420 -0.0565  0.3578 -0.3433
11100TIP3    H154791   5.182   5.668   0.445  1.3788 -1.1324  0.5282
11100TIP3    H254792   5.239   5.744   0.327 -0.7664 -1.1314 -0.5441
11101TIP3   OH254793   1.960   1.675  13.370 -0.0002 -0.0150 -0.4545
11101TIP3    H154794   1.924   1.608  13.311  0.7116 -1.1775  0.3911
11101TIP3    H254795   1.900   1.678  13.444  0.0525  0.1653 -0.4189
11102TIP3   OH254796   4.960   2.529  11.795  0.1433 -0.0451  0.0548
11102TIP3    H154797   4.910   2.461  11.840 -1.1282  1.0648  0.3737
11102TIP3    H254798   4.911   2.610  11.811  3.1961  1.5292  2.2503
11103TIP3   OH254799   2.570   3.234   4.735 -0.3268 -0.7947 -0.6441
11103TIP3    H154800   2.614   3.205   4.816  0.0087 -2.2667 -1.3176
11103TIP3    H254801   2.641   3.244   4.672 -0.7685 -1.4808 -1.2633
11104TIP3   OH254802   3.274   4.005   5.894 -0.2428  0.5013  0.0969
11104TIP3    H154803   3.268   4.036   5.984 -1.0677 -0.2637  0.3158
11104TIP3    H254804   3.186   4.017   5.859  0.0087  0.5515 -0.5294
11105TIP3   OH254805   3.084   2.292  14.280  0.4374  0.0176 -0.1194
11105TIP3    H154806   3.083   2.385  14.258 -1.5350  0.1326  0.2639
11105TIP3    H254807   3.175   2.265  14.266  0.9704  1.9002 -0.5996
11106TIP3   OH254808   4.126   3.268   5.039 -0.2669  0.2141  0.4728
11106TIP3    H154809   4.159   3.281   5.128  1.9232 -0.1613 -0.2103
11106TIP3    H254810   4.199   3.227   4.993 -0.9394  1.3917 -1.7827
11107TIP3   OH254811   0.621   4.318  12.273  0.5460  0.6213  0.6366
11107TIP3    H154812   0.596   4.295  12.183  1.2255  0.0126  0.5987
11107TIP3    H254813   0.623   4.414  12.273  1.9255  0.6320 -0.4005
11108TIP3   OH254814   5.453   5.013  12.104  0.1666  0.1274  0.3216
11108TIP3    H154815   5.444   5.037  12.011 -0.3156  0.4953  0.4580
11108TIP3    H254816   5.401   4.934  12.114  1.1774 -0.5915  0.0265
11109TIP3   OH254817   6.269   6.232  13.856  1.0552  0.7076  0.4046
11109TIP3    H154818   6.272   6.231  13.760  1.3459  0.9859  0.4095
11109TIP3    H254819   6.272   6.325  13.879 -0.6864  0.7407  0.6369
11110TIP3   OH254820   6.732   2.311   4.974  0.5214 -0.7140 -0.1226
11110TIP3    H154821   6.690   2.270   4.899 -0.6562 -2.6877  1.5143
11110TIP3    H254822   6.809   2.256   4.992 -2.0212 -3.6696  3.1716
11111TIP3   OH254823   4.062   4.440  16.771 -0.6964  0.3366  0.6081
11111TIP3    H154824   3.987   4.394  16.733 -1.1782  0.9581  0.8003
11111TIP3    H254825   4.027   4.482  16.849 -0.5711  2.0820 -0.2468
11112TIP3   OH254826   4.900   4.016  16.835  0.0959 -0.1744  0.2120
11112TIP3    H154827   4.985   3.977  16.813  0.4560  0.6460  0.0830
11112TIP3    H254828   4.879   4.072  16.760  1.4340  2.8300  1.8613
11113TIP3   OH254829   5.394   3.291  14.471  0.8222  0.3117  0.0491
11113TIP3    H154830   5.440   3.354  14.526  0.6528  1.3318 -0.9388
11113TIP3    H254831   5.302   3.298  14.498  0.8033  0.4859 -0.0626
11114TIP3   OH254832   3.593   5.022  15.605  0.0264 -0.3716 -0.5970
11114TIP3    H154833   3.548   4.953  15.655  0.4376  0.9396  1.6970
11114TIP3    H254834   3.529   5.092  15.599  0.7337  0.3443  0.0679
11115TIP3   OH254835   1.941   4.595   1.212  0.2729 -0.1634  0.3732
11115TIP3    H154836   1.955   4.646   1.132  1.2774  1.3225  1.4373
11115TIP3    H254837   1.954   4.658   1.282 -1.1771 -1.2967  1.7177
11116TIP3   OH254838   6.665   2.745  12.637  0.0185 -0.7204 -0.0242
11116TIP3    H154839   6.712   2.684  12.579  0.1676 -0.7819  0.1593
11116TIP3    H254840   6.730   2.813  12.657  0.2831 -1.2077  0.8436
11117TIP3   OH254841   2.205   0.493  11.988 -0.2208  0.2127 -0.1818
11117TIP3    H154842   2.120   0.458  12.016 -0.2259 -1.8948 -2.4382
11117TIP3    H254843   2.216   0.459  11.899  2.5765  1.2060 -0.3023
11118TIP3   OH254844   4.603   2.120  13.097 -0.1762 -0.1661  0.1838
11118TIP3    H154845   4.621   2.214  13.092  0.8177 -0.3800 -0.8733
11118TIP3    H254846   4.509   2.112  13.080 -0.3735  0.6603  0.8225
11119TIP3   OH254847   4.816   4.305  14.996 -0.5757 -0.0173 -0.3097
11119TIP3    H154848   4.891   4.246  14.997 -0.4054  0.1956  0.2330
11119TIP3    H254849   4.855   4.393  14.998 -0.8294  0.0907  1.0777
11120TIP3   OH254850   1.373   5.282  11.450 -0.3324 -0.3291 -0.1195
11120TIP3    H154851   1.467   5.295  11.460 -0.2939 -1.8894  2.5674
11120TIP3    H254852   1.345   5.351  11.389  2.3185  0.9930  0.0354
11121TIP3   OH254853   6.657   3.085   0.105  0.7511 -0.2556 -0.2556
11121TIP3    H154854   6.672   3.167   0.152 -0.1268  0.0147 -0.4190
11121TIP3    H254855   6.744   3.054   0.081  1.0744  0.9505 -0.7260
11122TIP3   OH254856   1.518   1.497  14.357  0.0721  0.3581  0.8832
11122TIP3    H154857   1.482   1.582  14.333  1.0817  0.6610  0.3738
11122TIP3    H254858   1.553   1.510  14.445 -2.5646 -0.4265  2.1523
11123TIP3   OH254859   6.192   5.501   0.686  0.0177 -0.4210 -0.4059
11123TIP3    H154860   6.222   5.412   0.706 -1.1578 -0.4601  1.4684
11123TIP3    H254861   6.106   5.489   0.647 -0.1160 -0.1229 -0.2061
11124TIP3   OH254862   0.247   5.880   0.012  0.2237  0.0861 -0.3719
11124TIP3    H154863   0.280   5.797   0.047  1.9334  0.7677 -0.2671
11124TIP3    H254864   0.322   5.918  -0.035 -0.4232  1.7080 -0.1682
11125TIP3   OH254865   2.359   0.316   1.138 -0.3563 -0.2698  0.3979
11125TIP3    H154866   2.265   0.304   1.153  0.0733 -0.8444  3.1638
11125TIP3    H254867   2.377   0.268   1.058 -1.9933 -2.3472  1.1865
11126TIP3   OH254868   5.535   2.989  11.594  0.7759 -0.1283  0.1341
11126TIP3    H154869   5.477   2.914  11.581  1.4268 -0.4966 -0.7836
11126TIP3    H254870   5.615   2.951  11.630  1.5133 -0.0615 -1.3449
11127TIP3   OH254871   2.463   1.381   2.586  0.0654  0.0036 -0.4543
11127TIP3    H154872   2.545   1.389   2.537  0.4953 -2.0520 -0.1903
11127TIP3    H254873   2.450   1.286   2.595 -2.2699  0.2793 -0.3464
11128TIP3   OH254874   0.118   4.807  11.257  0.3086 -0.1162  0.2512
11128TIP3    H154875   0.108   4.886  11.205  1.8612 -1.5439 -2.4449
11128TIP3    H254876   0.202   4.818  11.302 -0.2504  0.4204  1.1877
11129TIP3   OH254877   4.609   0.180  15.925  0.1373 -0.2891  0.8146
11129TIP3    H154878   4.578   0.250  15.868  0.3269 -0.3447  0.6426
11129TIP3    H254879   4.702   0.170  15.902 -0.1221 -1.2774  0.1302
11130TIP3   OH254880   1.428   1.142   4.899  0.1714 -0.1242 -0.4881
11130TIP3    H154881   1.493   1.124   4.966 -0.9036 -0.3327  0.5352
11130TIP3    H254882   1.395   1.230   4.920 -1.3827 -0.8599  0.3365
11131TIP3   OH254883   0.259   5.268  13.856 -0.3750 -0.2515 -0.2410
11131TIP3    H154884   0.266   5.274  13.951 -0.0842 -0.3407 -0.2564
11131TIP3    H254885   0.324   5.203  13.831 -2.6218 -2.6581 -0.1999
11132TIP3   OH254886   4.892   4.272  12.368 -0.9222  0.0368  0.4199
11132TIP3    H154887   4.805   4.291  12.401 -1.0088 -1.3761  1.0417
11132TIP3    H254888   4.951   4.304  12.437 -0.9364  0.7689  0.1074
11133TIP3   OH254889   5.468   1.021  14.635  0.4317  0.3725 -0.9264
11133TIP3    H154890   5.405   1.082  14.673 -0.4648 -0.3477 -1.2256
11133TIP3    H254891   5.538   1.077  14.602  0.1529  1.1579 -0.2192
11134TIP3   OH254892   1.966   0.628  10.733  0.4779  0.2687 -0.0544
11134TIP3    H154893   1.929   0.546  10.767 -0.3355 -0.0442 -1.6168
11134TIP3    H254894   2.060   0.621  10.753  0.5360 -1.3724 -0.7401
11135TIP3   OH254895   0.495   3.542   2.287 -0.1070  0.6269  0.3190
11135TIP3    H154896   0.402   3.538   2.308 -0.9154  1.8561 -2.5401
11135TIP3    H254897   0.516   3.635   2.288  1.3405  0.3217  1.6996
11136TIP3   OH254898   6.760   3.658   6.007  0.2554 -0.5929  0.2195
11136TIP3    H154899   6.778   3.730   6.067  2.4858 -0.1242 -0.9041
11136TIP3    H254900   6.805   3.583   6.046 -0.6832 -0.9789  0.5631
11137TIP3   OH254901   0.860   5.152   2.562  0.2391 -0.3464 -0.3189
11137TIP3    H154902   0.941   5.103   2.579  0.5366  0.1141 -0.4085
11137TIP3    H254903   0.834   5.185   2.647  1.4604  1.5400 -0.6217
11138TIP3   OH254904   3.351   6.775   3.751 -0.6017  0.3619  0.4940
11138TIP3    H154905   3.431   6.730   3.777 -0.8096  0.1159  0.7174
11138TIP3    H254906   3.285   6.706   3.745 -0.7186  0.5121 -0.0229
11139TIP3   OH254907   0.354   2.205   0.185 -0.0460  1.0057  0.2436
11139TIP3    H154908   0.379   2.181   0.096  2.3379  0.3253  1.0340
11139TIP3    H254909   0.312   2.291   0.176 -0.3990  0.6809 -1.5774
11140TIP3   OH254910   6.043   6.713   1.321  0.1729  0.1453  0.1402
11140TIP3    H154911   5.965   6.656   1.327  0.7059 -0.6077  0.0627
11140TIP3    H254912   6.113   6.661   1.359  0.5483  1.0144  0.6514
11141TIP3   OH254913   5.859   1.729   2.295 -0.0654 -0.6639 -0.0461
11141TIP3    H154914   5.932   1.721   2.356  0.1260 -2.7058 -0.4658
11141TIP3    H254915   5.900   1.747   2.210 -0.0837 -0.9944 -0.1295
11142TIP3   OH254916   3.694   5.869   4.534 -0.2792  0.2500  0.7157
11142TIP3    H154917   3.665   5.944   4.484 -0.2264  0.2670  0.7114
11142TIP3    H254918   3.764   5.902   4.590  0.5257 -0.0398 -0.0978
11143TIP3   OH254919   1.328   1.400  14.832 -0.7642 -0.1366  0.5717
11143TIP3    H154920   1.340   1.305  14.827 -1.1757 -0.1437 -0.6043
11143TIP3    H254921   1.406   1.432  14.878 -0.6256 -1.0447  0.9805
11144TIP3   OH254922   3.325   0.410  14.133 -0.0420  0.0971  0.6295
11144TIP3    H154923   3.378   0.466  14.189  0.0940  1.0190 -0.3881
11144TIP3    H254924   3.267   0.363  14.193  0.6390  0.4577  1.5938
11145TIP3   OH254925   5.324   5.284  12.949 -0.1182 -0.2969  0.1874
11145TIP3    H154926   5.246   5.324  12.912  1.0306  0.3993 -1.5997
11145TIP3    H254927   5.384   5.275  12.875  1.1244 -1.7484  1.3088
11146TIP3   OH254928   1.710   2.020  16.731  0.3775  0.7642 -0.1433
11146TIP3    H154929   1.632   1.977  16.766  0.7787  1.1804  1.2989
11146TIP3    H254930   1.714   1.991  16.640 -1.1164  0.2557 -0.0728
11147TIP3   OH254931   1.460   4.735   3.352 -0.2294 -0.6935 -0.3966
11147TIP3    H154932   1.447   4.667   3.418 -1.5397 -1.1974 -1.1281
11147TIP3    H254933   1.478   4.688   3.271 -0.9640 -0.1860 -0.8739
11148TIP3   OH254934   1.792   6.380   0.027  0.0003 -0.1956  0.7017
11148TIP3    H154935   1.771   6.421   0.111  1.9768 -0.7516  1.5076
11148TIP3    H254936   1.712   6.391  -0.025 -0.9703  0.9244  2.3353
11149TIP3   OH254937   1.394   1.324  16.509 -0.0750  0.3451 -0.0052
11149TIP3    H154938   1.456   1.252  16.523  1.5702  1.7399  0.2298
11149TIP3    H254939   1.310   1.288  16.536  0.9405 -1.0208  1.5975
11150TIP3   OH254940   1.528   5.217  15.942 -1.3562 -0.1664 -0.0396
11150TIP3    H154941   1.586   5.291  15.926 -0.1375 -0.7931  1.2489
11150TIP3    H254942   1.516   5.176  15.857  0.4412 -0.2490 -0.2832
11151TIP3   OH254943   0.045   6.730   0.653 -0.2820  0.7955 -0.0541
11151TIP3    H154944   0.020   6.822   0.655  1.0508  1.2061 -0.7103
11151TIP3    H254945   0.111   6.725   0.583  0.7890 -0.3563  0.9815
11152TIP3   OH254946   5.603   0.244   3.902 -0.5697 -0.1089 -0.2898
11152TIP3    H154947   5.612   0.236   3.807 -0.1978 -0.9708 -0.1915
11152TIP3    H254948   5.664   0.180   3.937 -0.2671  0.6225  0.5497
11153TIP3   OH254949   2.262   6.483   4.366 -0.1627  0.0019 -0.5071
11153TIP3    H154950   2.298   6.544   4.430 -0.8286 -1.0337  0.8980
11153TIP3    H254951   2.309   6.401   4.381 -1.8196 -0.8817  0.1912
11154TIP3   OH254952   3.982   4.417   1.211  0.1130  0.7711 -0.2744
11154TIP3    H154953   4.039   4.472   1.264 -0.0662 -0.9155  1.7752
11154TIP3    H254954   4.016   4.328   1.223 -2.1583 -0.1390  0.0340
11155TIP3   OH254955   5.640   1.205  14.770 -0.0882  0.1313 -0.1826
11155TIP3    H154956   5.588   1.285  14.772  0.3685  0.4256  1.6534
11155TIP3    H254957   5.605   1.153  14.843  0.4745 -0.7792 -0.5566
11156TIP3   OH254958   6.774   2.024   6.254  0.7741  0.6986  0.3555
11156TIP3    H154959   6.751   2.111   6.287  0.0695  0.3580  0.7565
11156TIP3    H254960   6.800   1.975   6.332 -0.5794 -0.0072  0.3726
11157TIP3   OH254961   3.329   0.576   0.073  0.4076  0.1636 -0.2320
11157TIP3    H154962   3.367   0.496   0.037 -0.3848 -0.5977  0.5566
11157TIP3    H254963   3.394   0.644   0.055  1.3926 -0.7756 -0.3452
11158TIP3   OH254964   1.383   3.502  12.538 -0.4010 -0.3404  0.2419
11158TIP3    H154965   1.293   3.469  12.537 -0.7626  0.1854  3.6450
11158TIP3    H254966   1.385   3.564  12.611  2.2314  1.2925 -1.0517
11159TIP3   OH254967   0.725   2.371   3.800 -0.3024 -0.1424  0.6965
11159TIP3    H154968   0.672   2.395   3.876  0.0265  0.6302  0.6943
11159TIP3    H254969   0.793   2.313   3.835 -0.8295 -0.7092  0.7902
11160TIP3   OH254970   0.349   6.554   3.715 -0.9680 -0.2801 -0.1198
11160TIP3    H154971   0.422   6.534   3.656 -1.1371  1.4999 -0.9890
11160TIP3    H254972   0.276   6.575   3.657 -1.6244 -0.1457  0.7304
11161TIP3   OH254973   3.367   0.820  16.182 -0.0132 -0.3432  0.3027
11161TIP3    H154974   3.326   0.752  16.235 -0.8775 -0.3748 -0.3801
11161TIP3    H254975   3.311   0.827  16.105  1.6733 -0.9009 -1.0315
11162TIP3   OH254976   5.035   4.558  11.825  0.1153  0.2842 -0.0764
11162TIP3    H154977   5.104   4.611  11.785 -1.7219  2.1371 -1.0287
11162TIP3    H254978   5.003   4.611  11.898  1.2106 -1.6124  1.8826
11163TIP3   OH254979   2.955   0.330  13.810 -0.6709 -0.8225  0.2785
11163TIP3    H154980   2.894   0.343  13.736  0.0651  0.0210 -0.1998
11163TIP3    H254981   3.011   0.258  13.782 -0.7041 -0.8234  0.2141
11164TIP3   OH254982   0.825   6.425  15.391 -0.2196  0.2661 -0.6442
11164TIP3    H154983   0.730   6.423  15.407 -0.4485  3.0133 -1.0654
11164TIP3    H254984   0.833   6.423  15.295  0.2329 -0.9734 -0.5927
11165TIP3   OH254985   0.858   4.551   2.291 -0.1834  0.2804  0.2490
11165TIP3    H154986   0.951   4.573   2.295 -0.2410  0.5603  0.0998
11165TIP3    H254987   0.855   4.456   2.285  0.0623  0.1858  1.4241
11166TIP3   OH254988   3.572   6.364  14.454  0.5379 -0.0473 -0.4449
11166TIP3    H154989   3.657   6.351  14.411  0.2655  0.4990 -1.1599
11166TIP3    H254990   3.527   6.280  14.443  0.7222 -0.1198 -0.6484
11167TIP3   OH254991   5.157   3.707  12.591 -0.1337 -0.4726 -0.6049
11167TIP3    H154992   5.084   3.706  12.653  1.3649  1.9376  1.3935
11167TIP3    H254993   5.142   3.784  12.537 -0.7166 -1.8116 -2.4369
11168TIP3   OH254994   3.040   2.682   3.300  0.2946 -0.2156  0.1792
11168TIP3    H154995   3.011   2.736   3.227 -1.9736 -0.6944  0.6486
11168TIP3    H254996   2.982   2.707   3.372  0.9883 -1.3646  1.1630
11169TIP3   OH254997   1.811   4.241  15.598  0.0564  0.0339 -0.1864
11169TIP3    H154998   1.807   4.175  15.667 -2.3865 -0.1880 -0.4335
11169TIP3    H254999   1.819   4.324  15.643  1.7021 -0.2788  0.1808
11170TIP3   OH255000   2.701   5.587  13.212  0.0151 -0.1317  0.0581
11170TIP3    H155001   2.686   5.655  13.278  0.8547 -1.3233  1.5532
11170TIP3    H255002   2.755   5.522  13.258 -1.2126 -2.0694 -1.1536
11171TIP3   OH255003   4.868   1.141  12.579  0.4949 -0.3699 -0.0730
11171TIP3    H155004   4.911   1.104  12.657  1.3247 -0.4415 -0.5599
11171TIP3    H255005   4.922   1.113  12.506 -0.5713 -0.7409 -0.7464
11172TIP3   OH255006   6.069   3.643   3.069 -0.1034  0.2501 -0.2011
11172TIP3    H155007   5.976   3.622   3.078 -0.4020  1.3699 -0.4396
11172TIP3    H255008   6.079   3.727   3.115  0.8250  0.0531 -0.0189
11173TIP3   OH255009   5.408   5.353   0.822 -0.7398 -0.2125 -0.3879
11173TIP3    H155010   5.427   5.418   0.891  1.7280  1.1397 -2.1850
11173TIP3    H255011   5.339   5.394   0.770  0.5383  0.8624 -1.2880
11174TIP3   OH255012   5.483   1.142   0.105  0.1567  0.2219  0.3603
11174TIP3    H155013   5.479   1.152   0.200  0.4108 -0.4955  0.4514
11174TIP3    H255014   5.392   1.140   0.077  0.0381 -1.3600  0.7931
11175TIP3   OH255015   2.923   1.308  11.600  0.1806  0.0990 -0.1239
11175TIP3    H155016   2.951   1.301  11.691 -1.5164  0.1019  0.4336
11175TIP3    H255017   2.884   1.223  11.580  0.8050 -0.0067 -0.9619
11176TIP3   OH255018   4.037   6.416   3.310  0.2600  0.4467 -0.5765
11176TIP3    H155019   4.016   6.334   3.356 -0.6401  0.3613 -1.1123
11176TIP3    H255020   4.081   6.388   3.230  2.3253  0.6189  0.4383
11177TIP3   OH255021   0.090   0.998  11.637  0.0025 -0.0859 -0.1770
11177TIP3    H155022   0.124   1.030  11.721 -0.1676  1.2570 -0.5950
11177TIP3    H255023   0.001   0.968  11.658 -1.0832  2.7297 -0.3081
11178TIP3   OH255024   6.185   3.876  14.033  0.0515 -0.7461 -0.1437
11178TIP3    H155025   6.179   3.884  14.128 -0.5156  0.1065 -0.2410
11178TIP3    H255026   6.237   3.952  14.006 -0.4184 -0.5716 -0.5743
11179TIP3   OH255027   6.017   5.335  12.845 -0.0560  0.3784  0.2181
11179TIP3    H155028   6.078   5.336  12.919  0.3982 -1.1418 -0.1027
11179TIP3    H255029   6.073   5.336  12.767 -0.5101  1.1617 -0.1102
11180TIP3   OH255030   0.415   4.589  11.898  0.6029  0.8115  0.6386
11180TIP3    H155031   0.340   4.595  11.839  1.2017 -2.0486 -0.5975
11180TIP3    H255032   0.465   4.669  11.883  0.1074  0.7153 -1.8596
11181TIP3   OH255033   3.268   1.843   5.599 -0.4693 -0.1369  0.0248
11181TIP3    H155034   3.288   1.801   5.515 -1.2502  0.0104 -0.2447
11181TIP3    H255035   3.317   1.792   5.663  1.6774  0.8878 -0.6988
11182TIP3   OH255036   3.024   0.162  16.612 -0.0808  0.3692  0.0343
11182TIP3    H155037   2.945   0.215  16.624 -0.2056  0.0310  0.7333
11182TIP3    H255038   3.096   0.224  16.623 -0.2335  0.9150 -1.7146
11183TIP3   OH255039   5.199   0.855   3.652  0.2275  0.0000 -0.5599
11183TIP3    H155040   5.224   0.834   3.562  2.6355  1.3508 -0.2852
11183TIP3    H255041   5.234   0.942   3.668 -1.9628  0.7081  1.0658
11184TIP3   OH255042   0.738   1.238   1.028 -0.2495  0.2528 -0.0360
11184TIP3    H155043   0.660   1.184   1.028 -0.0984  0.0309 -0.2945
11184TIP3    H255044   0.789   1.208   1.103 -0.3939  0.3742  0.1120
11185TIP3   OH255045   1.893   4.374  16.850 -0.3809  0.0911  0.0715
11185TIP3    H155046   1.924   4.448  16.798 -0.8090  0.6640  0.6058
11185TIP3    H255047   1.874   4.412  16.936  0.1762 -0.7999  0.6115
11186TIP3   OH255048   5.253   6.075  13.870  0.3888 -0.0816 -0.1169
11186TIP3    H155049   5.317   6.004  13.865 -0.1199 -0.4626 -1.5935
11186TIP3    H255050   5.215   6.081  13.782 -1.1559  0.5553  0.5468
11187TIP3   OH255051   5.806   1.742  13.892 -0.2193 -0.0974  0.5445
11187TIP3    H155052   5.791   1.664  13.946 -0.5531 -1.6756 -1.6796
11187TIP3    H255053   5.719   1.775  13.872 -0.2057 -0.6136 -0.4559
11188TIP3   OH255054   0.465   0.827  12.980  0.1519  0.1336 -1.1085
11188TIP3    H155055   0.370   0.820  12.991  0.2557 -0.1762 -0.3699
11188TIP3    H255056   0.476   0.886  12.905 -0.6374 -0.4979 -1.7508
11189TIP3   OH255057   5.163   5.931  11.576 -0.0820  0.1320 -0.1514
11189TIP3    H155058   5.069   5.941  11.558  0.0963 -0.4722 -1.5936
11189TIP3    H255059   5.168   5.917  11.671 -1.3371  1.2598  0.1114
11190TIP3   OH255060   4.811   0.264  13.203 -0.8206 -0.1077 -0.0409
11190TIP3    H155061   4.741   0.274  13.139 -1.9944  0.2185  1.2417
11190TIP3    H255062   4.791   0.181  13.247 -1.3795  0.7546  1.4256
11191TIP3   OH255063   1.342   6.507  13.842  0.4663 -0.2760 -0.6736
11191TIP3    H155064   1.251   6.519  13.815  0.4036 -0.1581 -0.4035
11191TIP3    H255065   1.379   6.595  13.843  0.9896 -0.4444 -2.2222
11192TIP3   OH255066   5.604   1.718  16.101  0.5544  0.5244 -0.5572
11192TIP3    H155067   5.690   1.757  16.118  0.6765 -0.2060  0.6209
11192TIP3    H255068   5.544   1.768  16.157  0.6072 -0.4970  0.4509
11193TIP3   OH255069   1.533   0.712   3.777 -0.3579 -0.6885  0.2314
11193TIP3    H155070   1.542   0.805   3.798 -0.7996 -0.5391 -0.2224
11193TIP3    H255071   1.439   0.696   3.776 -0.3817 -0.6695 -1.6241
11194TIP3   OH255072   5.606   6.011   4.385 -0.0830 -0.4241 -0.0246
11194TIP3    H155073   5.603   5.960   4.466 -1.4723  0.6408  0.6425
11194TIP3    H255074   5.572   5.952   4.318 -1.5429 -0.4501  0.7082
11195TIP3   OH255075   1.679   6.653   4.912 -0.6740  0.6473 -0.1021
11195TIP3    H155076   1.692   6.719   4.980  3.4594  0.3447 -0.3493
11195TIP3    H255077   1.685   6.569   4.958  1.5427  0.4515 -0.6226
11196TIP3   OH255078   2.502   1.390   4.076 -0.3919 -0.2691 -0.2396
11196TIP3    H155079   2.534   1.430   4.157 -0.4508 -0.8134  0.0544
11196TIP3    H255080   2.536   1.301   4.078 -1.2478 -0.6076 -0.3152
11197TIP3   OH255081   4.189   6.020  16.856 -0.1252 -0.4878  0.1095
11197TIP3    H155082   4.268   6.025  16.910 -0.9425 -2.6060  1.6638
11197TIP3    H255083   4.125   6.074  16.902 -0.2629 -0.7270  0.2014
11198TIP3   OH255084   5.830   0.997  15.258  0.1196 -0.3213  0.2576
11198TIP3    H155085   5.807   0.908  15.287  0.7386 -0.9556 -1.0956
11198TIP3    H255086   5.905   1.021  15.312 -0.1646 -0.5530  0.7618
11199TIP3   OH255087   4.899   5.624  12.329 -0.5584  0.2242  0.7869
11199TIP3    H155088   4.976   5.578  12.295 -2.3829 -1.6094 -1.2112
11199TIP3    H255089   4.931   5.712  12.351  1.9971 -0.3143 -0.4095
11200TIP3   OH255090   5.703   3.757  16.879 -1.1588  0.0981 -0.1894
11200TIP3    H155091   5.642   3.828  16.899  1.2388  2.2051  0.1702
11200TIP3    H255092   5.743   3.736  16.964 -0.4822 -0.3169 -0.6009
11201TIP3   OH255093   5.666   6.539  14.694 -0.0080 -0.1160  0.3241
11201TIP3    H155094   5.677   6.520  14.601  0.4793  1.5279  0.0071
11201TIP3    H255095   5.664   6.453  14.736  0.4125 -0.8740 -1.1221
11202TIP3   OH255096   5.058   5.323   5.878 -0.1923  0.0919  0.3863
11202TIP3    H155097   4.982   5.380   5.867  0.8680  1.3153 -1.0604
11202TIP3    H255098   5.128   5.381   5.907  0.0690 -1.1259  2.3311
11203TIP3   OH255099   1.886   5.912   4.560  0.2808 -0.4304 -0.1015
11203TIP3    H155100   1.969   5.919   4.513  0.3089  3.6882  0.1560
11203TIP3    H255101   1.909   5.929   4.652 -0.6522 -1.0519  0.2694
11204TIP3   OH255102   6.315   1.194  12.504 -0.4345  0.0387 -0.1996
11204TIP3    H155103   6.371   1.117  12.520 -0.5903 -0.3475 -1.4574
11204TIP3    H255104   6.263   1.202  12.584 -2.0568 -2.5725 -0.8675
11205TIP3   OH255105   3.536   4.606   3.235 -0.1033 -0.1162 -0.5182
11205TIP3    H155106   3.562   4.562   3.316  1.2628 -0.0024 -0.8580
11205TIP3    H255107   3.513   4.534   3.176 -0.8643 -0.2101 -0.1272
11206TIP3   OH255108   2.225   3.115   4.930  0.7558  0.3543 -0.5271
11206TIP3    H155109   2.270   3.192   4.965  1.6091  0.9507 -2.7561
11206TIP3    H255110   2.295   3.055   4.904  0.2519  0.4139 -2.1654
11207TIP3   OH255111   3.850   4.721   0.750  0.6526  0.2222 -0.0836
11207TIP3    H155112   3.833   4.787   0.683 -0.8008 -0.8326 -0.8221
11207TIP3    H255113   3.892   4.649   0.703  0.1048 -0.3141  0.2342
11208TIP3   OH255114   5.199   6.317  14.018  0.1911 -0.4504  0.4286
11208TIP3    H155115   5.216   6.239  13.966 -1.2103 -0.3204 -0.2951
11208TIP3    H255116   5.284   6.345  14.051  0.6198 -2.7709  1.4403
11209TIP3   OH255117   5.594   1.454   2.075  0.6559  0.5210 -0.1197
11209TIP3    H155118   5.665   1.481   2.132  0.8793 -0.4161  0.0551
11209TIP3    H255119   5.567   1.369   2.108  0.7163  0.0077 -1.3258
11210TIP3   OH255120   1.741   4.605  12.875 -1.3053 -0.2519 -0.3322
11210TIP3    H155121   1.790   4.633  12.952  0.6027  0.5778 -1.7647
11210TIP3    H255122   1.806   4.563  12.819 -2.6142 -0.7542 -1.5490
11211TIP3   OH255123   3.481   2.849   6.365  0.3579 -0.2338 -0.2969
11211TIP3    H155124   3.491   2.755   6.346 -2.8224 -0.4747 -1.2670
11211TIP3    H255125   3.389   2.860   6.387  0.5861  2.7327 -0.3952
11212TIP3   OH255126   2.531   0.495  15.115 -0.2291 -0.2936  0.5999
11212TIP3    H155127   2.513   0.401  15.111 -2.0035 -0.0923  2.2326
11212TIP3    H255128   2.618   0.505  15.077 -0.5961 -2.3902 -0.9694
11213TIP3   OH255129   6.425   0.908   0.211 -0.5411 -0.2834 -0.0887
11213TIP3    H155130   6.344   0.955   0.232 -1.3457 -0.9047 -1.6206
11213TIP3    H255131   6.461   0.955   0.136 -0.0467 -0.6600 -0.0892
11214TIP3   OH255132   2.056   0.432  13.316 -0.1611  0.3977 -0.3989
11214TIP3    H155133   2.110   0.445  13.394  0.2359  0.6845 -0.7141
11214TIP3    H255134   2.079   0.344  13.286 -0.8390  0.0084  0.2030
11215TIP3   OH255135   2.490   6.271   3.560  0.7744  0.1144 -0.3676
11215TIP3    H155136   2.536   6.220   3.626  0.1069  0.0864  0.0817
11215TIP3    H255137   2.414   6.217   3.537  0.7807  0.3079 -0.8622
11216TIP3   OH255138   5.273   1.239   4.111  0.0505  0.1682 -0.2837
11216TIP3    H155139   5.273   1.181   4.187 -0.6124  0.1071 -0.3244
11216TIP3    H255140   5.329   1.312   4.136  0.8053 -0.4325 -0.1882
11217TIP3   OH255141   6.287   3.661  15.552  0.2531  0.1214 -0.0034
11217TIP3    H155142   6.346   3.722  15.507 -0.4430 -0.1800 -1.4028
11217TIP3    H255143   6.283   3.585  15.494 -1.6796  0.2390 -0.1114
11218TIP3   OH255144   4.415   0.659  13.714  0.1318 -0.4458 -1.0252
11218TIP3    H155145   4.439   0.569  13.737  0.6846 -0.5471 -1.9589
11218TIP3    H255146   4.498   0.701  13.690  0.2481  1.0280  1.6136
11219TIP3   OH255147   0.660   6.621   2.346 -0.0541  0.3336 -0.5893
11219TIP3    H155148   0.666   6.650   2.255  0.0203 -0.5536 -0.8736
11219TIP3    H255149   0.736   6.565   2.359  1.1124  2.1041  0.6528
11220TIP3   OH255150   0.896   6.570   1.118 -0.3011 -0.1032  0.8516
11220TIP3    H155151   0.978   6.551   1.073  0.2585  0.2451  1.7027
11220TIP3    H255152   0.869   6.656   1.084 -0.3057 -0.2055  0.5936
11221TIP3   OH255153   2.745   1.524   2.239 -0.1260  0.2206 -0.1458
11221TIP3    H155154   2.840   1.535   2.243 -0.0364 -0.8690  1.1377
11221TIP3    H255155   2.710   1.613   2.250  0.7128  0.4098  1.0910
11222TIP3   OH255156   0.212   0.576  12.260 -0.0042  0.5172  0.3725
11222TIP3    H155157   0.279   0.634  12.296 -0.7303  1.5387  0.1387
11222TIP3    H255158   0.173   0.534  12.337  0.7632  0.0585  0.5206
11223TIP3   OH255159   3.608   1.908   0.399  0.2524 -0.0371  0.1246
11223TIP3    H155160   3.514   1.894   0.402  0.1488  0.5841 -0.0644
11223TIP3    H255161   3.621   1.996   0.434  0.7575 -0.1040  0.1200
11224TIP3   OH255162   5.700   5.278   0.736  0.1921 -0.2172  0.2405
11224TIP3    H155163   5.717   5.272   0.830 -0.9412 -1.2028  0.4106
11224TIP3    H255164   5.604   5.283   0.729  0.2412 -0.5091 -0.8700
11225TIP3   OH255165   3.291   0.795   3.284  0.6922 -0.1373 -0.0276
11225TIP3    H155166   3.222   0.836   3.232  0.0080 -0.6176  0.4672
11225TIP3    H255167   3.301   0.852   3.360  1.2659  0.2483 -0.3925
11226TIP3   OH255168   6.569   0.719   4.897  0.9302  0.5577  1.0976
11226TIP3    H155169   6.642   0.779   4.883  2.0118 -0.8039  0.6955
11226TIP3    H255170   6.601   0.658   4.963 -0.3052  0.6510  1.8118
11227TIP3   OH255171   4.353   5.037   3.734  0.6160 -0.6977 -0.5511
11227TIP3    H155172   4.384   4.967   3.792  1.4259 -0.5245 -0.7580
11227TIP3    H255173   4.429   5.057   3.679  0.7322  1.0578  0.1915
11228TIP3   OH255174   0.620   6.334   5.595 -0.0692 -0.0905  0.3101
11228TIP3    H155175   0.599   6.425   5.615  0.7458  1.0123 -3.1336
11228TIP3    H255176   0.580   6.318   5.510  0.3014 -2.8206  0.5406
11229TIP3   OH255177   0.919   3.476  16.212 -0.2461  0.0478 -0.1351
11229TIP3    H155178   0.852   3.447  16.150  0.7475  1.6651 -2.1100
11229TIP3    H255179   1.000   3.438  16.179  0.1149 -0.3255  1.1242
11230TIP3   OH255180   5.435   1.016  13.144 -0.2854 -0.0580 -0.0163
11230TIP3    H155181   5.429   1.088  13.207 -0.7590  0.6947 -0.8920
11230TIP3    H255182   5.491   1.051  13.074 -1.2622 -0.2015 -0.8864
11231TIP3   OH255183   5.087   1.228   3.175  0.1570  0.1400 -0.1750
11231TIP3    H155184   5.144   1.304   3.172  2.3975 -1.4817 -0.8202
11231TIP3    H255185   5.003   1.260   3.142  1.1488  2.2162 -0.8514
11232TIP3   OH255186   0.482   2.891  16.418  0.0401  0.2181  0.2460
11232TIP3    H155187   0.521   2.926  16.338 -1.1270 -1.3203 -1.0611
11232TIP3    H255188   0.544   2.823  16.446  0.2848  0.5373  0.5009
11233TIP3   OH255189   6.740   5.993  14.008  0.3536  0.2836  0.5283
11233TIP3    H155190   6.798   5.939  14.062 -0.6490 -0.5801  0.7834
11233TIP3    H255191   6.711   6.063  14.067  1.7012  1.1738  0.1793
11234TIP3   OH255192   4.602   3.393  15.595 -0.4566 -0.2526  0.2025
11234TIP3    H155193   4.630   3.427  15.679  2.9156 -0.2439 -0.7874
11234TIP3    H255194   4.622   3.299  15.600 -0.2714 -0.2576 -0.5433
11235TIP3   OH255195   2.722   1.638   6.446 -0.1863 -0.7548 -0.5352
11235TIP3    H155196   2.736   1.722   6.489 -0.7350 -1.8282  1.9681
11235TIP3    H255197   2.802   1.588   6.464  0.3171 -0.6668 -2.3668
11236TIP3   OH255198   1.310   6.129   0.360 -0.2253  0.4497  0.1563
11236TIP3    H155199   1.245   6.072   0.320  0.4268 -0.2524  0.0917
11236TIP3    H255200   1.392   6.080   0.356  0.3396  1.3708  0.1358
11237TIP3   OH255201   3.734   6.815  11.871 -0.0765 -0.1291 -0.0129
11237TIP3    H155202   3.683   6.755  11.925 -0.3338  1.0298  1.0723
11237TIP3    H255203   3.689   6.899  11.879  2.6959  1.3439  2.1972
11238TIP3   OH255204   2.257   2.729   1.663  0.5578  0.2035 -0.0191
11238TIP3    H155205   2.340   2.757   1.700 -0.3507  1.3869  1.2130
11238TIP3    H255206   2.213   2.810   1.638 -1.0919 -0.2346  1.2919
11239TIP3   OH255207   4.481   2.535  13.864  0.0846  0.3757  0.1644
11239TIP3    H155208   4.414   2.592  13.901 -1.1524 -1.6489  1.2668
11239TIP3    H255209   4.561   2.559  13.910 -0.5095  0.9146  0.9469
11240TIP3   OH255210   6.214   0.518   1.428 -0.1765  0.5101  0.8360
11240TIP3    H155211   6.128   0.498   1.392  0.2947 -1.1109  0.5584
11240TIP3    H255212   6.208   0.493   1.520 -0.4926  1.9641  1.2327
11241TIP3   OH255213   4.568   2.882   1.851 -0.5524  0.2084  0.0302
11241TIP3    H155214   4.628   2.847   1.785  0.7450 -0.6654  1.6006
11241TIP3    H255215   4.587   2.976   1.852  0.4155  0.0216  0.1343
11242TIP3   OH255216   2.517   2.054   5.793  0.4318  0.1995 -0.1410
11242TIP3    H155217   2.494   2.017   5.707  1.2666  2.0077 -1.2132
11242TIP3    H255218   2.434   2.084   5.829  0.1643  0.1178 -0.6795
11243TIP3   OH255219   0.819   5.930  15.715  0.2504  0.6345  0.2657
11243TIP3    H155220   0.744   5.967  15.762  1.0636  2.0171  0.5327
11243TIP3    H255221   0.833   5.990  15.642  0.1796 -0.4465 -0.6472
11244TIP3   OH255222   3.264   6.002  12.503 -0.4144 -0.3165  0.7871
11244TIP3    H155223   3.192   5.949  12.538  1.3588 -0.8221  4.0795
11244TIP3    H255224   3.271   6.076  12.564 -0.0767  1.4537 -1.2670
11245TIP3   OH255225   6.238   0.110   0.539 -0.0395 -0.2932  0.3205
11245TIP3    H155226   6.197   0.117   0.625  0.0996  0.0495  0.3602
11245TIP3    H255227   6.265   0.019   0.533 -0.0289 -0.3127  0.6478
11246TIP3   OH255228   6.693   2.548  14.856  0.2093 -0.6465  0.9193
11246TIP3    H155229   6.754   2.483  14.890  1.3466  0.9647  2.1236
11246TIP3    H255230   6.722   2.630  14.895 -1.9298  0.3966  0.4296
11247TIP3   OH255231   4.808   6.760   3.306  0.1605  0.0250 -0.0716
11247TIP3    H155232   4.894   6.791   3.334 -0.0604 -0.3072  1.0012
11247TIP3    H255233   4.752   6.837   3.314 -0.1817 -0.3818  1.6795
11248TIP3   OH255234   2.267   4.429   2.789  0.2105 -0.3333 -0.1320
11248TIP3    H155235   2.214   4.350   2.798 -0.2385  0.0485  0.6896
11248TIP3    H255236   2.223   4.494   2.844  0.1399  0.7110 -1.3753
11249TIP3   OH255237   3.364   4.176  15.854 -0.0019 -0.1399 -0.6645
11249TIP3    H155238   3.280   4.212  15.825 -1.0927  0.1545  2.4191
11249TIP3    H255239   3.428   4.243  15.833 -0.5091 -0.2825 -2.8923
11250TIP3   OH255240   1.437   6.034   1.034 -0.5403 -0.5648  0.1653
11250TIP3    H155241   1.466   5.948   1.004  2.7336  0.8051 -1.1564
11250TIP3    H255242   1.501   6.058   1.101 -1.9065  0.5363  1.1256
11251TIP3   OH255243   4.470   1.376  12.117  0.0503 -0.1375  0.0682
11251TIP3    H155244   4.521   1.436  12.171  0.0907  0.4463 -0.6075
11251TIP3    H255245   4.427   1.431  12.052  0.7888 -0.8983 -1.1275
11252TIP3   OH255246   5.743   2.118  14.084  0.1372 -0.0594  0.0439
11252TIP3    H155247   5.755   2.173  14.162  2.4528 -1.6724  0.9324
11252TIP3    H255248   5.793   2.162  14.015  0.8685 -0.3310  0.3909
11253TIP3   OH255249   4.093   4.100   2.419  0.6071  0.5130 -0.5643
11253TIP3    H155250   4.173   4.057   2.390 -0.6405 -0.6660 -2.5026
11253TIP3    H255251   4.027   4.031   2.418 -0.4325  1.3984  1.1831
11254TIP3   OH255252   5.341   3.397  13.056 -0.1031 -0.7444  0.2471
11254TIP3    H155253   5.329   3.428  12.966 -2.0353 -2.1194 -0.0362
11254TIP3    H255254   5.253   3.391  13.091  0.5883 -0.7251  2.1038
11255TIP3   OH255255   5.057   5.156  15.397 -0.3262  0.3782 -0.1160
11255TIP3    H155256   5.135   5.103  15.417 -0.5835 -0.6851 -1.7674
11255TIP3    H255257   5.051   5.217  15.470  0.3125 -1.4900  1.6132
11256TIP3   OH255258   3.844   2.436   6.100 -0.3508 -0.4269  0.4401
11256TIP3    H155259   3.914   2.502   6.106 -0.1624 -0.5493 -0.3977
11256TIP3    H255260   3.770   2.483   6.062  0.0579 -0.8972 -0.9872
11257TIP3   OH255261   2.747   0.875   0.219  0.4664  0.4048  0.5808
11257TIP3    H155262   2.657   0.902   0.238  0.1649 -0.4467  0.4151
11257TIP3    H255263   2.784   0.854   0.305  0.7615  1.4660  0.7319
11258TIP3   OH255264   6.138   4.804   0.361 -0.2444 -0.1575  0.4323
11258TIP3    H155265   6.063   4.855   0.331 -1.0380 -1.1179  0.7178
11258TIP3    H255266   6.169   4.758   0.283  1.2466  1.6344 -0.1095
11259TIP3   OH255267   4.281   0.358  16.848  0.5322 -0.5696 -0.0553
11259TIP3    H155268   4.235   0.425  16.798  3.2006  0.6755 -0.9950
11259TIP3    H255269   4.253   0.373  16.938 -2.4324 -1.2539 -0.7331
11260TIP3   OH255270   3.851   5.147   5.479 -0.3420 -0.8934  0.1355
11260TIP3    H155271   3.815   5.202   5.548 -2.6901 -0.5496 -1.2669
11260TIP3    H255272   3.828   5.192   5.398  0.2600 -2.4704 -0.9603
11261TIP3   OH255273   3.136   4.410  15.029 -0.1921 -0.7601 -0.3662
11261TIP3    H155274   3.076   4.402  14.954 -0.5562  0.4422 -0.2281
11261TIP3    H255275   3.083   4.452  15.097  0.6273 -0.2845 -0.0150
11262TIP3   OH255276   6.452   4.535   2.246 -0.6119  0.2886 -0.4573
11262TIP3    H155277   6.492   4.448   2.245  0.8485  0.8881  0.9144
11262TIP3    H255278   6.359   4.518   2.230 -0.1148 -1.3301 -1.9980
11263TIP3   OH255279   6.426   4.010  11.122 -0.8266 -0.4009 -0.1385
11263TIP3    H155280   6.451   3.994  11.032 -0.5393 -0.0612 -0.1232
11263TIP3    H255281   6.406   3.924  11.158  2.0475 -0.9848  0.3625
11264TIP3   OH255282   1.963   2.689  13.075 -0.1386 -0.7758  0.1361
11264TIP3    H155283   1.913   2.670  12.996  1.3393 -1.1404 -0.7444
11264TIP3    H255284   1.914   2.760  13.117 -0.1399  0.5189 -1.9042
11265TIP3   OH255285   2.561   6.724  15.867 -0.2558  0.4289 -0.2297
11265TIP3    H155286   2.568   6.775  15.787 -0.1693  1.6170  0.5054
11265TIP3    H255287   2.523   6.785  15.931  1.6990  0.2126  1.2266
11266TIP3   OH255288   6.282   1.496   5.365  0.1298  0.4274  0.0607
11266TIP3    H155289   6.193   1.485   5.333 -0.1311 -0.4034  1.0258
11266TIP3    H255290   6.281   1.581   5.410 -0.3953  0.0724  0.7420
11267TIP3   OH255291   4.746   6.154   4.006 -0.0878  0.2279  0.1956
11267TIP3    H155292   4.654   6.165   3.984 -0.3565 -2.2134 -0.0823
11267TIP3    H255293   4.746   6.107   4.089  0.8868 -1.0746 -0.5147
11268TIP3   OH255294   0.575   3.120   4.841  0.2447  0.4595  0.0586
11268TIP3    H155295   0.605   3.046   4.789  1.1273  0.4217  0.6030
11268TIP3    H255296   0.593   3.095   4.932  0.4887  1.3004  0.2531
11269TIP3   OH255297   1.873   3.791  12.461 -0.4167 -0.1033  0.4794
11269TIP3    H155298   1.779   3.770  12.458 -0.0799 -1.7333 -0.2787
11269TIP3    H255299   1.880   3.865  12.520 -1.9918 -1.1203  2.0240
11270TIP3   OH255300   3.299   6.311   4.743  0.0272  0.3181 -0.0063
11270TIP3    H155301   3.346   6.247   4.796  1.3021  0.5437 -0.8148
11270TIP3    H255302   3.332   6.396   4.773  0.6527  0.4529 -1.0167
11271TIP3   OH255303   3.863   4.666   4.247 -0.3523 -0.0208 -0.0814
11271TIP3    H155304   3.792   4.607   4.223  0.1575 -0.7101  0.0803
11271TIP3    H255305   3.931   4.650   4.182 -0.1169  0.2223  0.0993
11272TIP3   OH255306   5.472   1.916   1.412  0.4205 -0.0714 -0.2025
11272TIP3    H155307   5.473   1.870   1.328 -0.5092 -3.3929  1.4250
11272TIP3    H255308   5.528   1.863   1.469  0.2327  1.5156  1.5449
11273TIP3   OH255309   4.529   3.749   6.027  0.0450 -0.3090 -0.4987
11273TIP3    H155310   4.433   3.751   6.037 -0.1719 -1.4128 -2.0737
11273TIP3    H255311   4.551   3.838   5.999 -0.6439 -0.3051 -1.0714
11274TIP3   OH255312   2.739   4.351  15.674 -0.0054 -0.4985 -0.2646
11274TIP3    H155313   2.757   4.282  15.738  0.2676 -0.6517 -0.5020
11274TIP3    H255314   2.666   4.317  15.623 -0.3339 -0.3031  0.0711
11275TIP3   OH255315   1.731   5.531  12.988  0.2432 -0.1924 -0.0754
11275TIP3    H155316   1.644   5.569  12.977  0.0507 -0.9017 -1.1930
11275TIP3    H255317   1.728   5.488  13.074 -0.2218  0.5020  0.2663
11276TIP3   OH255318   3.619   1.595  14.825 -0.0848 -0.4137 -0.6171
11276TIP3    H155319   3.573   1.678  14.838 -0.2329 -0.0521 -3.0451
11276TIP3    H255320   3.704   1.607  14.866 -1.0011 -0.0244  1.2960
11277TIP3   OH255321   0.588   3.251  13.481  0.0456 -0.2664 -0.5504
11277TIP3    H155322   0.641   3.202  13.543 -1.2989  0.2623  1.0908
11277TIP3    H255323   0.636   3.245  13.398  2.1913 -0.5284  0.6387
11278TIP3   OH255324   3.864   0.366  12.971 -0.0647  0.9166 -0.0990
11278TIP3    H155325   3.784   0.413  12.996  0.2892  1.7205 -0.4277
11278TIP3    H255326   3.888   0.404  12.887  2.4353  3.0233  1.4111
11279TIP3   OH255327   0.342   6.340  13.155  0.3736  0.2453 -0.1551
11279TIP3    H155328   0.296   6.412  13.198  2.0927  1.8432 -0.8361
11279TIP3    H255329   0.278   6.302  13.094  0.0725  2.7798 -1.5462
11280TIP3   OH255330   3.133   0.133   0.656 -0.7022 -0.3383 -0.4390
11280TIP3    H155331   3.141   0.184   0.736 -0.3555  0.7363 -1.1346
11280TIP3    H255332   3.220   0.139   0.615 -0.4141 -2.1407 -0.1738
11281TIP3   OH255333   0.400   3.793   0.263 -0.3282 -0.1665 -0.4597
11281TIP3    H155334   0.361   3.864   0.213 -0.2268 -0.3409 -0.7910
11281TIP3    H255335   0.419   3.726   0.197  1.0552  0.1380 -0.3959
11282TIP3   OH255336   5.513   1.675   4.605 -0.3921 -0.4809  0.5743
11282TIP3    H155337   5.510   1.746   4.540  1.5976 -0.0186  0.9162
11282TIP3    H255338   5.515   1.720   4.689 -0.0467 -0.9670  0.8317
11283TIP3   OH255339   4.177   1.847   1.102  0.0262  0.5908  0.5938
11283TIP3    H155340   4.121   1.864   1.026 -0.5858  1.5942  1.2501
11283TIP3    H255341   4.245   1.914   1.098  0.5035  0.1032  0.4533
11284TIP3   OH255342   1.154   2.567   4.241  0.1360 -0.1768 -0.0651
11284TIP3    H155343   1.164   2.477   4.272 -0.5193 -1.1052 -2.3469
11284TIP3    H255344   1.161   2.561   4.146  0.7211  2.2951 -0.2635
11285TIP3   OH255345   5.064   5.707  13.108 -0.0154  0.0934  0.1991
11285TIP3    H155346   5.158   5.685  13.111  0.1814  0.8363 -0.2961
11285TIP3    H255347   5.040   5.724  13.199 -0.2934 -2.5828  0.7044
11286TIP3   OH255348   5.692   1.777   3.893  0.2318 -1.4867  0.1434
11286TIP3    H155349   5.612   1.743   3.933 -0.8032 -0.9502 -1.3423
11286TIP3    H255350   5.698   1.731   3.809  0.0452  0.2566 -0.8913
11287TIP3   OH255351   6.201   1.620   3.909  0.0923  0.3806 -0.4035
11287TIP3    H155352   6.227   1.692   3.967  1.9325  1.3925 -2.3533
11287TIP3    H255353   6.120   1.651   3.867  0.0703  0.6621 -0.1572
11288TIP3   OH255354   3.134   4.874   3.493 -0.1254  0.3414 -0.2827
11288TIP3    H155355   3.208   4.836   3.447  0.8018  0.8578  0.7337
11288TIP3    H255356   3.061   4.869   3.430  0.7931 -0.0458 -1.3467
11289TIP3   OH255357   3.586   4.102   2.694 -0.0963  0.1523  0.0500
11289TIP3    H155358   3.501   4.115   2.652 -1.2201  0.8618  2.4237
11289TIP3    H255359   3.619   4.191   2.709  1.6828 -0.0952 -1.8669
11290TIP3   OH255360   2.603   1.635  12.701 -0.1803  0.1968  0.0727
11290TIP3    H155361   2.577   1.610  12.612  2.0773  1.7970 -1.1257
11290TIP3    H255362   2.535   1.696  12.730 -0.0752  0.9427 -1.2181
11291TIP3   OH255363   2.399   0.796   0.043  0.0912  0.2126  0.3552
11291TIP3    H155364   2.407   0.785  -0.052  1.8417 -1.7925  0.6391
11291TIP3    H255365   2.379   0.889   0.055  0.5606  0.6816 -1.9513
11292TIP3   OH255366   3.338   2.613  16.869  0.2618  0.0138 -0.0675
11292TIP3    H155367   3.409   2.560  16.833 -0.9207 -0.9986 -0.9846
11292TIP3    H255368   3.333   2.689  16.811  0.9214  0.3778  0.3268
11293TIP3   OH255369   1.975   0.686   2.832 -0.1005  0.1522  0.7840
11293TIP3    H155370   2.006   0.732   2.755  1.8903 -2.6140 -0.2520
11293TIP3    H255371   1.910   0.624   2.799 -0.3473 -0.0427  1.5875
11294TIP3   OH255372   5.333   3.609   1.606 -0.1590  0.0665  0.0149
11294TIP3    H155373   5.278   3.531   1.610 -1.0031  0.7011  1.2321
11294TIP3    H255374   5.277   3.680   1.636  0.4025  1.2810 -1.6598
11295TIP3   OH255375   1.634   1.687   1.797 -0.1898  0.0377 -0.1670
11295TIP3    H155376   1.646   1.624   1.868 -1.0022  0.3821  0.2936
11295TIP3    H255377   1.571   1.645   1.738 -0.4662  0.2638 -0.0372
11296TIP3   OH255378   6.428   6.546  12.317 -0.2413  0.0152  0.0505
11296TIP3    H155379   6.485   6.487  12.367 -0.3829 -0.2308 -0.0771
11296TIP3    H255380   6.425   6.508  12.230  0.9334  1.0674 -0.4768
11297TIP3   OH255381   1.494   0.791   2.694  0.0575 -0.2058 -0.3824
11297TIP3    H155382   1.454   0.776   2.779  0.9951 -1.5489 -0.1336
11297TIP3    H255383   1.422   0.782   2.631 -0.7663  1.4538  0.2824
11298TIP3   OH255384   6.014   3.847   3.558 -0.2237 -0.0048 -0.0010
11298TIP3    H155385   6.025   3.940   3.575  1.3408  0.2830 -2.1349
11298TIP3    H255386   6.059   3.832   3.475 -0.3265 -2.6959  0.3191
11299TIP3   OH255387   2.105   1.151   5.713 -0.4239  0.0191  0.1954
11299TIP3    H155388   2.178   1.091   5.720 -0.2813  0.2970  1.4521
11299TIP3    H255389   2.088   1.178   5.804 -1.1256  1.0857 -0.2324
11300TIP3   OH255390   3.432   6.509  15.495  0.0077 -1.2305 -0.1490
11300TIP3    H155391   3.409   6.481  15.584  0.5683 -0.7308  0.1625
11300TIP3    H255392   3.485   6.437  15.460  1.1720 -0.7398  0.5323
11301TIP3   OH255393   6.275   1.919   2.741  0.5007 -0.5963  0.5069
11301TIP3    H155394   6.308   2.004   2.769  0.5585 -0.0573 -1.1348
11301TIP3    H255395   6.305   1.910   2.651  0.9582 -2.6006  0.8072
11302TIP3   OH255396   1.700   2.321  15.123  0.7220 -0.1367 -0.4068
11302TIP3    H155397   1.720   2.243  15.173  0.1469 -0.5751 -0.8512
11302TIP3    H255398   1.761   2.387  15.156  0.6945 -0.5545  0.5033
11303TIP3   OH255399   0.154   4.760  12.199  0.6439  0.0052 -0.5031
11303TIP3    H155400   0.162   4.668  12.176  1.9442 -0.7456  2.5252
11303TIP3    H255401   0.062   4.771  12.225  0.7016 -0.7128  0.0380
11304TIP3   OH255402   4.881   3.774  11.912 -0.1220 -0.0802  0.3681
11304TIP3    H155403   4.916   3.807  11.829 -2.3055  1.3302 -0.0861
11304TIP3    H255404   4.835   3.849  11.949 -2.2473 -1.6503  1.0842
11305TIP3   OH255405   2.331   1.133  10.585  0.3372 -0.4240  0.4990
11305TIP3    H155406   2.276   1.055  10.592  0.1238 -0.3882 -0.5169
11305TIP3    H255407   2.279   1.203  10.625  0.3686 -0.7223  1.0678
11306TIP3   OH255408   4.345   3.006  14.413 -0.4644 -0.3494  0.1076
11306TIP3    H155409   4.358   3.051  14.496  0.3014 -0.1540 -0.1040
11306TIP3    H255410   4.381   2.918  14.427  3.8594  0.9526 -1.2369
11307TIP3   OH255411   2.687   5.841   0.952  0.1500  0.4863 -0.5996
11307TIP3    H155412   2.655   5.927   0.927  1.4667  0.5230 -2.3177
11307TIP3    H255413   2.762   5.859   1.008  0.1852  0.4490 -0.6350
11308TIP3   OH255414   0.719   0.778  16.472  0.1513 -0.3420 -0.0565
11308TIP3    H155415   0.685   0.809  16.389  2.0534 -0.8236 -1.0800
11308TIP3    H255416   0.676   0.833  16.538 -1.4893 -0.0413 -1.3218
11309TIP3   OH255417   4.389   6.057  17.097 -0.9350  0.0924 -0.2422
11309TIP3    H155418   4.421   6.063  17.187  0.8753  3.1008 -0.9455
11309TIP3    H255419   4.396   5.964  17.075  0.8738 -0.3671  1.9211
11310TIP3   OH255420   4.891   5.237   2.389  0.4326 -0.1848  0.3662
11310TIP3    H155421   4.906   5.200   2.302  2.2498 -0.3472  0.7095
11310TIP3    H255422   4.890   5.332   2.374  1.0055 -0.2032  0.2085
11311TIP3   OH255423   4.428   5.733   4.552 -0.2841  0.0576 -0.1488
11311TIP3    H155424   4.453   5.667   4.618 -0.2664 -0.6250 -0.8267
11311TIP3    H255425   4.362   5.689   4.499 -0.6062  0.7570 -0.3281
11312TIP3   OH255426   5.099   0.425   1.003  0.0246 -0.4908  1.0126
11312TIP3    H155427   5.125   0.516   0.988 -0.8128 -0.1691  1.4605
11312TIP3    H255428   5.134   0.377   0.928  1.3543  0.0242  1.2813
11313TIP3   OH255429   1.257   2.114  14.641 -0.3647  0.2049  0.0669
11313TIP3    H155430   1.239   2.043  14.580  1.8196  0.1654 -0.6360
11313TIP3    H255431   1.311   2.176  14.591 -1.7674  2.1280  0.8154
11314TIP3   OH255432   0.666   2.200   1.644  0.5234  0.3428  0.3341
11314TIP3    H155433   0.621   2.118   1.627  1.5598 -0.1546 -0.1209
11314TIP3    H255434   0.738   2.176   1.703  0.0149  1.1670  1.3202
11315TIP3   OH255435   3.111   4.433   4.927  0.5980  0.4640  0.5416
11315TIP3    H155436   3.192   4.459   4.972  1.5193 -0.4914 -0.4981
11315TIP3    H255437   3.094   4.504   4.866  1.3080  0.1637 -0.0289
11316TIP3   OH255438   1.828   2.839  14.888 -0.2410  0.4198 -0.3307
11316TIP3    H155439   1.746   2.837  14.840 -0.3017  0.9344 -0.2466
11316TIP3    H255440   1.803   2.857  14.979 -0.1955 -1.2537  0.0520
11317TIP3   OH255441   2.869   3.970   0.985 -0.4872 -0.5902 -0.2441
11317TIP3    H155442   2.829   3.897   0.937 -0.5390 -0.5529 -0.2573
11317TIP3    H255443   2.808   3.988   1.057 -0.4029 -0.6551 -0.1571
11318TIP3   OH255444   2.228   6.479  14.562  0.0589  0.1755  0.7054
11318TIP3    H155445   2.194   6.416  14.499  0.3186 -0.4187  1.1500
11318TIP3    H255446   2.169   6.555  14.554 -0.1802 -0.0689  0.0783
11319TIP3   OH255447   0.431   6.034  17.025 -0.2392 -0.4787  0.2888
11319TIP3    H155448   0.394   6.111  16.980 -1.2799 -1.7949 -1.2372
11319TIP3    H255449   0.514   6.017  16.979  1.2402  1.0993  2.2079
11320TIP3   OH255450   4.910   6.621  16.824 -0.2542 -0.6684 -0.0737
11320TIP3    H155451   4.850   6.582  16.887 -1.2198 -0.3688 -0.7954
11320TIP3    H255452   4.860   6.690  16.782  1.4082  1.4942  1.2385
11321TIP3   OH255453   1.184   1.894   5.906 -1.1761  0.0167 -0.6451
11321TIP3    H155454   1.225   1.850   5.981 -0.5397  0.2122 -0.8718
11321TIP3    H255455   1.249   1.887   5.836 -2.3988 -1.5984 -1.6874
11322TIP3   OH255456   5.347   3.800   1.865  0.0174 -0.5871 -0.1204
11322TIP3    H155457   5.416   3.764   1.809 -0.4076 -1.2781 -0.2119
11322TIP3    H255458   5.287   3.844   1.804 -0.2109 -0.9564 -0.1657
11323TIP3   OH255459   1.113   5.564   1.277 -0.2985  0.1730  0.2994
11323TIP3    H155460   1.083   5.506   1.208  0.3687  0.8570 -0.6048
11323TIP3    H255461   1.055   5.548   1.351 -2.1630  0.6661 -0.9954
11324TIP3   OH255462   0.978   1.114  13.242  0.1976 -0.3297 -0.1517
11324TIP3    H155463   0.895   1.162  13.232 -0.3089 -1.3438 -1.1383
11324TIP3    H255464   1.043   1.169  13.199 -0.0905  0.1717  0.0527
11325TIP3   OH255465   1.178   5.831  12.876 -0.1619  0.0215 -0.4605
11325TIP3    H155466   1.164   5.743  12.911  0.7511 -0.1628 -0.5350
11325TIP3    H255467   1.206   5.816  12.785 -0.1372  0.3971 -0.5154
11326TIP3   OH255468   4.133   0.026   0.462  0.3419 -0.1045 -0.7570
11326TIP3    H155469   4.123  -0.044   0.398 -0.2499 -0.5457 -0.2002
11326TIP3    H255470   4.200   0.083   0.425  1.6461 -1.5288 -0.7277
11327TIP3   OH255471   3.783   0.128  15.067 -0.6109  0.4941  0.1893
11327TIP3    H155472   3.823   0.214  15.059  1.4484 -0.0311  3.1834
11327TIP3    H255473   3.744   0.112  14.981  0.0083  3.8374 -0.8653
11328TIP3   OH255474   1.484   0.802   4.180 -0.4890 -0.1290 -0.6156
11328TIP3    H155475   1.543   0.820   4.253 -0.1280 -0.1599 -0.8951
11328TIP3    H255476   1.474   0.886   4.135 -0.7752 -0.0924 -0.4805
11329TIP3   OH255477   0.136   0.399   5.366 -0.6351  0.0764  0.4511
11329TIP3    H155478   0.204   0.356   5.313  0.1009  1.3495  0.3274
11329TIP3    H255479   0.143   0.492   5.344 -1.4982  0.4114  1.4895
11330TIP3   OH255480   1.955   5.415  15.429  0.6873  0.2793 -0.2152
11330TIP3    H155481   2.025   5.478  15.411  1.6890 -0.5498  0.6298
11330TIP3    H255482   1.997   5.349  15.484 -0.6519 -0.4957 -0.1016
11331TIP3   OH255483   5.281   0.184  13.827  0.6728  0.1961  0.4757
11331TIP3    H155484   5.213   0.176  13.894 -0.4285 -0.2637 -0.6571
11331TIP3    H255485   5.361   0.202  13.877  0.0963 -1.1244  1.9961
11332TIP3   OH255486   5.157   5.395   0.232 -0.4163 -0.4226  0.1695
11332TIP3    H155487   5.095   5.465   0.254  0.4736 -0.0492  1.6169
11332TIP3    H255488   5.103   5.316   0.228 -0.9237 -0.2065  1.9845
11333TIP3   OH255489   2.140   4.516  11.662 -0.3608 -0.0806  0.2359
11333TIP3    H155490   2.213   4.545  11.607 -0.1718  0.0412  0.5462
11333TIP3    H255491   2.183   4.477  11.739 -0.6207 -0.3806  0.2277
11334TIP3   OH255492   0.240   4.981   5.786 -0.1530 -0.0115 -0.3479
11334TIP3    H155493   0.204   4.902   5.826 -1.8996  0.8605 -0.0920
11334TIP3    H255494   0.316   4.951   5.735 -0.1346 -1.6658  0.6104
11335TIP3   OH255495   5.134   0.632  14.930 -0.3275  0.7353 -0.2990
11335TIP3    H155496   5.086   0.699  14.882 -0.8440 -0.2555 -1.1972
11335TIP3    H255497   5.199   0.599  14.868  0.7860  1.2719  0.5437
11336TIP3   OH255498   3.999   5.631  12.508  0.6333  1.0172 -0.1490
11336TIP3    H155499   3.931   5.610  12.572  0.8390  0.9130  0.0359
11336TIP3    H255500   4.016   5.548  12.464  0.0204  1.2285 -0.7981
11337TIP3   OH255501   3.002   5.644   1.786 -0.1253 -0.0580 -0.1993
11337TIP3    H155502   3.027   5.606   1.702 -0.9818 -0.5702 -0.2358
11337TIP3    H255503   2.972   5.570   1.838 -1.5142  0.4976 -0.1589
11338TIP3   OH255504   6.193   0.101   0.840 -0.3386 -0.2471  0.2460
11338TIP3    H155505   6.117   0.150   0.808 -1.0380 -1.0824  0.6176
11338TIP3    H255506   6.177   0.089   0.933  0.1502 -0.6048  0.2867
11339TIP3   OH255507   3.213   3.053  16.409  0.2192  0.5552 -0.6597
11339TIP3    H155508   3.268   3.085  16.337  0.9135  1.1803  0.1304
11339TIP3    H255509   3.216   2.958  16.400  0.4599  0.6228 -1.3519
11340TIP3   OH255510   0.058   1.894  16.982  0.5785 -0.2933 -0.0497
11340TIP3    H155511  -0.009   1.826  16.976  1.7700 -1.4024 -1.7396
11340TIP3    H255512   0.019   1.970  16.940  0.2823 -0.8580 -0.8185
11341TIP3   OH255513   1.339   3.742   1.557 -0.0671  0.0838 -0.1871
11341TIP3    H155514   1.334   3.799   1.634 -2.1903 -0.5522  0.2134
11341TIP3    H255515   1.353   3.802   1.483  1.3313  0.7522  0.5795
11342TIP3   OH255516   0.161   3.715   2.875  0.4133 -0.6289 -0.6100
11342TIP3    H155517   0.122   3.628   2.868  0.2287 -0.6910  0.7855
11342TIP3    H255518   0.089   3.772   2.901  0.0972  0.3700 -3.4283
11343TIP3   OH255519   5.758   0.932   0.272  0.1462  0.7651  0.2289
11343TIP3    H155520   5.827   0.930   0.206 -0.3329  3.2528 -0.4497
11343TIP3    H255521   5.746   1.025   0.292 -2.5614  0.4071  0.7630
11344TIP3   OH255522   3.087   1.118  15.326  0.0913  0.9309 -0.0724
11344TIP3    H155523   3.068   1.053  15.394  0.4533 -0.0237 -0.8554
11344TIP3    H255524   3.050   1.199  15.359 -0.3942  0.3191  0.9270
11345TIP3   OH255525   5.822   4.025  13.792  0.5449 -0.0326 -0.5077
11345TIP3    H155526   5.742   3.981  13.820  0.1376  0.2124 -1.2600
11345TIP3    H255527   5.806   4.118  13.810 -0.1241  0.2585 -2.4044
11346TIP3   OH255528   2.589   5.154  14.246  0.2612  0.4040 -0.3342
11346TIP3    H155529   2.526   5.084  14.230 -0.5668  0.6915  1.3373
11346TIP3    H255530   2.654   5.115  14.304 -1.1963  1.3696  2.1660
11347TIP3   OH255531   6.380   2.287   3.492 -0.1111 -0.0457  0.2550
11347TIP3    H155532   6.385   2.342   3.570  0.1305  1.1997 -0.6199
11347TIP3    H255533   6.471   2.278   3.464 -0.2818  0.3407 -0.4409
11348TIP3   OH255534   6.050   4.588  13.023  0.2367 -0.5181 -0.1126
11348TIP3    H155535   6.045   4.541  13.107  0.6992  0.2793  0.3745
11348TIP3    H255536   5.996   4.536  12.964  1.0959 -1.9173  0.2787
11349TIP3   OH255537   4.662   1.520  12.252 -0.3833 -0.0453  0.0912
11349TIP3    H155538   4.742   1.518  12.200 -0.0672  0.1390  0.5606
11349TIP3    H255539   4.659   1.609  12.287 -1.0239  0.0808 -0.2764
11350TIP3   OH255540   4.743   2.809  14.446  0.9884 -0.1149  0.8181
11350TIP3    H155541   4.742   2.899  14.479  0.2024 -0.1883  1.0257
11350TIP3    H255542   4.791   2.814  14.363  0.5034  0.5887  0.5688
11351TIP3   OH255543   3.915   1.021   0.898  0.5811 -0.4992 -0.0448
11351TIP3    H155544   3.967   0.965   0.955 -0.3630 -0.5591  0.7770
11351TIP3    H255545   3.828   0.981   0.897 -0.1494  0.9750  0.6368
11352TIP3   OH255546   0.743   0.653  12.585  0.5882 -0.3664  0.2618
11352TIP3    H155547   0.731   0.570  12.540 -2.8289 -0.3395  0.8844
11352TIP3    H255548   0.774   0.629  12.672 -0.6577 -1.0265  0.5337
11353TIP3   OH255549   5.045   1.935  15.985  0.5356 -0.4270 -0.3744
11353TIP3    H155550   5.013   1.881  15.913 -0.3559  0.5861 -0.7608
11353TIP3    H255551   5.139   1.945  15.967  0.2328  0.2592 -1.7178
11354TIP3   OH255552   5.086   1.365  15.027 -0.4296  0.2657  0.0097
11354TIP3    H155553   5.083   1.306  14.952  2.7882  0.9589 -0.7925
11354TIP3    H255554   5.038   1.443  14.998  1.1542  0.7131 -1.5925
11355TIP3   OH255555   3.365   1.871  11.162 -0.9016 -0.2266  0.4814
11355TIP3    H155556   3.379   1.929  11.237  1.0987 -1.4000  1.0924
11355TIP3    H255557   3.429   1.900  11.097 -0.8976 -0.7875  0.2275
11356TIP3   OH255558   4.238   0.958   4.909  0.1837  0.4824 -0.1098
11356TIP3    H155559   4.330   0.946   4.929  0.2686 -0.5388 -0.9874
11356TIP3    H255560   4.200   0.870   4.918 -0.4224  0.6316 -1.0138
11357TIP3   OH255561   3.121   4.358   0.880 -0.0945  0.3048  0.5027
11357TIP3    H155562   3.146   4.438   0.835 -0.7222  1.7565  2.5627
11357TIP3    H255563   3.029   4.372   0.903 -0.2679 -1.0984  0.7536
11358TIP3   OH255564   2.365   2.143  16.072 -0.5012 -0.2798 -0.2198
11358TIP3    H155565   2.283   2.097  16.085  0.2038 -1.1709  1.3947
11358TIP3    H255566   2.355   2.188  15.988 -2.2007 -1.2513 -0.5742
11359TIP3   OH255567   1.945   1.351   2.815  0.0448 -0.6182  0.5467
11359TIP3    H155568   1.858   1.352   2.855  0.7852 -2.3457  2.4168
11359TIP3    H255569   1.941   1.282   2.750 -0.0006 -0.6767  0.6110
11360TIP3   OH255570   5.006   2.673  17.098 -0.2890 -0.1725  0.5900
11360TIP3    H155571   5.041   2.585  17.111  1.5966  0.4244 -0.0750
11360TIP3    H255572   4.919   2.660  17.061  0.2602 -1.7581 -0.2269
11361TIP3   OH255573   0.785   0.015  13.411  0.3478  0.0226  0.0930
11361TIP3    H155574   0.849  -0.015  13.476 -0.2308 -0.2098  0.5696
11361TIP3    H255575   0.817  -0.021  13.328  0.9223  0.0516  0.2965
11362TIP3   OH255576   2.110   2.406  16.424 -0.3146 -0.2471 -0.2497
11362TIP3    H155577   2.154   2.483  16.386  0.0582 -0.5881 -0.5180
11362TIP3    H255578   2.062   2.368  16.351  1.6473 -1.8035 -0.8247
11363TIP3   OH255579   1.024   3.601   0.186 -0.3413  0.4612  0.0187
11363TIP3    H155580   1.105   3.613   0.235  0.5771 -2.8961 -0.4623
11363TIP3    H255581   1.010   3.685   0.143 -0.0510  2.8928  4.1571
11364TIP3   OH255582   0.263   6.648   0.878 -0.3812  0.0479 -0.3184
11364TIP3    H155583   0.220   6.566   0.852  0.6852 -1.2968  1.8614
11364TIP3    H255584   0.332   6.661   0.813  1.5299 -2.6082  1.0053
11365TIP3   OH255585   0.484   2.041   6.251 -0.0547  0.1189 -0.3654
11365TIP3    H155586   0.501   2.079   6.338  1.7179  0.1607 -0.7027
11365TIP3    H255587   0.481   2.117   6.192  0.9190 -0.0547 -0.6528
11366TIP3   OH255588   0.005   4.080   4.635 -0.0005  0.4450 -0.2607
11366TIP3    H155589  -0.010   4.127   4.717  1.6022  0.3367  0.1192
11366TIP3    H255590   0.041   4.146   4.576 -1.8553  0.7057 -1.1528
11367TIP3   OH255591   2.128   5.310  13.643 -0.5707  0.0019  0.8681
11367TIP3    H155592   2.120   5.341  13.733  0.6890 -0.4567  1.1669
11367TIP3    H255593   2.221   5.318  13.623 -0.7008 -0.6597 -0.1120
11368TIP3   OH255594   1.368   5.681  14.238  0.3333 -0.0927 -0.5770
11368TIP3    H155595   1.326   5.735  14.171  0.6531 -1.0087 -1.5333
11368TIP3    H255596   1.380   5.741  14.312 -0.5555  0.7792 -1.1127
11369TIP3   OH255597   0.976   5.891   2.692 -0.0096  0.6118 -0.4155
11369TIP3    H155598   0.985   5.974   2.739 -2.4860  0.6593  0.1208
11369TIP3    H255599   0.885   5.889   2.665  0.3821 -1.2670 -1.7653
11370TIP3   OH255600   4.586   2.844  15.202 -0.1544 -0.5586  0.5872
11370TIP3    H155601   4.536   2.796  15.269 -0.1345 -0.5324  0.6202
11370TIP3    H255602   4.541   2.822  15.120 -0.4189 -0.2784  0.6553
11371TIP3   OH255603   0.667   3.510   5.340 -0.0190  0.1508  0.1035
11371TIP3    H155604   0.644   3.452   5.412 -0.6227  1.1720  0.7685
11371TIP3    H255605   0.583   3.534   5.301  0.3237 -0.8791 -1.3754
11372TIP3   OH255606   1.028   0.108  14.953 -0.1028 -0.1971  0.2719
11372TIP3    H155607   1.097   0.067  14.902  1.6479  0.1022  2.2599
11372TIP3    H255608   1.005   0.187  14.903  2.9441  1.1561  0.7960
11373TIP3   OH255609   4.046   4.503  11.662  0.1380  0.0311  0.0225
11373TIP3    H155610   4.095   4.487  11.743  0.2253  0.2062  0.0037
11373TIP3    H255611   3.967   4.450  11.671  0.1717  0.0109  0.2001
11374TIP3   OH255612   5.686   3.021  15.788  0.1219  0.0670  0.0020
11374TIP3    H155613   5.759   3.082  15.796  1.4123 -1.2332 -1.1742
11374TIP3    H255614   5.702   2.955  15.856  2.0414 -2.0744 -2.3242
11375TIP3   OH255615   2.430   4.873   0.878 -0.8518 -0.3231  0.1562
11375TIP3    H155616   2.394   4.786   0.889 -1.7178  0.1579  1.2940
11375TIP3    H255617   2.520   4.867   0.912 -1.4012 -0.4332  1.6686
11376TIP3   OH255618   0.352   6.844  11.766  0.0151 -0.0672  0.0757
11376TIP3    H155619   0.330   6.773  11.706  1.5770 -1.5252  1.1157
11376TIP3    H255620   0.273   6.898  11.770 -0.4473 -0.4419 -2.4953
11377TIP3   OH255621   3.286   5.933  14.385 -0.1831 -0.4661 -0.1793
11377TIP3    H155622   3.340   5.855  14.398 -0.4946 -0.7817 -0.7378
11377TIP3    H255623   3.348   6.003  14.368  0.0601 -0.8038 -0.7034
11378TIP3   OH255624   5.594   3.218   2.277 -0.3967 -0.2888 -0.0087
11378TIP3    H155625   5.609   3.222   2.182 -0.8387  0.3308 -0.0585
11378TIP3    H255626   5.682   3.210   2.315 -0.2099 -0.4320 -0.4663
11379TIP3   OH255627   1.412   0.842  16.925  0.1013  0.7083  0.0585
11379TIP3    H155628   1.501   0.827  16.894 -0.5938 -1.6470 -1.0383
11379TIP3    H255629   1.422   0.864  17.018  1.8835  2.4717 -0.4685
11380TIP3   OH255630   1.187   0.712   2.208 -0.4916 -0.1860  0.0404
11380TIP3    H155631   1.265   0.762   2.186 -1.3834  1.6772  0.8748
11380TIP3    H255632   1.165   0.663   2.129  0.9012  0.0942 -0.5308
11381TIP3   OH255633   3.443   4.930   3.854 -0.2515  0.0938  0.4633
11381TIP3    H155634   3.517   4.897   3.803  0.9134  2.2557  0.6336
11381TIP3    H255635   3.376   4.863   3.844  0.7154 -0.6354 -2.0442
11382TIP3   OH255636   1.260   3.144  11.337 -0.2108  0.3520 -0.2214
11382TIP3    H155637   1.234   3.144  11.245 -0.1259  0.0317 -0.2479
11382TIP3    H255638   1.182   3.113  11.384 -0.8770  2.2466  0.0093
11383TIP3   OH255639   1.642   0.021  11.867  0.1705  0.2783 -0.1309
11383TIP3    H155640   1.608   0.003  11.780  0.8086 -0.7311 -0.1850
11383TIP3    H255641   1.571   0.068  11.912 -0.8448 -0.7797 -0.5964
11384TIP3   OH255642   5.542   4.483  13.075 -0.2985  0.1641 -0.5129
11384TIP3    H155643   5.550   4.508  13.167 -2.4222 -2.2500  0.4614
11384TIP3    H255644   5.489   4.553  13.036  0.9828  1.4357 -0.0614
11385TIP3   OH255645   4.627   4.141   2.953 -0.3599 -0.3444  0.1115
11385TIP3    H155646   4.633   4.151   3.048  1.3765  1.0960 -0.0875
11385TIP3    H255647   4.670   4.220   2.919  0.2080 -1.4533 -1.8577
11386TIP3   OH255648   4.749   6.037   4.890  0.2792 -0.0934 -0.1880
11386TIP3    H155649   4.754   6.051   4.985 -1.7215 -0.8687  0.0972
11386TIP3    H255650   4.821   5.977   4.871  0.7769  0.1567  0.8274
11387TIP3   OH255651   0.393   0.582   5.907  0.3799  0.1786 -0.1758
11387TIP3    H155652   0.319   0.582   5.967  0.7580  1.5464  0.3278
11387TIP3    H255653   0.469   0.599   5.963  0.8586  0.5025 -0.9122
11388TIP3   OH255654   4.746   6.436  13.009 -0.5624 -0.2146 -0.0594
11388TIP3    H155655   4.730   6.461  13.099  1.3637 -1.2824  0.6580
11388TIP3    H255656   4.675   6.476  12.959 -0.5886  2.0634  1.6443
11389TIP3   OH255657   4.744   3.539  16.080  0.2090 -0.4714 -0.3866
11389TIP3    H155658   4.815   3.584  16.126  0.7048 -0.9588 -0.6601
11389TIP3    H255659   4.690   3.502  16.150 -1.4302  2.2928 -0.0671
11390TIP3   OH255660   6.007   4.478  10.806 -0.2797 -0.3631 -0.4177
11390TIP3    H155661   6.014   4.544  10.737 -0.3058 -1.5862 -1.6492
11390TIP3    H255662   6.046   4.519  10.883 -2.3311  1.9079 -0.4762
11391TIP3   OH255663   4.571   5.283  13.549 -0.4885 -0.2292  0.0777
11391TIP3    H155664   4.582   5.290  13.454 -3.9338 -0.0277 -0.4187
11391TIP3    H255665   4.612   5.199  13.571 -0.0082 -0.4915 -1.6629
11392TIP3   OH255666   0.907   6.165  13.779  0.3252  0.1600  0.1710
11392TIP3    H155667   0.971   6.204  13.838  2.0517 -0.1817 -1.4076
11392TIP3    H255668   0.882   6.237  13.721 -0.5666  0.2221  0.6102
11393TIP3   OH255669   5.377   1.497   1.391 -0.0485 -0.2930 -0.1959
11393TIP3    H155670   5.307   1.560   1.405 -0.7284 -0.9610 -0.4919
11393TIP3    H255671   5.422   1.492   1.476 -0.2913  0.2193 -0.0351
11394TIP3   OH255672   3.961   0.616   4.030  0.2777  0.1504  0.6255
11394TIP3    H155673   3.906   0.579   3.961  1.6227  1.3167 -1.1620
11394TIP3    H255674   3.900   0.652   4.093 -0.9997 -1.0049  0.0873
11395TIP3   OH255675   1.434   4.352   2.677 -0.0386  0.0789 -0.2640
11395TIP3    H155676   1.488   4.315   2.607 -0.2340 -0.1793 -0.2775
11395TIP3    H255677   1.494   4.360   2.751  0.3122  0.8490 -0.6071
11396TIP3   OH255678   0.243   6.678   1.368 -0.1243  0.1646 -0.1661
11396TIP3    H155679   0.199   6.620   1.306 -0.8677 -0.8034  1.2244
11396TIP3    H255680   0.173   6.717   1.420  0.5760 -1.0841  1.8106
11397TIP3   OH255681   2.811   4.911   2.240 -0.4256 -0.3900 -0.0117
11397TIP3    H155682   2.839   4.974   2.173 -3.0554  2.2971  1.2214
11397TIP3    H255683   2.754   4.850   2.192  1.9360 -1.8484 -1.1613
11398TIP3   OH255684   4.038   4.460   3.024 -0.0196 -0.2086  0.2609
11398TIP3    H155685   3.958   4.420   2.989  0.5573  0.3476 -1.8880
11398TIP3    H255686   4.077   4.393   3.079 -1.0281 -1.1511 -0.1346
11399TIP3   OH255687   0.747   2.997  16.666  0.7546  0.1304 -0.2191
11399TIP3    H155688   0.826   2.950  16.690  0.9307  0.0770 -0.8919
11399TIP3    H255689   0.777   3.068  16.609  0.1218 -1.2917 -2.4537
11400TIP3   OH255690   5.059   3.905  13.670 -0.6624  0.5371 -0.1205
11400TIP3    H155691   5.136   3.934  13.719 -0.9653  0.6293  0.3086
11400TIP3    H255692   5.039   3.977  13.611 -0.6506  0.6744  0.0423
11401TIP3   OH255693   0.103   4.993   4.427 -0.0489  0.2836  0.0231
11401TIP3    H155694   0.059   4.925   4.478 -0.6177  1.4536  1.1608
11401TIP3    H255695   0.103   4.960   4.338 -1.5394 -0.6162  0.3228
11402TIP3   OH255696   3.282   5.800  11.525 -0.6311  0.2979 -0.2006
11402TIP3    H155697   3.375   5.808  11.547  0.0803 -3.0208 -1.4056
11402TIP3    H255698   3.253   5.722  11.572 -2.4567  0.5043 -0.9115
11403TIP3   OH255699   6.511   3.028   3.554 -0.6237  0.5924  0.0676
11403TIP3    H155700   6.606   3.038   3.561 -0.5719  0.7205 -0.7022
11403TIP3    H255701   6.500   2.946   3.505 -0.8930  0.9888 -0.5367
11404TIP3   OH255702   5.317   4.216  10.838 -0.2056 -0.7926 -0.3508
11404TIP3    H155703   5.331   4.286  10.775  0.9403  0.2495  0.9863
11404TIP3    H255704   5.392   4.157  10.826  0.2419 -0.3655  0.3066
11405TIP3   OH255705   5.401   2.800  13.249  0.5316  0.3762  0.3500
11405TIP3    H155706   5.494   2.782  13.234  0.3059  0.2757 -1.0976
11405TIP3    H255707   5.361   2.714  13.257  0.2777  0.3442 -1.0538
11406TIP3   OH255708   4.414   5.733   5.859 -0.1605  0.1529  0.4438
11406TIP3    H155709   4.348   5.708   5.924 -0.0859 -2.0241 -0.2460
11406TIP3    H255710   4.437   5.651   5.816  2.0120  1.0894 -0.2795
11407TIP3   OH255711   3.216   3.123   5.166 -0.2204 -0.2175 -0.2758
11407TIP3    H155712   3.279   3.053   5.154  0.6411  0.4434  0.2792
11407TIP3    H255713   3.231   3.154   5.255 -0.1427  1.0964 -0.7224
11408TIP3   OH255714   3.794   4.509  14.921  0.1694  0.1602 -0.4876
11408TIP3    H155715   3.821   4.421  14.895 -0.9680  0.2807 -2.2873
11408TIP3    H255716   3.711   4.496  14.967  0.5793  0.2064  0.2693
11409TIP3   OH255717   0.340   2.072   4.898 -0.8101 -0.2357  0.1894
11409TIP3    H155718   0.401   2.045   4.967 -1.6264  0.4778  1.2202
11409TIP3    H255719   0.397   2.107   4.829 -0.0094 -0.2177  0.8428
11410TIP3   OH255720   3.716   3.157   1.632 -0.1088 -0.5191  0.4579
11410TIP3    H155721   3.684   3.246   1.649  0.4651 -0.4839  1.4422
11410TIP3    H255722   3.811   3.166   1.625 -0.1945 -0.7577 -1.5437
11411TIP3   OH255723   1.536   0.391  15.957 -0.2876  0.3088  0.1152
11411TIP3    H155724   1.574   0.318  16.006  1.5400  0.7457 -0.5754
11411TIP3    H255725   1.446   0.397  15.990 -0.2932 -1.7990  0.6725
11412TIP3   OH255726   2.976   5.037   5.239  0.1201 -0.0266 -0.6556
11412TIP3    H155727   2.960   5.052   5.146 -1.1814 -0.0676 -0.4594
11412TIP3    H255728   3.069   5.059   5.251 -0.5887  4.2539 -1.1513
11413TIP3   OH255729   2.135   5.877  12.428 -0.2155 -0.2959  0.1531
11413TIP3    H155730   2.106   5.894  12.339  1.0522  1.0698 -0.0397
11413TIP3    H255731   2.061   5.833  12.470 -1.1758 -0.1061 -1.2973
11414TIP3   OH255732   0.358   2.476  15.423 -0.3248 -0.1053  0.0407
11414TIP3    H155733   0.391   2.479  15.513 -1.3255 -0.4094  0.4274
11414TIP3    H255734   0.263   2.470  15.432 -0.7466  3.0367 -1.0536
11415TIP3   OH255735   6.249   6.229  10.154 -0.6707  0.1374  0.5293
11415TIP3    H155736   6.164   6.191  10.176 -0.2499 -0.6065  0.8838
11415TIP3    H255737   6.313   6.168  10.189  0.0228 -0.0515 -0.9684
11416TIP3   OH255738   5.800   3.520   0.635 -0.0129 -0.4278  0.1136
11416TIP3    H155739   5.770   3.606   0.666  0.4443  0.4798 -1.7916
11416TIP3    H255740   5.720   3.477   0.605  0.0669  0.5278 -1.5855
11417TIP3   OH255741   5.085   6.396  16.925  0.0529  0.0818  0.1134
11417TIP3    H155742   5.035   6.472  16.895  0.6573  0.3963 -0.0912
11417TIP3    H255743   5.073   6.331  16.855  0.1262  0.2360 -0.0405
11418TIP3   OH255744   1.625   5.296   1.279 -0.0711  0.0265 -0.1097
11418TIP3    H155745   1.537   5.271   1.307 -0.2317  2.0191  1.3951
11418TIP3    H255746   1.621   5.391   1.269  1.0836 -0.1460 -3.2599
11419TIP3   OH255747   5.471   1.669   1.176 -0.1068 -0.3299  0.3842
11419TIP3    H155748   5.424   1.611   1.237 -2.2282 -0.0810 -0.9147
11419TIP3    H255749   5.407   1.736   1.153  1.1899  0.5195 -0.8561
11420TIP3   OH255750   4.639   3.364   5.637  0.3884  0.3538  0.2795
11420TIP3    H155751   4.685   3.422   5.697  1.8460  0.1217 -0.5587
11420TIP3    H255752   4.709   3.316   5.592 -0.6574  0.3819 -1.4490
11421TIP3   OH255753   6.678   0.279  13.417 -0.1744 -0.2295  0.4687
11421TIP3    H155754   6.621   0.331  13.361 -0.9742 -0.4660  1.0440
11421TIP3    H255755   6.696   0.337  13.492  2.2213  0.7088 -0.7449
11422TIP3   OH255756   4.605   1.227  12.723 -0.5727  0.5397  0.7489
11422TIP3    H155757   4.682   1.177  12.693 -1.3219 -0.2166  0.0301
11422TIP3    H255758   4.585   1.286  12.650  0.2397  1.8507  1.5507
11423TIP3   OH255759   0.235   0.806   3.851 -0.2788  0.2747  0.3685
11423TIP3    H155760   0.298   0.878   3.853 -0.7042  0.6650 -0.0918
11423TIP3    H255761   0.188   0.813   3.934 -0.8002  0.9636  0.0187
11424TIP3   OH255762   4.702   3.582   4.717 -0.3981  0.3077 -0.0957
11424TIP3    H155763   4.691   3.674   4.691 -0.9621 -0.4127 -2.6957
11424TIP3    H255764   4.796   3.566   4.708 -0.5179  0.2106 -1.2941
11425TIP3   OH255765   5.154   5.413  14.675  0.5932  0.6721 -0.0133
11425TIP3    H155766   5.206   5.355  14.619  0.5599  1.6591 -1.0905
11425TIP3    H255767   5.100   5.353  14.727  0.1761 -0.2744 -1.4623
11426TIP3   OH255768   6.082   6.748   3.670  0.0250  0.5445 -0.4996
11426TIP3    H155769   6.042   6.665   3.645  0.3076 -0.3238  1.7467
11426TIP3    H255770   6.010   6.811   3.665 -1.0130 -0.4757  0.8175
11427TIP3   OH255771   1.483   2.071  11.497 -0.8177  0.0702  0.3028
11427TIP3    H155772   1.443   1.989  11.524 -0.7315  0.3785  1.4195
11427TIP3    H255773   1.411   2.122  11.461 -0.9910 -0.2597  0.1810
11428TIP3   OH255774   3.839   3.176   3.194 -0.2114  0.0515  0.5200
11428TIP3    H155775   3.785   3.246   3.158 -1.1006 -0.1741  1.3894
11428TIP3    H255776   3.778   3.121   3.243  0.2973 -1.8378 -0.8553
11429TIP3   OH255777   4.720   5.428   5.042  0.2700  0.3836 -0.2858
11429TIP3    H155778   4.742   5.415   5.134 -1.5046 -0.8777  0.0204
11429TIP3    H255779   4.662   5.355   5.020  0.3352  0.8568 -2.3080
11430TIP3   OH255780   3.717   2.780   4.259 -0.3248  0.1320 -0.3100
11430TIP3    H155781   3.626   2.810   4.252 -0.9188 -1.7214 -1.4854
11430TIP3    H255782   3.764   2.827   4.191 -0.4543  0.8524  0.0852
11431TIP3   OH255783   6.099   4.032   5.886 -0.6606  0.2242  0.0609
11431TIP3    H155784   6.132   3.945   5.909  0.6446  1.2612  2.4661
11431TIP3    H255785   6.089   4.029   5.791  0.8933 -2.0384 -0.1218
11432TIP3   OH255786   2.430   1.899   2.774  0.0442 -0.2142  0.4466
11432TIP3    H155787   2.437   1.818   2.723  0.4957 -0.6589  1.1938
11432TIP3    H255788   2.367   1.879   2.843 -0.5204  0.3618  0.0998
11433TIP3   OH255789   1.790   0.079  13.752  0.3901 -0.3916  0.2488
11433TIP3    H155790   1.832   0.156  13.792 -0.2974  0.6776 -1.0248
11433TIP3    H255791   1.860   0.014  13.747  1.0411  0.2001  1.1687
11434TIP3   OH255792   2.693   3.944  11.428 -0.6906 -0.2324  0.3067
11434TIP3    H155793   2.755   3.975  11.494 -0.6735 -2.0399  1.2178
11434TIP3    H255794   2.611   3.988  11.449 -0.0853  1.1017 -0.0347
11435TIP3   OH255795   4.139   6.856  17.091  0.1524 -0.2877 -0.2028
11435TIP3    H155796   4.073   6.846  17.160  0.2556 -3.4580 -0.4410
11435TIP3    H255797   4.093   6.904  17.022 -0.8816  0.3339  0.8736
11436TIP3   OH255798   2.097   1.159  11.788  0.5558 -0.3109 -0.4446
11436TIP3    H155799   2.126   1.230  11.730  0.1002  0.0335 -0.2620
11436TIP3    H255800   2.084   1.084  11.729  0.2054  0.0044 -0.7803
11437TIP3   OH255801   3.664   2.419   3.920 -0.4533  0.3410 -0.6067
11437TIP3    H155802   3.688   2.454   3.834 -3.0063  1.4970 -0.9506
11437TIP3    H255803   3.615   2.339   3.901  0.1962 -0.1830 -0.1259
11438TIP3   OH255804   5.021   1.165   2.124  0.0761 -0.2954 -0.1726
11438TIP3    H155805   5.039   1.131   2.212  2.8315  1.4615  0.0429
11438TIP3    H255806   5.081   1.118   2.067  1.7095  1.8140 -0.3233
11439TIP3   OH255807   3.738   2.564  13.142  0.2122 -0.0978  0.0912
11439TIP3    H155808   3.705   2.548  13.054  0.2115  2.8811 -0.5662
11439TIP3    H255809   3.659   2.578  13.195  0.2120 -1.8776  0.6208
11440TIP3   OH255810   0.379   1.226   2.048 -0.0638  0.1980 -0.1400
11440TIP3    H155811   0.373   1.291   2.118  1.0436 -2.2381  2.4267
11440TIP3    H255812   0.302   1.170   2.062  0.7038 -0.8972 -0.2206
11441TIP3   OH255813   3.043   3.102  12.852  0.7143  0.6568 -0.5960
11441TIP3    H155814   3.022   3.040  12.921 -1.4908 -0.6302 -2.2952
11441TIP3    H255815   3.132   3.079  12.824  0.2888 -1.1271 -0.5571
11442TIP3   OH255816   5.206   5.963   0.938  0.5178 -0.6726 -0.4148
11442TIP3    H155817   5.273   6.021   0.974  1.3969 -1.4561 -0.7630
11442TIP3    H255818   5.136   5.964   1.004  0.9774 -0.0577  0.0809
11443TIP3   OH255819   1.085   4.733   1.516 -0.1738 -0.2086  0.1682
11443TIP3    H155820   1.022   4.763   1.450 -0.0904  0.4599  0.3796
11443TIP3    H255821   1.143   4.673   1.469 -0.0320  0.3649 -0.4012
11444TIP3   OH255822   1.883   0.739   0.463  0.6481 -0.1415  0.5462
11444TIP3    H155823   1.963   0.736   0.515  0.4120  0.7579  0.9820
11444TIP3    H255824   1.815   0.766   0.526  0.2896  0.6003 -0.1502
11445TIP3   OH255825   2.572   0.297  10.465 -0.0878 -0.0587  0.0485
11445TIP3    H155826   2.664   0.269  10.470 -0.2787 -0.6919  0.1722
11445TIP3    H255827   2.538   0.282  10.554  0.0766  1.6043  0.4237
11446TIP3   OH255828   6.281   3.651   4.726 -0.5403  0.1853 -0.3710
11446TIP3    H155829   6.188   3.628   4.732 -0.2934 -1.1367 -1.0865
11446TIP3    H255830   6.323   3.603   4.797 -0.0157 -1.7664 -1.8877
11447TIP3   OH255831   3.966   6.403   5.892 -0.2204  0.3838 -0.4140
11447TIP3    H155832   3.918   6.435   5.816  0.8083 -0.2473 -1.3588
11447TIP3    H255833   4.009   6.323   5.862  1.5291  0.9826  0.3392
11448TIP3   OH255834   1.579   0.404  12.324 -0.2484 -0.5112  0.3207
11448TIP3    H155835   1.644   0.449  12.270 -1.3505  2.1208  1.0331
11448TIP3    H255836   1.496   0.416  12.277 -0.9051  0.0838  1.5754
11449TIP3   OH255837   1.123   4.753   5.696  0.2864 -0.2143 -0.3109
11449TIP3    H155838   1.208   4.786   5.726 -0.3243  2.6160 -1.4126
11449TIP3    H255839   1.111   4.793   5.610 -1.9780 -0.9092 -0.3712
11450TIP3   OH255840   0.167   6.477  15.685  0.1149  0.5295 -0.0608
11450TIP3    H155841   0.245   6.469  15.740 -0.2176  0.1613  0.3608
11450TIP3    H255842   0.095   6.448  15.741 -0.1890 -0.1657 -0.7946
11451TIP3   OH255843   2.681   1.404  13.167  0.3931  0.0282  0.5109
11451TIP3    H155844   2.649   1.315  13.152  2.3686 -0.6988  0.4047
11451TIP3    H255845   2.714   1.403  13.257  0.5561  0.6139  0.4609
11452TIP3   OH255846   3.160   3.273   0.322 -0.2695  0.0158  0.2449
11452TIP3    H155847   3.137   3.352   0.371  1.7226  0.8092 -0.0177
11452TIP3    H255848   3.249   3.252   0.350 -0.4618 -1.6952 -0.2885
11453TIP3   OH255849   4.287   3.590   1.385 -0.2716  0.3862  0.0116
11453TIP3    H155850   4.350   3.536   1.338  0.3200 -1.3422  2.5648
11453TIP3    H255851   4.326   3.677   1.386  0.2707  0.1881 -1.5285
11454TIP3   OH255852   6.025   3.042  14.737 -0.2572 -0.2816  0.6519
11454TIP3    H155853   6.036   3.072  14.827  1.5690  3.1400 -0.5524
11454TIP3    H255854   6.100   3.078  14.690 -2.5088  0.4126 -2.7758
11455TIP3   OH255855   5.009   1.234   3.894  0.3482 -0.8397 -0.0081
11455TIP3    H155856   5.024   1.312   3.948 -0.4396 -0.4491 -0.3402
11455TIP3    H255857   4.985   1.167   3.957 -0.2886 -0.4598  0.1586
11456TIP3   OH255858   5.432   1.107   2.599  0.0363  0.0666  0.1283
11456TIP3    H155859   5.434   1.163   2.521  0.3225 -1.1419 -0.7604
11456TIP3    H255860   5.501   1.142   2.655  1.0852 -0.1548 -0.9756
11457TIP3   OH255861   3.551   2.624   0.319  0.4093  0.0330  0.1363
11457TIP3    H155862   3.521   2.626   0.229 -2.4884 -2.4838  0.8807
11457TIP3    H255863   3.533   2.712   0.352 -0.4734  0.3708 -1.1711
11458TIP3   OH255864   0.431   5.055   2.660 -0.3021  0.5382 -0.1389
11458TIP3    H155865   0.487   5.062   2.583 -0.4830 -1.2076 -0.4645
11458TIP3    H255866   0.460   5.126   2.718  1.1782  0.6296 -0.9595
11459TIP3   OH255867   5.809   1.253   0.604 -0.0932 -0.1664  0.2570
11459TIP3    H155868   5.801   1.282   0.513 -0.5588 -0.5045  0.1847
11459TIP3    H255869   5.900   1.224   0.612  0.2450  0.8436  0.2010
11460TIP3   OH255870   1.288   0.535  12.264  0.3638  0.0006  0.0900
11460TIP3    H155871   1.207   0.491  12.291 -0.0645 -0.0347 -1.1937
11460TIP3    H255872   1.258   0.616  12.223  0.9502 -0.2170 -0.7814
11461TIP3   OH255873   4.456   3.558  15.016  0.0833  0.4385  0.1672
11461TIP3    H155874   4.448   3.529  15.107 -0.2144  0.7916  0.2519
11461TIP3    H255875   4.428   3.649  15.016  0.2230  0.4864 -0.2541
11462TIP3   OH255876   6.294   4.892  13.161 -0.2746  0.6387 -0.8865
11462TIP3    H155877   6.270   4.802  13.182 -0.3914  0.6577 -0.9361
11462TIP3    H255878   6.369   4.911  13.218 -0.5541  0.6723 -0.5288
11463TIP3   OH255879   4.010   0.880   5.787 -0.2001 -0.0023  0.1466
11463TIP3    H155880   4.090   0.850   5.745 -0.3824  0.0515 -0.2450
11463TIP3    H255881   4.022   0.975   5.797 -0.5524  0.1388 -0.6714
11464TIP3   OH255882   3.162   3.890  11.609 -0.4202 -0.0092 -0.3189
11464TIP3    H155883   3.169   3.795  11.597  0.7036  0.0659 -0.3765
11464TIP3    H255884   3.068   3.906  11.619 -0.5439 -1.2794  0.9016
11465TIP3   OH255885   2.743   6.093  11.486  0.2163 -0.1854 -0.1622
11465TIP3    H155886   2.699   6.013  11.456  0.4406 -0.7123  0.8616
11465TIP3    H255887   2.675   6.142  11.532  0.3311 -0.2799  0.1091
11466TIP3   OH255888   2.981   4.073  14.077 -0.0997  0.0746 -0.0474
11466TIP3    H155889   2.923   4.072  14.153 -0.8178 -0.1281 -0.5861
11466TIP3    H255890   3.032   3.992  14.085 -1.7057 -1.0649 -0.9230
11467TIP3   OH255891   4.140   3.209  12.098  0.0107  0.0343 -0.0775
11467TIP3    H155892   4.231   3.196  12.073  0.9843  2.4195  1.8470
11467TIP3    H255893   4.120   3.134  12.155  1.2345  0.1398  0.5319
11468TIP3   OH255894   0.219   1.226   1.309  0.0131 -0.1772 -0.5596
11468TIP3    H155895   0.288   1.201   1.247  0.3387  1.1247 -0.7494
11468TIP3    H255896   0.196   1.145   1.354  2.6047 -0.4221  0.4513
11469TIP3   OH255897   2.613   4.334   3.253 -0.6004 -0.2115  0.4729
11469TIP3    H155898   2.637   4.241   3.259  1.3012  0.1503 -0.6249
11469TIP3    H255899   2.552   4.338   3.179 -0.6261 -0.5877  0.4702
11470TIP3   OH255900   3.190   0.913   2.794 -0.6912  0.2300 -0.9605
11470TIP3    H155901   3.238   0.968   2.856 -0.7485  0.4480 -1.1088
11470TIP3    H255902   3.142   0.851   2.849 -0.0474 -0.1521 -0.8190
11471TIP3   OH255903   5.017   4.914   1.241  0.0305 -0.3918 -0.4662
11471TIP3    H155904   5.090   4.976   1.242 -1.4141  1.4086 -1.1058
11471TIP3    H255905   4.942   4.965   1.210 -1.5280 -2.1565  0.1753
11472TIP3   OH255906   6.658   6.764   1.644  0.2417  0.1876  0.0707
11472TIP3    H155907   6.591   6.829   1.623  0.5773  0.4341 -0.2605
11472TIP3    H255908   6.691   6.735   1.559  0.3950 -0.1000  0.2255
11473TIP3   OH255909   4.489   5.218  11.862  0.0332  0.0671 -0.0026
11473TIP3    H155910   4.530   5.181  11.941  0.6642  2.0246  0.6388
11473TIP3    H255911   4.474   5.310  11.883 -1.3527  0.2535 -1.5834
11474TIP3   OH255912   0.088   4.372   5.970 -0.1357  0.2127 -0.6173
11474TIP3    H155913   0.037   4.399   6.047  0.7545 -0.2474  0.1530
11474TIP3    H255914   0.163   4.430   5.970  0.7339 -0.8617 -0.1391
11475TIP3   OH255915   4.653   0.930  13.200 -0.3453  0.4388  0.1996
11475TIP3    H155916   4.651   1.024  13.220  0.0674  0.5151 -0.1156
11475TIP3    H255917   4.732   0.918  13.147 -2.1012  0.4824 -2.6175
11476TIP3   OH255918   0.182   6.765  13.045  0.3879 -0.1863 -0.2458
11476TIP3    H155919   0.138   6.761  12.960 -0.0220  0.1055 -0.0473
11476TIP3    H255920   0.270   6.796  13.024 -0.2141  1.5065 -0.3863
11477TIP3   OH255921   0.471   5.698   2.457  0.4153  1.0908 -0.3241
11477TIP3    H155922   0.453   5.747   2.537  2.6080 -1.0936  1.6646
11477TIP3    H255923   0.385   5.669   2.427 -0.4973  2.3282  0.9785
11478TIP3   OH255924   5.386   0.253  15.915 -0.1190  0.2206  0.5174
11478TIP3    H155925   5.373   0.277  15.823  0.9979  1.3004  0.6236
11478TIP3    H255926   5.336   0.172  15.925  0.6126 -0.5210 -1.3257
11479TIP3   OH255927   6.223   1.407   1.421 -0.6879  0.1172 -0.3326
11479TIP3    H155928   6.275   1.414   1.340 -0.3682 -0.3428 -0.1735
11479TIP3    H255929   6.180   1.492   1.430  0.7123  0.8126 -0.0103
11480TIP3   OH255930   1.361   6.801   5.005 -0.1296 -0.2634  0.3966
11480TIP3    H155931   1.295   6.851   5.053  0.1182  0.9675 -0.5005
11480TIP3    H255932   1.403   6.866   4.948  1.6234 -1.0796  0.7002
11481TIP3   OH255933   6.755   4.221   5.823 -0.6264 -0.7439  0.2394
11481TIP3    H155934   6.687   4.285   5.804 -1.0629 -1.5858 -1.2485
11481TIP3    H255935   6.835   4.273   5.833 -1.0948  0.0899 -0.2410
11482TIP3   OH255936   2.094   5.922  13.177  0.1617 -0.4003  0.4555
11482TIP3    H155937   2.120   5.832  13.198  0.0404 -0.0574  2.2364
11482TIP3    H255938   2.025   5.942  13.240 -2.0678 -0.0916 -1.9042
11483TIP3   OH255939   2.014   4.153   5.182 -0.3379 -0.3460 -0.2176
11483TIP3    H155940   2.018   4.109   5.097 -0.1694 -1.0392  0.1403
11483TIP3    H255941   1.985   4.085   5.243  1.2749 -0.3317  0.6014
11484TIP3   OH255942   2.229   2.402   3.959 -0.4664  0.2559  0.3048
11484TIP3    H155943   2.314   2.435   3.988  1.0256 -2.9020 -0.0533
11484TIP3    H255944   2.248   2.360   3.875 -2.3981 -0.4294  0.1716
11485TIP3   OH255945   5.082   3.697   2.239 -0.1104 -0.3171  0.8165
11485TIP3    H155946   5.015   3.707   2.172 -1.8172 -2.8714  1.9719
11485TIP3    H255947   5.158   3.743   2.204 -1.5976  0.3538 -1.8095
11486TIP3   OH255948   3.208   2.766   2.796  0.0942  0.0549 -0.0224
11486TIP3    H155949   3.198   2.861   2.806 -0.4629  0.1876 -1.6029
11486TIP3    H255950   3.260   2.739   2.872 -0.3860  1.5012  0.8604
11487TIP3   OH255951   5.812   2.935   0.825  0.2307  0.7655  0.1173
11487TIP3    H155952   5.846   2.922   0.913  1.0336  0.1494 -0.2722
11487TIP3    H255953   5.802   3.030   0.817  0.0780  0.8188  0.8941
11488TIP3   OH255954   4.680   2.347   0.926 -0.1231  0.4575  0.4523
11488TIP3    H155955   4.695   2.344   1.021  0.4145  0.8494  0.3838
11488TIP3    H255956   4.588   2.374   0.917 -0.6421 -1.0619  0.8697
11489TIP3   OH255957   4.082   1.316  14.025 -0.0240 -0.3716  0.2019
11489TIP3    H155958   4.022   1.307  14.099 -1.3282 -0.3960 -0.8127
11489TIP3    H255959   4.063   1.402  13.989  1.2997  0.0539  0.4571
11490TIP3   OH255960   2.006   6.284   4.705 -0.2392 -0.8360 -0.7674
11490TIP3    H155961   1.993   6.337   4.784 -2.1710 -3.1496  0.6013
11490TIP3    H255962   2.002   6.347   4.633 -1.1834  1.0310  0.8324
11491TIP3   OH255963   3.197   1.174  14.870  0.3360  0.0582 -0.0265
11491TIP3    H155964   3.241   1.207  14.792 -0.6103 -2.2042 -1.6218
11491TIP3    H255965   3.104   1.193  14.855  0.2177  0.3459  0.9710
11492TIP3   OH255966   5.049   0.429  15.586  0.0178 -0.4733  0.2006
11492TIP3    H155967   4.974   0.461  15.536 -0.4222 -0.7585  0.6726
11492TIP3    H255968   5.118   0.494  15.570 -0.4154 -0.0608 -0.0107
11493TIP3   OH255969   5.129   3.383   6.239 -0.3739  0.8148  0.0169
11493TIP3    H155970   5.108   3.359   6.329 -1.1185  0.6082 -0.2073
11493TIP3    H255971   5.186   3.460   6.247  0.2156  0.3263  0.6759
11494TIP3   OH255972   6.519   0.287   0.210 -0.0355  0.3761  0.6370
11494TIP3    H155973   6.491   0.199   0.184  1.8847  0.3844 -1.8344
11494TIP3    H255974   6.440   0.327   0.246 -2.1662 -0.9668 -2.0906
11495TIP3   OH255975   4.627   4.713  12.028 -0.2293  0.1678  0.6372
11495TIP3    H155976   4.542   4.754  12.013 -1.0181 -0.9127  2.0288
11495TIP3    H255977   4.619   4.669  12.112  1.3765 -0.8229  0.3196
11496TIP3   OH255978   5.236   6.119  14.768  0.5113  0.4620  0.1688
11496TIP3    H155979   5.258   6.054  14.835  0.4671 -1.0038 -1.1722
11496TIP3    H255980   5.167   6.171  14.807  0.8364 -0.0329  1.4540
11497TIP3   OH255981   3.326   3.289  15.334 -0.5561  0.0564  0.5131
11497TIP3    H155982   3.360   3.214  15.383 -0.7600  0.8089  1.8581
11497TIP3    H255983   3.398   3.315  15.277 -0.0479 -0.3819  0.9439
11498TIP3   OH255984   4.458   2.246   3.064  0.4038  0.4225 -0.1420
11498TIP3    H155985   4.397   2.311   3.029  0.0071 -0.4560 -1.1583
11498TIP3    H255986   4.531   2.245   3.002 -0.1258 -0.8747 -0.8039
11499TIP3   OH255987   0.589   1.686  14.099  0.7183 -0.0600  0.4895
11499TIP3    H155988   0.564   1.623  14.032  0.4054 -0.2195  0.7501
11499TIP3    H255989   0.550   1.652  14.180 -1.1702  1.4799  0.3074
11500TIP3   OH255990   1.275   6.444  10.436 -0.0999 -0.1966 -0.1409
11500TIP3    H155991   1.258   6.538  10.448  1.5843  0.1497 -0.2833
11500TIP3    H255992   1.263   6.430  10.342  3.0707  0.6904 -0.7927
11501TIP3   OH255993   2.311   2.340  12.350 -0.3894 -0.0223 -0.1555
11501TIP3    H155994   2.259   2.349  12.270 -2.5771  0.2696  1.2073
11501TIP3    H255995   2.342   2.428  12.369  2.7410 -0.5345 -2.2059
11502TIP3   OH255996   2.574   3.817  15.779 -0.2577 -0.4320 -0.4154
11502TIP3    H155997   2.636   3.773  15.721 -0.0776 -1.1451  0.3060
11502TIP3    H255998   2.622   3.895  15.809 -0.1177 -0.4000 -0.7091
11503TIP3   OH255999   0.719   5.233   0.705  0.2683 -0.3863 -0.7554
11503TIP3    H156000   0.762   5.178   0.770 -0.2156 -1.5674 -1.4052
11503TIP3    H256001   0.769   5.315   0.705  0.5209 -0.5262  0.7845
11504TIP3   OH256002   3.567   5.642   3.396  0.1586 -0.0348 -0.3979
11504TIP3    H156003   3.570   5.548   3.377  2.1865 -0.1905  0.4611
11504TIP3    H256004   3.579   5.685   3.312  1.2754 -0.6032 -0.5468
11505TIP3   OH256005   3.994   3.968   0.034  0.1035  0.2705 -0.3663
11505TIP3    H156006   3.956   3.885   0.063 -0.1130  0.6675  0.5364
11505TIP3    H256007   4.088   3.950   0.025  0.4823  0.5330  2.3088
11506TIP3   OH256008   3.185   1.711   3.563 -0.3582 -0.2104  0.5930
11506TIP3    H156009   3.093   1.686   3.554 -0.8094  1.6117 -0.5241
11506TIP3    H256010   3.184   1.786   3.622  0.4172 -0.2162  0.6215
11507TIP3   OH256011   4.147   4.031  13.075 -0.6020 -0.0054 -0.1158
11507TIP3    H156012   4.201   4.046  13.153  0.5826 -3.5751 -0.0342
11507TIP3    H256013   4.079   3.970  13.105 -0.4280 -1.0282 -1.6838
11508TIP3   OH256014   5.324   0.166   0.855  0.7721 -0.3340 -0.4828
11508TIP3    H156015   5.300   0.131   0.941  1.3038  0.2570 -0.0884
11508TIP3    H256016   5.393   0.107   0.824  0.2975 -0.7883 -0.6892
11509TIP3   OH256017   3.403   2.282  11.858  0.6994  0.0716 -0.0551
11509TIP3    H156018   3.429   2.200  11.899  0.3242 -0.8803 -1.6375
11509TIP3    H256019   3.455   2.349  11.902  1.3635 -1.0718  0.9338
11510TIP3   OH256020   1.941   4.724  13.327  0.1192  0.4364 -0.1000
11510TIP3    H156021   1.982   4.774  13.398  0.1655  1.5910 -0.9104
11510TIP3    H256022   1.986   4.640  13.328 -1.5205 -0.5391  2.7991
11511TIP3   OH256023   1.047   4.249   2.394  0.4138 -0.7230  0.7017
11511TIP3    H156024   1.116   4.232   2.458  1.5831 -0.5213 -0.4615
11511TIP3    H256025   1.079   4.324   2.343  0.4219 -2.0288 -1.3210
11512TIP3   OH256026   1.240   5.126   1.375 -0.1953 -0.5628 -0.3168
11512TIP3    H156027   1.276   5.214   1.390  0.5598 -1.1151  1.3210
11512TIP3    H256028   1.145   5.137   1.384 -0.0544 -0.0373  0.6973
11513TIP3   OH256029   3.644   5.337   1.209 -0.1335 -0.7324  0.3708
11513TIP3    H156030   3.693   5.361   1.288  1.8444 -1.5565 -0.5495
11513TIP3    H256031   3.580   5.273   1.239  0.0976 -0.4893  1.4281
11514TIP3   OH256032   1.030   6.751  12.478 -0.4070 -0.1117 -0.2554
11514TIP3    H156033   0.947   6.800  12.477 -1.1607 -1.2711  1.5637
11514TIP3    H256034   1.013   6.675  12.533  1.9560 -0.2829  0.3377
11515TIP3   OH256035   1.140   3.109   3.928  0.2626 -0.2627  0.7287
11515TIP3    H156036   1.150   3.029   3.980  0.5973 -1.4478 -1.0761
11515TIP3    H256037   1.154   3.180   3.991 -1.7296 -1.5446  2.7497
11516TIP3   OH256038   4.199   6.177   5.807  0.1198  0.3143  0.4928
11516TIP3    H156039   4.282   6.154   5.848  0.8036 -1.3873 -1.6310
11516TIP3    H256040   4.145   6.098   5.816  0.7103 -0.5925 -2.6539
11517TIP3   OH256041   3.387   0.309   4.407  0.4742  0.0099  0.2913
11517TIP3    H156042   3.327   0.237   4.385  0.3101  0.3694 -0.4651
11517TIP3    H256043   3.380   0.317   4.502  2.0433 -2.3471  0.7090
11518TIP3   OH256044   4.502   5.489   5.790 -0.0223  0.2562 -1.0266
11518TIP3    H156045   4.424   5.448   5.753  0.8528 -0.9679 -1.5637
11518TIP3    H256046   4.492   5.477   5.885 -0.7741  0.6564 -1.0473
11519TIP3   OH256047   1.303   0.894   2.021  0.1736 -0.0137 -0.0786
11519TIP3    H156048   1.227   0.950   2.035  0.5655  0.3401  0.6299
11519TIP3    H256049   1.355   0.940   1.955 -0.6600 -0.6986 -1.2587
11520TIP3   OH256050   4.094   6.251  17.059  0.5791  0.1654  0.6308
11520TIP3    H156051   4.179   6.289  17.036  0.3702  0.6206  0.6072
11520TIP3    H256052   4.067   6.296  17.138 -0.7121  1.7060 -0.6240
11521TIP3   OH256053   1.010   5.926  14.986 -0.2644 -0.4333  0.0016
11521TIP3    H156054   1.039   5.835  14.991  2.5490  0.2854 -0.9332
11521TIP3    H256055   1.038   5.964  15.070  0.3929 -0.0223 -0.3897
11522TIP3   OH256056   5.774   6.414   5.398  0.2390 -0.4173 -0.3483
11522TIP3    H156057   5.826   6.370   5.466 -0.3848 -1.9313 -0.8099
11522TIP3    H256058   5.823   6.493   5.378  0.3210  0.2226  2.0430
11523TIP3   OH256059   2.290   5.585   0.467  0.3109 -0.3478  0.0146
11523TIP3    H156060   2.225   5.600   0.399  0.8689  0.9367 -0.2697
11523TIP3    H256061   2.353   5.525   0.428 -0.2653 -0.9515  0.0051
11524TIP3   OH256062   2.034   2.530   0.118 -0.0033 -0.0706  0.0355
11524TIP3    H156063   2.080   2.456   0.158 -2.4501 -1.9238 -0.3481
11524TIP3    H256064   2.016   2.501   0.028 -1.2356  0.8731 -0.0480
11525TIP3   OH256065   1.540   1.175   2.791 -0.6358  0.0426  0.1085
11525TIP3    H156066   1.478   1.170   2.719 -2.7143 -2.7378  1.8756
11525TIP3    H256067   1.485   1.179   2.870  1.3376 -2.3404  1.7730
11526TIP3   OH256068   3.691   5.360  14.145 -0.3879  0.2734  0.7821
11526TIP3    H156069   3.743   5.333  14.068 -1.0220  1.9847 -0.2986
11526TIP3    H256070   3.757   5.374  14.214  0.2316 -0.8840  0.4622
11527TIP3   OH256071   6.019   3.261  15.514 -0.3133 -0.2967  0.2018
11527TIP3    H156072   6.022   3.324  15.442 -0.3351 -1.3608 -0.7414
11527TIP3    H256073   6.110   3.247  15.538 -0.3129  0.1618  0.4957
11528TIP3   OH256074   3.595   1.008   3.408 -0.1464 -0.2860  0.2723
11528TIP3    H156075   3.585   0.984   3.500  1.4579 -0.2362  0.4930
11528TIP3    H256076   3.538   1.084   3.396 -0.1520 -0.1196  1.3005
11529TIP3   OH256077   0.262   2.101   4.165 -0.0935  0.0291  0.1166
11529TIP3    H156078   0.305   2.166   4.109 -0.2399 -0.1177 -0.1709
11529TIP3    H256079   0.182   2.144   4.194 -0.0626  0.0729  0.1366
11530TIP3   OH256080   1.367   3.499   1.435  0.1420 -0.8398 -0.2465
11530TIP3    H156081   1.352   3.581   1.482 -0.4877 -0.9907 -0.1682
11530TIP3    H256082   1.323   3.433   1.488  0.6774 -1.2343 -0.2904
11531TIP3   OH256083   1.222   4.626  16.405 -0.3759  0.3118  0.3563
11531TIP3    H156084   1.294   4.647  16.465 -0.5160 -1.5061  1.2157
11531TIP3    H256085   1.168   4.564  16.453 -2.0863  1.0019 -0.6037
11532TIP3   OH256086   4.480   2.292   4.997  0.5375  0.2349 -0.1159
11532TIP3    H156087   4.563   2.320   4.960 -0.5601  2.6173 -0.9546
11532TIP3    H256088   4.430   2.258   4.923 -0.0584  0.9481 -0.0514
11533TIP3   OH256089   4.682   5.655  13.816  0.2392  0.8159 -0.1488
11533TIP3    H156090   4.649   5.743  13.836 -1.7648 -0.4007  2.4288
11533TIP3    H256091   4.763   5.647  13.866  0.6277  1.2986 -0.6897
11534TIP3   OH256092   5.037   5.681   2.430  0.6341  0.0847 -0.6845
11534TIP3    H156093   5.004   5.609   2.484  0.7866  0.0463 -0.6409
11534TIP3    H256094   4.970   5.694   2.362 -0.6711  1.6082  0.7898
11535TIP3   OH256095   1.461   2.786  12.935  0.3048  0.3706 -0.2920
11535TIP3    H156096   1.419   2.710  12.974 -1.4873  2.0943  1.3792
11535TIP3    H256097   1.415   2.799  12.852 -0.0718  0.1923 -0.1123
11536TIP3   OH256098   1.591   3.435  14.758 -0.1876  0.0638  0.4899
11536TIP3    H156099   1.527   3.478  14.702 -0.9716 -0.7470  0.7368
11536TIP3    H256100   1.593   3.344  14.727  0.8303  0.0747  0.4957
11537TIP3   OH256101   6.167   2.256  16.818  0.1991 -0.4470  0.1780
11537TIP3    H156102   6.141   2.279  16.728  1.7812 -0.3811 -0.2963
11537TIP3    H256103   6.088   2.273  16.870 -0.6600 -0.1708 -1.1414
11538TIP3   OH256104   3.035   5.864  12.606  0.0604 -0.0455  0.0695
11538TIP3    H156105   3.035   5.791  12.668  2.6134 -0.4011 -0.2227
11538TIP3    H256106   3.015   5.940  12.660 -0.8697 -0.7124  0.7128
11539TIP3   OH256107   2.554   0.235   2.639 -0.0003  0.8855 -0.1123
11539TIP3    H156108   2.591   0.227   2.727  1.4831  1.3534 -0.6540
11539TIP3    H256109   2.495   0.160   2.630 -0.4085  1.0045  1.3775
11540TIP3   OH256110   4.612   5.325   5.372 -0.1402 -0.2967  0.7247
11540TIP3    H156111   4.563   5.384   5.316  1.2484  0.3003  0.0735
11540TIP3    H256112   4.549   5.258   5.399 -1.7658  1.4522  1.4924
11541TIP3   OH256113   2.803   2.428   4.799  0.5453 -0.1656  0.2430
11541TIP3    H156114   2.880   2.479   4.821 -0.4791  0.8214  1.7357
11541TIP3    H256115   2.835   2.360   4.739  2.2852  1.0461 -0.2689
11542TIP3   OH256116   0.544   0.516  14.645 -0.1379 -0.4584 -0.1015
11542TIP3    H156117   0.458   0.554  14.664 -0.4298 -0.3391 -1.5699
11542TIP3    H256118   0.599   0.545  14.718 -0.8768  1.0686 -0.1077
11543TIP3   OH256119   0.239   4.732  16.765 -0.1243 -0.1255 -0.2027
11543TIP3    H156120   0.259   4.657  16.822 -1.8688  0.5500  1.4264
11543TIP3    H256121   0.239   4.696  16.677  1.5998 -1.4648  0.2879
11544TIP3   OH256122   1.858   1.124  11.502  0.2872  0.3614 -0.1536
11544TIP3    H156123   1.791   1.061  11.528 -0.5768  0.3029 -2.3187
11544TIP3    H256124   1.836   1.204  11.550 -1.3464  0.3445 -0.8361
11545TIP3   OH256125   1.049   0.224  14.301 -0.2292  0.8187  0.0958
11545TIP3    H156126   1.052   0.310  14.261  0.1552  0.8518  0.1863
11545TIP3    H256127   0.957   0.210  14.323 -0.2498  1.3269  0.3403
11546TIP3   OH256128   2.303   2.840  13.712 -0.1743 -0.0867  0.7457
11546TIP3    H156129   2.213   2.812  13.693 -0.4705  1.2724  0.0169
11546TIP3    H256130   2.353   2.815  13.635 -0.1232 -0.0201  0.7570
11547TIP3   OH256131   2.658   3.664   4.173 -0.2733 -0.1193  0.9617
11547TIP3    H156132   2.609   3.649   4.254  1.7575 -2.4669  1.8978
11547TIP3    H256133   2.749   3.667   4.201  0.4997 -1.1355 -1.2570
11548TIP3   OH256134   6.446   2.740  15.310 -0.0354  1.0163  0.3232
11548TIP3    H156135   6.528   2.730  15.359  0.5487  1.5817 -0.5158
11548TIP3    H256136   6.412   2.651  15.302 -0.0606  0.8864  1.5909
11549TIP3   OH256137   4.014   3.087   0.603 -0.1372  0.0522 -0.2870
11549TIP3    H156138   4.017   3.166   0.657 -1.6866 -0.7847  1.1445
11549TIP3    H256139   4.105   3.057   0.598  0.3267  1.3741 -0.0129
11550TIP3   OH256140   3.719   5.162  13.604 -0.1261 -0.0389  0.2403
11550TIP3    H156141   3.637   5.150  13.652  1.2207  0.1215  2.7039
11550TIP3    H256142   3.739   5.075  13.569 -1.5255  0.0130 -0.7546
11551TIP3   OH256143   1.629   5.598  16.789  0.1632 -0.3920  0.0444
11551TIP3    H156144   1.559   5.642  16.741  0.7225  1.5392  0.8785
11551TIP3    H256145   1.593   5.586  16.877  0.6356  0.0051  0.2945
11552TIP3   OH256146   0.823   1.710  16.042 -0.1186 -0.1733 -0.1279
11552TIP3    H156147   0.918   1.712  16.031  0.0208 -0.0904  1.0344
11552TIP3    H256148   0.808   1.732  16.133 -1.3114  0.7109 -0.5087
11553TIP3   OH256149   3.588   3.660   0.123 -0.5292  0.3523  0.4348
11553TIP3    H156150   3.657   3.597   0.102 -1.0129 -0.0302 -0.0517
11553TIP3    H256151   3.587   3.720   0.049 -0.3077  0.7270  0.7328
11554TIP3   OH256152   5.284   5.855   6.216 -0.0728 -0.6693  0.0047
11554TIP3    H156153   5.237   5.914   6.274  0.2957 -0.8546  0.4990
11554TIP3    H256154   5.377   5.869   6.238  0.0253 -1.3150  0.0209
11555TIP3   OH256155   6.855   4.262  11.307  0.5175 -0.0214 -1.1770
11555TIP3    H156156   6.772   4.309  11.318 -0.2854 -1.1393 -2.2163
11555TIP3    H256157   6.837   4.196  11.240  2.3224 -0.1386 -1.6057
11556TIP3   OH256158   1.253   3.944   5.457 -0.0440 -0.1760 -0.1729
11556TIP3    H156159   1.327   3.946   5.517 -0.1981  1.7005  0.0039
11556TIP3    H256160   1.197   4.017   5.485 -1.5688 -1.0475 -0.8016
11557TIP3   OH256161   0.800   1.739   4.303  0.3488  0.1454 -0.1382
11557TIP3    H156162   0.723   1.713   4.353 -2.9806  1.9969 -3.7539
11557TIP3    H256163   0.823   1.825   4.338  1.4175 -0.7418  1.4766
11558TIP3   OH256164   0.774   2.023  13.519  0.5876 -0.3136  0.0724
11558TIP3    H156165   0.684   1.994  13.530  1.7921 -4.3514  1.0057
11558TIP3    H256166   0.790   2.016  13.425  0.3049 -1.0972  0.0700
11559TIP3   OH256167   2.835   0.141  14.704 -0.3818 -0.0903 -0.3438
11559TIP3    H156168   2.923   0.132  14.742 -1.1741  0.8371  1.8522
11559TIP3    H256169   2.814   0.233  14.713 -1.1513 -0.0732 -1.9698
11560TIP3   OH256170   2.270   3.468   5.543 -0.3813 -0.2238 -0.9352
11560TIP3    H156171   2.362   3.457   5.516  0.4393  2.8284  0.2127
11560TIP3    H256172   2.249   3.387   5.590  1.6903 -1.0404 -1.3086
11561TIP3   OH256173   0.813   4.283  15.119 -0.4451 -0.1838  0.2578
11561TIP3    H156174   0.757   4.242  15.053 -0.8284  0.5890  0.0976
11561TIP3    H256175   0.752   4.311  15.187 -0.3156  1.0978 -0.1355
11562TIP3   OH256176   4.307   2.123  16.211  0.3105  0.3256  0.1068
11562TIP3    H156177   4.392   2.086  16.186 -0.0753  0.5152 -1.6396
11562TIP3    H256178   4.242   2.062  16.175 -0.3012  0.9165  0.1863
11563TIP3   OH256179   2.201   3.192   4.054 -0.3737 -0.1325  0.0405
11563TIP3    H156180   2.144   3.163   4.124  0.9481 -0.1085  1.1618
11563TIP3    H256181   2.165   3.151   3.975 -1.3618 -0.8767  0.8600
11564TIP3   OH256182   2.550   0.321  11.367 -0.3671  0.2613  0.3100
11564TIP3    H156183   2.459   0.344  11.349 -0.9624 -1.5288  0.8496
11564TIP3    H256184   2.546   0.258  11.439  1.4279  1.3755  1.4640
11565TIP3   OH256185   6.148   3.094   6.319 -0.3566 -0.5321  0.5487
11565TIP3    H156186   6.064   3.140   6.324 -0.5985 -1.0042  0.9510
11565TIP3    H256187   6.203   3.138   6.384 -0.4370 -0.5145  0.6042
11566TIP3   OH256188   5.923   5.351  16.981  0.5603  0.3953  0.0809
11566TIP3    H156189   6.002   5.386  17.022 -0.8653  0.3485  3.1587
11566TIP3    H256190   5.883   5.427  16.938  1.8481  0.5642 -0.8740
11567TIP3   OH256191   4.487   6.108  14.644 -0.1475 -0.6386 -0.4824
11567TIP3    H156192   4.508   6.201  14.655 -0.8615 -0.5537  0.3308
11567TIP3    H256193   4.527   6.084  14.561 -0.8929  0.6805 -1.2555
11568TIP3   OH256194   1.479   2.126   2.532 -0.4272 -0.1680  0.0895
11568TIP3    H156195   1.543   2.180   2.485 -2.1586  0.2489 -1.9699
11568TIP3    H256196   1.501   2.036   2.509  0.5532 -0.1596  0.9566
11569TIP3   OH256197   6.448   5.953   0.133 -0.9871 -0.8040 -0.0925
11569TIP3    H156198   6.394   5.933   0.209 -0.6679  1.4581  0.8210
11569TIP3    H256199   6.507   5.878   0.125 -2.3377 -1.9870  0.6456
11570TIP3   OH256200   4.116   5.533  11.722 -0.1015 -0.7726  0.0421
11570TIP3    H156201   4.081   5.519  11.634  1.6738 -2.2494 -0.4924
11570TIP3    H256202   4.126   5.628  11.729 -0.9671 -0.5766 -1.0521
11571TIP3   OH256203   4.931   1.791   1.682  0.0889 -0.2935 -0.0699
11571TIP3    H156204   4.930   1.886   1.696 -0.0020 -0.5601  1.9659
11571TIP3    H256205   5.020   1.765   1.705 -0.2603 -0.8657  0.6511
11572TIP3   OH256206   2.948   5.918   0.834  0.4528  0.2673  0.2728
11572TIP3    H156207   2.868   5.866   0.834  0.0742  0.7948 -1.4490
11572TIP3    H256208   2.958   5.948   0.743  2.7929 -0.0840  0.3352
11573TIP3   OH256209   3.017   4.272  13.890  0.1793  0.5443 -0.3025
11573TIP3    H156210   2.926   4.287  13.866  0.3246  1.9665 -0.0280
11573TIP3    H256211   3.015   4.193  13.944 -0.9918  0.9921  0.3348
11574TIP3   OH256212   0.896   3.558  11.456 -0.0581 -0.6729  0.4855
11574TIP3    H156213   0.868   3.643  11.424  1.1720 -0.4374 -0.0146
11574TIP3    H256214   0.823   3.499  11.434 -0.5826  0.0862  0.1322
11575TIP3   OH256215   5.576   0.344  13.676 -0.0303 -0.0408  0.2752
11575TIP3    H156216   5.634   0.295  13.735  0.3616  0.9346  0.7329
11575TIP3    H256217   5.541   0.415  13.731  0.3556  0.8977 -0.6570
11576TIP3   OH256218   0.543   1.895   0.323  0.0122  0.0147 -0.2681
11576TIP3    H156219   0.548   1.989   0.342  0.3766 -0.2612  1.1031
11576TIP3    H256220   0.619   1.858   0.368 -0.8345 -1.0970  0.2894
11577TIP3   OH256221   1.052   3.557  15.760 -1.0581 -0.2525  0.0612
11577TIP3    H156222   1.026   3.619  15.828 -2.5556  0.7526 -1.3394
11577TIP3    H256223   1.143   3.580  15.740 -1.2260  0.7309  0.3776
11578TIP3   OH256224   6.264   5.792   2.214 -0.2939  0.3769  0.0299
11578TIP3    H156225   6.261   5.864   2.151 -1.5378 -1.2970 -1.9148
11578TIP3    H256226   6.313   5.723   2.171  1.2749  0.1387  2.0401
11579TIP3   OH256227   0.430   5.992  13.931  0.3130  0.5611 -0.4602
11579TIP3    H156228   0.367   5.979  14.001  0.8515 -0.6691 -0.1732
11579TIP3    H256229   0.385   5.963  13.852 -0.3028  1.9709 -0.6543
11580TIP3   OH256230   4.734   2.765   5.391  0.3402  0.0381  0.0566
11580TIP3    H156231   4.814   2.817   5.389 -0.8014  1.8562 -1.7371
11580TIP3    H256232   4.706   2.768   5.483  2.3837 -0.8367  0.7632
11581TIP3   OH256233   4.011   4.762   1.834 -0.6471 -0.1250  0.5113
11581TIP3    H156234   3.989   4.802   1.918  0.9045  0.3271  0.7338
11581TIP3    H256235   3.982   4.825   1.768  0.7815  0.9293  0.8306
11582TIP3   OH256236   5.691   0.145   0.171  0.1834  0.0093 -0.6098
11582TIP3    H156237   5.718   0.237   0.165 -0.8074  0.3187 -0.4586
11582TIP3    H256238   5.773   0.097   0.177  0.7219  0.8721 -0.8570
11583TIP3   OH256239   1.475   6.446   2.043 -0.4696 -0.1952 -0.0180
11583TIP3    H156240   1.429   6.529   2.029  0.0651 -0.0300 -0.8605
11583TIP3    H256241   1.408   6.388   2.080 -1.0147  0.4132 -0.0164
11584TIP3   OH256242   6.349   6.704   0.834  0.4316  0.8205 -0.2088
11584TIP3    H156243   6.404   6.686   0.758 -1.0113  0.2936 -1.1732
11584TIP3    H256244   6.291   6.775   0.805 -0.5409  0.2003  0.1588
11585TIP3   OH256245   5.542   6.136  15.266  0.1670  0.2065 -0.3299
11585TIP3    H156246   5.529   6.208  15.204  1.6291  0.8277  0.0573
11585TIP3    H256247   5.636   6.122  15.268 -0.0332 -1.3213  0.0798
11586TIP3   OH256248   5.497   5.266  16.334  0.5531  0.2496 -0.1943
11586TIP3    H156249   5.521   5.192  16.390  3.5351  1.3510  0.1489
11586TIP3    H256250   5.494   5.229  16.246 -1.3054 -0.8911  0.2860
11587TIP3   OH256251   1.632   3.651  16.851  0.0497  0.0708 -0.0965
11587TIP3    H156252   1.606   3.743  16.860  2.4910  0.7871  0.2056
11587TIP3    H256253   1.650   3.641  16.757  1.0093  0.2949  0.0498
11588TIP3   OH256254   1.352   5.040  12.783  0.2914  0.5877 -0.2468
11588TIP3    H156255   1.291   5.113  12.775 -1.5314 -1.0153 -1.9072
11588TIP3    H256256   1.330   4.999  12.867 -0.6571  0.2971 -0.6224
11589TIP3   OH256257   4.661   5.133   2.538 -0.1010 -0.1831  0.1683
11589TIP3    H156258   4.606   5.147   2.462  1.5015  1.4203 -0.7787
11589TIP3    H256259   4.738   5.189   2.523  0.5098 -0.2090  2.7071
11590TIP3   OH256260   3.178   2.465  12.829  0.1466 -0.3803  0.2645
11590TIP3    H156261   3.158   2.376  12.801 -0.4118  0.0727 -0.8587
11590TIP3    H256262   3.154   2.520  12.754  1.3803  0.6297  0.5634
11591TIP3   OH256263   3.366   0.646  12.934 -0.0986 -0.7447  0.0358
11591TIP3    H156264   3.340   0.554  12.945 -1.1561 -0.3319  1.4127
11591TIP3    H256265   3.306   0.694  12.992  0.6146  0.7882 -0.4493
11592TIP3   OH256266   4.565   4.456  15.114  0.0788  0.1891  0.3819
11592TIP3    H156267   4.635   4.409  15.068 -0.2770 -0.0738  0.1051
11592TIP3    H256268   4.553   4.408  15.195  1.2113  1.0776  1.1065
11593TIP3   OH256269   0.876   2.694   4.863  0.0208 -0.3728 -0.0817
11593TIP3    H156270   0.827   2.672   4.784 -0.4728 -0.9923  0.3849
11593TIP3    H256271   0.810   2.693   4.933  0.6268 -0.8213  0.4981
11594TIP3   OH256272   4.239   3.542  16.490  0.1534 -0.5411 -0.4722
11594TIP3    H156273   4.199   3.544  16.577 -1.1214  2.3506 -1.0132
11594TIP3    H256274   4.324   3.499  16.503 -0.6514 -1.5995  1.8402
11595TIP3   OH256275   4.065   0.804   4.636 -0.3872  0.1177  0.0753
11595TIP3    H156276   4.123   0.758   4.696  1.2941  1.2801 -0.5812
11595TIP3    H256277   4.070   0.753   4.555 -0.6912 -0.0391  0.1498
11596TIP3   OH256278   3.105   1.628  12.330  0.4005  0.4036  0.1651
11596TIP3    H156279   3.129   1.540  12.301 -2.1626 -0.9001  1.6071
11596TIP3    H256280   3.068   1.671  12.253  0.1121 -0.4300 -0.1636
11597TIP3   OH256281   4.892   5.453   1.823  0.0664  0.0579 -0.2807
11597TIP3    H156282   4.979   5.487   1.804  0.4062 -1.9416 -3.0259
11597TIP3    H256283   4.863   5.415   1.740 -2.7295 -0.8799  0.9902
11598TIP3   OH256284   4.921   2.426   0.287  0.3732 -0.1977 -0.3286
11598TIP3    H156285   4.837   2.469   0.269  0.5939  0.0564 -0.7880
11598TIP3    H256286   4.897   2.337   0.314 -0.0219 -0.4086 -1.3113
11599TIP3   OH256287   2.710   0.824   3.479 -0.5524 -0.0040  0.5568
11599TIP3    H156288   2.689   0.827   3.572  0.0305 -1.6397  0.7810
11599TIP3    H256289   2.691   0.733   3.453  2.0937 -0.4497 -0.1736
11600TIP3   OH256290   6.426   0.208  15.427  0.0290 -0.4826  0.5650
11600TIP3    H156291   6.363   0.259  15.479  0.0309 -0.5887  0.6737
11600TIP3    H256292   6.456   0.139  15.487 -0.7422 -1.2448  0.1052
11601TIP3   OH256293   2.887   6.721  15.025 -0.1977 -0.1178  0.2747
11601TIP3    H156294   2.929   6.655  14.969  2.2812  1.1100  0.5234
11601TIP3    H256295   2.959   6.756  15.078 -1.6635  1.8553  1.0868
11602TIP3   OH256296   4.558   2.788  15.687  0.4698  0.1078 -0.5192
11602TIP3    H156297   4.604   2.753  15.763 -2.7081 -0.7920  1.1365
11602TIP3    H256298   4.528   2.874  15.715  1.4453  0.9024 -1.7670
11603TIP3   OH256299   3.830   3.129  17.117 -0.0100  0.3590  0.3794
11603TIP3    H156300   3.819   3.182  17.038  1.3122  0.4805  0.2531
11603TIP3    H256301   3.839   3.039  17.084 -0.2298  0.3133  0.4446
11604TIP3   OH256302   6.237   1.805  14.167 -0.4330 -0.4613 -0.1915
11604TIP3    H156303   6.158   1.834  14.122  0.7754  0.6321 -1.7085
11604TIP3    H256304   6.243   1.860  14.245 -1.0306 -0.4073 -0.1795
11605TIP3   OH256305   1.718   0.298  11.668 -0.1855 -0.0422  0.0892
11605TIP3    H156306   1.690   0.295  11.759 -0.7118  0.6766 -0.0374
11605TIP3    H256307   1.672   0.226  11.626 -0.2468 -0.1334  0.3126
11606TIP3   OH256308   4.650   2.954   6.250 -0.5602 -0.4344  0.6073
11606TIP3    H156309   4.664   2.862   6.273 -3.5525 -1.3263 -0.6808
11606TIP3    H256310   4.634   2.998   6.333 -1.0310 -1.4882  1.0923
11607TIP3   OH256311   4.107   5.609  14.444  0.3148  0.4648  0.0312
11607TIP3    H156312   4.093   5.611  14.538  1.9510 -0.0055  0.3145
11607TIP3    H256313   4.187   5.558  14.433  0.4406  0.9667 -1.5836
11608TIP3   OH256314   4.245   2.690  15.722  0.4191 -1.0550  0.2517
11608TIP3    H156315   4.179   2.638  15.767 -1.1662  1.6933  1.3691
11608TIP3    H256316   4.328   2.662  15.760 -0.5072 -1.7249  1.8980
11609TIP3   OH256317   3.841   2.358  12.453 -0.0649 -0.4128  0.1346
11609TIP3    H156318   3.773   2.404  12.502 -1.1867 -0.7325 -1.0620
11609TIP3    H256319   3.923   2.379  12.499 -0.9035  0.3906  1.3063
11610TIP3   OH256320   6.410   3.051  10.676  0.4144  0.0872 -0.7389
11610TIP3    H156321   6.357   3.037  10.598 -0.6128  1.5214 -0.3237
11610TIP3    H256322   6.348   3.051  10.748  1.2666 -0.5166  0.0227
11611TIP3   OH256323   3.340   1.643  14.027  0.7734  0.0762  0.0120
11611TIP3    H156324   3.389   1.626  13.947 -2.1964 -1.3095 -1.6723
11611TIP3    H256325   3.378   1.582  14.091  1.7039 -0.4156 -0.9643
11612TIP3   OH256326   0.541   3.620   6.649 -0.6167  0.1938  0.2870
11612TIP3    H156327   0.493   3.563   6.709  0.3900  0.8786  1.8113
11612TIP3    H256328   0.626   3.578   6.640 -0.0071  1.2018  1.1074
11613TIP3   OH256329   3.037   2.642  10.486 -0.4336 -0.5451 -0.0776
11613TIP3    H156330   2.969   2.668  10.548 -0.4683 -1.9907  0.5401
11613TIP3    H256331   3.033   2.706  10.416 -0.2294  1.3154  1.5375
11614TIP3   OH256332   5.412   6.124  12.543  0.1513 -0.1214  0.0649
11614TIP3    H156333   5.326   6.154  12.573 -0.4773 -0.9898 -0.8228
11614TIP3    H256334   5.458   6.099  12.624 -0.5987 -0.0902  0.5098
11615TIP3   OH256335   0.900   4.373  10.785  0.0082 -0.9256 -0.1665
11615TIP3    H156336   0.863   4.462  10.792 -1.0171 -1.1299 -2.2134
11615TIP3    H256337   0.857   4.324  10.856  0.4395  0.1435  0.8650
11616TIP3   OH256338   6.604   3.289   1.025 -0.0159 -0.3186  0.6397
11616TIP3    H156339   6.556   3.207   1.035  0.4204 -0.3836  2.4747
11616TIP3    H256340   6.562   3.349   1.087  0.1524  0.6366 -0.1483
11617TIP3   OH256341   5.597   3.181   0.800  0.4993  0.0186 -0.9318
11617TIP3    H156342   5.560   3.258   0.844  0.3632 -0.7915  0.4214
11617TIP3    H256343   5.591   3.202   0.707 -0.9724  0.9999 -0.6508
11618TIP3   OH256344   0.399   0.571   0.538 -0.3474 -0.2729  0.0238
11618TIP3    H156345   0.317   0.546   0.580  0.6717 -2.1437  0.9923
11618TIP3    H256346   0.396   0.530   0.452 -0.1076 -0.9845  0.3516
11619TIP3   OH256347   6.421   4.416   1.895 -0.6390 -0.1572  0.2757
11619TIP3    H156348   6.341   4.447   1.853 -0.0643 -0.1512 -0.8382
11619TIP3    H256349   6.391   4.378   1.978 -1.4402  2.7887  1.4814
11620TIP3   OH256350   5.769   2.954   1.992 -0.2457  0.0523 -0.2216
11620TIP3    H156351   5.815   3.029   1.956 -0.5232  1.9721  3.0606
11620TIP3    H256352   5.838   2.891   2.014  0.6826  1.7518  2.1022
11621TIP3   OH256353   2.278   0.120  11.174 -0.3694 -0.0260  0.1247
11621TIP3    H156354   2.288   0.200  11.226 -1.1939  0.8683 -1.0405
11621TIP3    H256355   2.194   0.084  11.201  1.4460 -2.4715  3.1647
11622TIP3   OH256356   3.772   5.585  10.892 -0.2220 -0.6194 -0.2360
11622TIP3    H156357   3.684   5.556  10.870 -2.3088  2.4935  2.8250
11622TIP3    H256358   3.783   5.667  10.844  0.4824 -0.3757  0.3152
11623TIP3   OH256359   3.857   0.649  10.665  0.1743  0.3251  0.3077
11623TIP3    H156360   3.822   0.727  10.708 -3.1670 -1.3153  0.8323
11623TIP3    H256361   3.783   0.611  10.619  1.6895 -2.4908 -0.0393
11624TIP3   OH256362   3.797   1.334   3.769  0.1446 -0.6431 -0.4109
11624TIP3    H156363   3.827   1.247   3.742  0.9446 -0.6719  0.5410
11624TIP3    H256364   3.868   1.369   3.823 -0.7244  0.0748  0.3003
11625TIP3   OH256365   4.602   4.146  14.942 -0.0714  0.1762 -0.1996
11625TIP3    H156366   4.683   4.198  14.942  0.2678 -0.1764 -2.9910
11625TIP3    H256367   4.615   4.080  15.010  2.0438  0.0845 -0.6309
11626TIP3   OH256368   3.236   2.795   4.433 -0.1936  0.0310  0.3548
11626TIP3    H156369   3.148   2.759   4.422 -0.4052  0.8462 -0.8262
11626TIP3    H256370   3.222   2.884   4.465  0.1763  0.3265 -0.2852
11627TIP3   OH256371   3.196   3.987  10.970 -0.3402  0.3750 -0.5237
11627TIP3    H156372   3.146   4.019  10.895 -1.6841  0.7746  0.4891
11627TIP3    H256373   3.190   3.892  10.965 -0.5789  0.4051 -0.8314
11628TIP3   OH256374   4.438   3.631   3.491  0.8164 -0.0385 -0.6676
11628TIP3    H156375   4.410   3.574   3.562 -1.5054 -0.1368 -1.5619
11628TIP3    H256376   4.439   3.575   3.414 -1.7148  1.0251 -1.6094
11629TIP3   OH256377   3.106   2.421   0.390 -0.2595  0.0799  0.8123
11629TIP3    H156378   3.067   2.467   0.465 -0.6804  1.3644 -0.1619
11629TIP3    H256379   3.109   2.487   0.321 -0.0972 -1.1494 -0.3810
11630TIP3   OH256380   6.604   6.651   1.366 -0.1492 -0.8830 -0.7717
11630TIP3    H156381   6.592   6.651   1.271  2.7538  1.2058 -1.2459
11630TIP3    H256382   6.603   6.743   1.390 -1.5074 -1.4022  1.3959
11631TIP3   OH256383   1.495   4.529   3.556 -0.2192  0.1702 -0.4422
11631TIP3    H156384   1.589   4.515   3.567 -0.2823 -0.8662 -1.0075
11631TIP3    H256385   1.459   4.440   3.549 -1.2515  0.5522 -0.1287
11632TIP3   OH256386   3.355   0.339   4.920 -0.7798  0.2348 -0.4128
11632TIP3    H156387   3.302   0.277   4.869 -0.8903 -0.4564  0.5002
11632TIP3    H256388   3.293   0.406   4.948 -0.8515  0.2605 -0.6310
11633TIP3   OH256389   1.639   4.868  17.039  0.1354  0.4056  0.7100
11633TIP3    H156390   1.649   4.900  17.129  0.4725  0.7416  0.5602
11633TIP3    H256391   1.556   4.821  17.038 -0.1460  0.8917  1.0547
11634TIP3   OH256392   2.175   4.328  12.743  0.2151 -0.1877 -0.1473
11634TIP3    H156393   2.170   4.335  12.648  0.2900 -2.1281 -0.3521
11634TIP3    H256394   2.173   4.418  12.775 -0.0725  0.4849 -1.9645
11635TIP3   OH256395   3.730   6.449   6.567  0.0656 -0.2564  0.4735
11635TIP3    H156396   3.662   6.505   6.603  2.6101  2.6342  1.1458
11635TIP3    H256397   3.708   6.361   6.599 -2.8446  0.6769  1.2953
11636TIP3   OH256398   6.789   6.422  15.274 -0.3206  0.1116  1.1014
11636TIP3    H156399   6.878   6.390  15.284 -0.0837  0.3021 -0.2192
11636TIP3    H256400   6.791   6.511  15.309 -0.0619  0.0286  1.3033
11637TIP3   OH256401   6.614   5.407   5.251  0.4631  0.6566  0.1895
11637TIP3    H156402   6.599   5.333   5.309  1.0521  0.3658 -0.0265
11637TIP3    H256403   6.547   5.398   5.183  1.4180 -0.4975 -0.6368
11638TIP3   OH256404   4.048   5.597  14.978 -0.0737  0.1820 -0.3881
11638TIP3    H156405   3.978   5.536  15.001  0.8292 -0.7306  0.0443
11638TIP3    H256406   4.129   5.549  14.999  0.6601  1.8118  0.7186
11639TIP3   OH256407   1.758   5.948  12.748  0.0850  0.3657 -0.6145
11639TIP3    H156408   1.834   5.931  12.693  1.3339  0.4480  1.0081
11639TIP3    H256409   1.740   6.041  12.735  0.5708  0.4603 -0.6433
11640TIP3   OH256410   4.331   1.627   2.730  0.0505 -0.0060 -0.1467
11640TIP3    H156411   4.423   1.634   2.754  0.0420 -0.1948 -0.0605
11640TIP3    H256412   4.331   1.617   2.635  0.1221 -0.1056 -0.1352
11641TIP3   OH256413   5.052   1.851  14.944  0.1141  1.4667  0.1295
11641TIP3    H156414   5.093   1.935  14.927  1.0384  0.7172 -1.6271
11641TIP3    H256415   5.119   1.786  14.919 -1.0386  0.2123  0.1664
11642TIP3   OH256416   3.301   1.980   3.329  0.3346 -1.0516 -0.2907
11642TIP3    H156417   3.259   1.984   3.243 -1.3705 -1.7784  0.4642
11642TIP3    H256418   3.255   1.911   3.376  2.4799 -1.9791  0.5897
11643TIP3   OH256419   0.856   1.319  11.989 -0.3916 -0.5904  0.8086
11643TIP3    H156420   0.914   1.270  12.048 -0.7129 -1.7494  0.1897
11643TIP3    H256421   0.864   1.274  11.905 -2.3445 -0.9088  0.7588
11644TIP3   OH256422   5.674   0.667  11.384 -0.2081  0.0588  0.0517
11644TIP3    H156423   5.593   0.616  11.395  0.0154 -0.4093 -0.4619
11644TIP3    H256424   5.668   0.704  11.296 -0.0541  0.3658  0.1699
11645TIP3   OH256425   0.421   6.685   0.688 -0.5093 -0.0470 -0.5301
11645TIP3    H156426   0.392   6.611   0.635  0.2325 -0.5322 -0.2689
11645TIP3    H256427   0.439   6.754   0.624 -1.8606  0.1477 -0.7223
11646TIP3   OH256428   1.738   0.348  14.165  0.0742  0.4386  0.0732
11646TIP3    H156429   1.744   0.262  14.123  0.1834 -0.0923  1.1570
11646TIP3    H256430   1.758   0.410  14.095 -0.9587 -0.3557 -0.9709
11647TIP3   OH256431   2.669   1.681   2.538 -0.2716 -0.1146  0.2890
11647TIP3    H156432   2.755   1.649   2.567  0.1198  1.0649  0.4830
11647TIP3    H256433   2.608   1.645   2.602 -0.0424 -1.6518 -0.3205
11648TIP3   OH256434   3.104   4.216  15.382 -0.9737  0.2516  0.1650
11648TIP3    H156435   3.108   4.298  15.333  2.6138 -0.4444 -0.9820
11648TIP3    H256436   3.084   4.149  15.316  1.4360 -0.3792 -0.0147
11649TIP3   OH256437   0.708   3.536   4.460 -0.0086  0.0549  0.2807
11649TIP3    H156438   0.728   3.449   4.495  0.7458 -0.1385 -0.6002
11649TIP3    H256439   0.729   3.596   4.532  0.8291 -0.3887  0.4156
11650TIP3   OH256440   3.392   5.724   2.935  0.2009 -0.1977 -0.9515
11650TIP3    H156441   3.327   5.664   2.971  0.3591  0.1303 -0.1096
11650TIP3    H256442   3.396   5.796   2.998 -0.2207  0.8671 -2.0998
11651TIP3   OH256443   5.147   3.353  16.956 -0.3397 -0.0363  0.0054
11651TIP3    H156444   5.114   3.362  16.866 -0.4690 -0.6017 -0.0061
11651TIP3    H256445   5.100   3.277  16.991 -0.3661  0.2449  0.5848
11652TIP3   OH256446   5.113   5.296   1.992 -0.6357 -0.0347 -0.1860
11652TIP3    H156447   5.121   5.359   2.064 -1.3651  0.4655 -0.5339
11652TIP3    H256448   5.104   5.350   1.914 -0.7886 -0.5789 -0.5481
11653TIP3   OH256449   5.120   4.404   5.150  0.1427 -0.1710  0.1137
11653TIP3    H156450   5.062   4.355   5.091  0.0749  0.2731 -0.1939
11653TIP3    H256451   5.094   4.375   5.238 -1.3656  0.8832  0.0519
11654TIP3   OH256452   2.734   5.332  10.487  0.1583 -0.6459  0.1018
11654TIP3    H156453   2.693   5.416  10.508  1.2903 -0.2192  0.6831
11654TIP3    H256454   2.771   5.345  10.400 -1.2087 -1.1538 -0.5849
11655TIP3   OH256455   3.736   0.036   5.130 -0.3492  0.2202  0.5128
11655TIP3    H156456   3.733   0.096   5.055 -2.5807  2.1472  1.9634
11655TIP3    H256457   3.650  -0.005   5.131  0.1843 -0.9199  1.1610
11656TIP3   OH256458   4.333   5.172  12.232  0.0586 -0.1471  0.3421
11656TIP3    H156459   4.420   5.204  12.208  1.2574 -1.8155  2.2076
11656TIP3    H256460   4.301   5.235  12.297  0.0521  0.2300 -0.0230
11657TIP3   OH256461   0.471   3.314   4.678  0.0299 -0.2784  0.1237
11657TIP3    H156462   0.505   3.249   4.739  0.1624 -1.1400 -0.8574
11657TIP3    H256463   0.451   3.390   4.733  0.9393 -0.7362  1.1115
11658TIP3   OH256464   1.876   2.301   2.985  0.0990 -0.1568 -0.9979
11658TIP3    H156465   1.834   2.215   2.983 -0.5954  0.1887 -1.6694
11658TIP3    H256466   1.962   2.288   2.946  1.0167 -1.0508  1.1303
11659TIP3   OH256467   2.497   2.455   0.212 -0.7383  0.2648  0.2439
11659TIP3    H156468   2.514   2.478   0.121  1.6322 -2.8360 -0.2775
11659TIP3    H256469   2.554   2.513   0.263  1.2552 -0.8318 -0.6325
11660TIP3   OH256470   5.915   1.477  15.907 -0.0749 -0.0174  0.0091
11660TIP3    H156471   5.892   1.516  15.992 -0.8000  1.3394 -0.7579
11660TIP3    H256472   5.911   1.383  15.921 -1.2071  0.1867  1.2329
11661TIP3   OH256473   5.699   5.158   3.659 -0.1497  0.2694 -0.0822
11661TIP3    H156474   5.699   5.248   3.691 -1.6012  0.0707  0.5643
11661TIP3    H256475   5.787   5.126   3.678  0.1220  1.2857  0.4585
11662TIP3   OH256476   1.956   4.887  10.992 -0.0741 -0.1918  0.2032
11662TIP3    H156477   2.013   4.827  10.944  1.1615  1.0082  0.1429
11662TIP3    H256478   1.950   4.964  10.937 -1.2083 -0.0221  0.5372
11663TIP3   OH256479   5.073   4.282  14.720  0.0104  0.2334  0.0396
11663TIP3    H156480   5.168   4.280  14.705  0.1503  0.8721  0.7925
11663TIP3    H256481   5.062   4.245  14.808 -0.4213  0.3617  0.0424
11664TIP3   OH256482   5.242   3.756   3.942  0.5561  0.3161 -0.2277
11664TIP3    H156483   5.204   3.670   3.926  0.2407  0.1698  1.1805
11664TIP3    H256484   5.189   3.817   3.890 -1.2073  0.0334  1.1565
11665TIP3   OH256485   4.586   1.910  13.566 -0.7251  0.2433  0.3406
11665TIP3    H156486   4.643   1.877  13.636 -0.7157  0.9709  0.6903
11665TIP3    H256487   4.617   1.866  13.487  0.8741  1.2106  0.3763
11666TIP3   OH256488   5.660   3.037   4.871 -0.0700 -0.2652 -0.4863
11666TIP3    H156489   5.706   3.010   4.791  0.2128 -2.1646  0.2535
11666TIP3    H256490   5.697   3.122   4.893 -0.5435  0.5685 -2.6455
11667TIP3   OH256491   6.537   2.731   1.556  0.5719  0.0229  0.4639
11667TIP3    H156492   6.550   2.636   1.557 -0.0457 -0.0797 -0.3936
11667TIP3    H256493   6.444   2.743   1.578  0.6845  0.4367  0.7247
11668TIP3   OH256494   1.895   0.056  12.039  0.4319  0.0712 -0.2849
11668TIP3    H156495   1.812   0.042  11.994 -0.5343  1.1579  1.0825
11668TIP3    H256496   1.899  -0.014  12.104 -0.0518  0.7555  0.5004
11669TIP3   OH256497   2.014   3.140  12.183 -0.3566  0.7245 -0.1432
11669TIP3    H156498   2.044   3.107  12.267  1.1624  1.3381 -0.4280
11669TIP3    H256499   2.093   3.151  12.131 -1.2404  0.5760 -1.5931
11670TIP3   OH256500   3.518   3.317   1.883  0.5220  0.0792  0.3325
11670TIP3    H156501   3.575   3.333   1.958  2.2310 -0.8721 -0.7084
11670TIP3    H256502   3.562   3.361   1.810 -1.1337  1.0414 -0.1481
11671TIP3   OH256503   3.081   1.815  13.618  0.3667 -0.3742 -0.0010
11671TIP3    H156504   3.081   1.724  13.648  0.6001  0.2184  1.9390
11671TIP3    H256505   2.999   1.851  13.651  0.7787  0.3947  0.2250
11672TIP3   OH256506   3.331   2.483  14.024 -0.0899 -0.6024  0.1958
11672TIP3    H156507   3.423   2.472  14.048 -0.0710  0.1748  0.4926
11672TIP3    H256508   3.333   2.535  13.944 -0.2592 -0.8051  0.0599
11673TIP3   OH256509   6.694   5.495  10.136  0.0801  0.2320  0.4944
11673TIP3    H156510   6.684   5.425  10.200 -0.8297  1.1531  1.3955
11673TIP3    H256511   6.713   5.449  10.054 -1.2904 -1.1315  0.8794
11674TIP3   OH256512   0.445   0.876  14.900  0.0387  0.2431  0.3087
11674TIP3    H156513   0.476   0.793  14.937 -3.5474  0.0424  3.4547
11674TIP3    H256514   0.407   0.851  14.816  1.8427 -0.6578 -0.2916
11675TIP3   OH256515   3.137   5.580   1.028 -0.3336 -0.3673  0.4527
11675TIP3    H156516   3.178   5.628   0.956 -1.4989  1.3742  0.8865
11675TIP3    H256517   3.197   5.508   1.046  2.1210  1.5615  0.5111
11676TIP3   OH256518   5.282   4.647  13.210 -0.0356  0.5773 -0.0061
11676TIP3    H156519   5.293   4.686  13.123 -2.5129 -2.1700 -1.7213
11676TIP3    H256520   5.368   4.655  13.251  1.6181  0.8300 -3.2057
11677TIP3   OH256521   1.851   5.715  15.864 -0.3851  0.0810  0.4821
11677TIP3    H156522   1.795   5.752  15.796  1.5959 -0.1933 -1.3930
11677TIP3    H256523   1.882   5.791  15.914 -1.2060  0.3494  0.6046
11678TIP3   OH256524   0.578   5.500  14.932  0.5670  0.2997  0.7211
11678TIP3    H156525   0.490   5.501  14.972  0.3039  0.4087  0.1435
11678TIP3    H256526   0.562   5.488  14.839  1.2060 -0.5837  0.7078
11679TIP3   OH256527   0.983   5.513  11.006  0.3354  0.5611  0.0187
11679TIP3    H156528   0.966   5.603  11.031  1.8442  0.9229 -0.1939
11679TIP3    H256529   1.036   5.519  10.926  0.9276 -0.4873  0.3073
11680TIP3   OH256530   1.655   0.548   4.283 -0.3040 -0.1442 -0.8971
11680TIP3    H156531   1.620   0.611   4.220 -0.9804 -1.1663 -1.5664
11680TIP3    H256532   1.727   0.504   4.237  0.9273  0.8909 -0.0437
11681TIP3   OH256533   1.492   1.883  16.567 -0.4454 -0.8613 -0.0972
11681TIP3    H156534   1.587   1.886  16.557 -0.4773  0.1418 -0.2390
11681TIP3    H256535   1.474   1.794  16.596  0.5326 -1.0806 -0.1093
11682TIP3   OH256536   1.593   6.366  14.608 -0.8680  0.0144  0.3716
11682TIP3    H156537   1.666   6.310  14.636 -1.6418 -0.9552  0.4922
11682TIP3    H256538   1.578   6.341  14.517 -0.3163  1.0245 -0.0055
11683TIP3   OH256539   3.397   4.836  12.302 -0.7532 -0.4742  0.1673
11683TIP3    H156540   3.448   4.774  12.250 -1.3605 -0.7918 -0.0594
11683TIP3    H256541   3.429   4.922  12.275 -2.8807 -0.4614 -2.7823
11684TIP3   OH256542   6.665   3.229  16.478 -0.1128  0.2633  0.3227
11684TIP3    H156543   6.620   3.186  16.551 -0.7203 -1.1061 -0.8065
11684TIP3    H256544   6.736   3.169  16.456  0.8695  1.3017  0.6118
11685TIP3   OH256545   1.861   1.542  16.842  0.1888  0.0270  0.2256
11685TIP3    H156546   1.827   1.602  16.908 -0.1212 -0.3707  0.4305
11685TIP3    H256547   1.950   1.522  16.870  0.0381 -0.1855  0.5549
11686TIP3   OH256548   6.234   1.591   6.080 -0.3846 -0.2695 -0.0006
11686TIP3    H156549   6.228   1.581   5.985 -1.3392  0.0899  0.0133
11686TIP3    H256550   6.145   1.611   6.107 -0.0719 -0.1463  0.9488
11687TIP3   OH256551   2.122   0.621  17.071 -0.3023  0.2937  0.4109
11687TIP3    H156552   2.109   0.650  17.161 -0.5434 -0.1734  0.5286
11687TIP3    H256553   2.187   0.551  17.078 -0.7500 -0.1363  0.2886
11688TIP3   OH256554   1.008   2.588   3.980 -0.5171  0.1446 -0.1229
11688TIP3    H156555   0.949   2.542   4.040 -0.6856  0.2488 -0.2074
11688TIP3    H256556   1.069   2.520   3.950  0.5998  0.4213  1.4027
11689TIP3   OH256557   4.538   1.961  14.958  0.1230  0.1050 -0.4706
11689TIP3    H156558   4.499   1.879  14.990 -1.6278  1.1848  0.3400
11689TIP3    H256559   4.583   1.997  15.034  1.4025 -0.3547 -0.9849
11690TIP3   OH256560   2.990   1.866  11.271  0.2438 -0.1168  0.5132
11690TIP3    H156561   3.010   1.925  11.199 -0.7505 -0.7299 -0.2929
11690TIP3    H256562   2.897   1.878  11.287 -0.3073 -2.3709 -0.5648
11691TIP3   OH256563   6.076   0.431  11.896 -0.0946 -0.6293 -0.1318
11691TIP3    H156564   5.983   0.437  11.874 -0.6329  0.2361  2.1486
11691TIP3    H256565   6.121   0.470  11.821 -1.5919 -0.5818 -1.0379
11692TIP3   OH256566   1.180   1.112  14.478 -0.0090  0.1437 -0.3421
11692TIP3    H156567   1.089   1.082  14.483  0.0178  0.0010 -0.7248
11692TIP3    H256568   1.180   1.178  14.409 -0.5638  2.7990  2.0023
11693TIP3   OH256569   5.385   4.237  14.079 -0.1226 -0.0238 -0.0479
11693TIP3    H156570   5.373   4.201  13.991 -0.4865  0.0463 -0.0286
11693TIP3    H256571   5.351   4.170  14.137 -0.0325 -0.0012  0.0301
11694TIP3   OH256572   5.223   2.706  11.997  0.2652 -0.3708 -0.1858
11694TIP3    H156573   5.216   2.722  11.903  1.1334  0.9030 -0.0589
11694TIP3    H256574   5.312   2.672  12.008 -0.2382 -1.6712  0.0499
11695TIP3   OH256575   4.497   1.916   6.134 -0.2133 -0.1106  0.1760
11695TIP3    H156576   4.548   1.934   6.213  0.5083 -1.1601 -0.0365
11695TIP3    H256577   4.527   1.982   6.071 -0.7086  0.6589  0.7128
11696TIP3   OH256578   2.047   1.932  13.528  0.4843 -0.5093  0.1568
11696TIP3    H156579   2.015   1.953  13.616  1.3350 -3.9105  1.4495
11696TIP3    H256580   1.985   1.867  13.495  0.4388  0.3865 -1.6189
11697TIP3   OH256581   5.859   0.787   3.493 -0.4957 -1.0418 -0.2709
11697TIP3    H156582   5.926   0.841   3.535 -2.9836  0.5918  1.9399
11697TIP3    H256583   5.834   0.835   3.415  0.8434 -1.6824 -1.1316
11698TIP3   OH256584   2.101   3.730  14.746  0.3509 -0.4737 -0.3651
11698TIP3    H156585   2.092   3.815  14.703  0.5467 -1.5733 -2.7893
11698TIP3    H256586   2.011   3.704  14.765  0.2100 -0.1996 -0.6365
11699TIP3   OH256587   5.058   5.471   4.763  0.1100 -0.0983  0.3185
11699TIP3    H156588   5.019   5.525   4.694 -0.1468 -2.2049 -1.2926
11699TIP3    H256589   5.011   5.388   4.758  1.6493 -1.1024  1.5079
11700TIP3   OH256590   0.097   1.947   5.713  0.3936  0.3920 -0.0456
11700TIP3    H156591   0.140   1.866   5.740  3.2311  0.9679 -2.3584
11700TIP3    H256592   0.005   1.923   5.703  0.9694 -2.2581  0.3177
11701TIP3   OH256593   3.040   1.409  13.105 -0.1435  0.1178  0.0509
11701TIP3    H156594   2.999   1.323  13.107 -0.8240  0.4035 -0.8874
11701TIP3    H256595   3.051   1.429  13.012 -1.3716  1.6597  0.1801
11702TIP3   OH256596   4.016   6.626  14.960 -0.3546 -0.3024  0.0641
11702TIP3    H156597   4.028   6.633  15.055 -1.1636 -0.2889  0.1670
11702TIP3    H256598   3.924   6.604  14.949 -0.4597  0.4886 -0.7529
11703TIP3   OH256599   6.759   2.647   2.605  0.0996 -0.2941 -0.1060
11703TIP3    H156600   6.795   2.632   2.692  0.8152  1.0415 -0.1444
11703TIP3    H256601   6.678   2.695   2.620  1.1926  1.6959 -0.1943
11704TIP3   OH256602   5.192   1.068   5.936  0.3132  0.3516  0.2954
11704TIP3    H156603   5.157   1.107   6.016  0.6143 -0.1985  0.7050
11704TIP3    H256604   5.125   1.082   5.870  0.1579  1.0143  0.5893
11705TIP3   OH256605   0.979   2.867  12.676  0.0340 -0.3452  0.1539
11705TIP3    H156606   0.988   2.915  12.593 -2.3203  1.0611  0.6384
11705TIP3    H256607   0.937   2.785  12.652 -1.8643  0.6113  0.0484
11706TIP3   OH256608   2.509   3.485  16.716  0.0704 -0.1653  0.0027
11706TIP3    H156609   2.479   3.394  16.707  1.1194 -0.5079 -0.1599
11706TIP3    H256610   2.593   3.487  16.670  1.1172  0.3524  1.8458
11707TIP3   OH256611   5.224   5.545   2.261  0.1659  0.4752 -0.7728
11707TIP3    H156612   5.170   5.619   2.288  0.3843  0.4601 -0.2807
11707TIP3    H256613   5.231   5.490   2.339 -0.7043 -0.5121 -1.3686
11708TIP3   OH256614   3.933   6.853   0.173 -0.1108  0.0025  0.2574
11708TIP3    H156615   3.915   6.819   0.261 -0.9988 -0.7966 -0.2230
11708TIP3    H256616   3.852   6.837   0.124  1.0517 -1.4103 -1.2869
11709TIP3   OH256617   1.299   4.336   0.563  0.0602  0.1999 -0.0091
11709TIP3    H156618   1.257   4.352   0.647 -1.0005  0.8030 -0.6306
11709TIP3    H256619   1.286   4.242   0.547 -0.2353  0.1943  0.2446
11710TIP3   OH256620   4.350   5.456   1.315  0.5145 -0.2155 -0.0068
11710TIP3    H156621   4.263   5.454   1.355  1.1294  1.0447  1.5088
11710TIP3    H256622   4.337   5.496   1.229 -0.2385  1.2403  0.7442
11711TIP3   OH256623   2.878   2.650  11.371  0.1048  0.1130 -0.1339
11711TIP3    H156624   2.918   2.563  11.378 -1.9518 -1.1749 -2.7243
11711TIP3    H256625   2.931   2.695  11.305 -0.0170  0.0704 -0.2620
11712TIP3   OH256626   0.613   1.532  11.426 -0.1975  0.4767 -0.3335
11712TIP3    H156627   0.669   1.509  11.500  2.3391  0.6309 -2.0835
11712TIP3    H256628   0.575   1.449  11.397  0.1605  0.1659  0.0902
11713TIP3   OH256629   3.672   2.292  14.930 -0.7041  0.2120  0.0749
11713TIP3    H156630   3.726   2.304  15.008 -2.2128  0.1707  1.1857
11713TIP3    H256631   3.708   2.354  14.867  0.8341 -0.0668  0.6349
11714TIP3   OH256632   4.479   0.569  12.846  0.1212 -0.6275 -0.9487
11714TIP3    H156633   4.523   0.607  12.922 -0.7487 -0.1292 -0.6868
11714TIP3    H256634   4.410   0.632  12.824 -0.1478 -1.1572 -1.6613
11715TIP3   OH256635   4.109   1.762   2.313 -0.1699 -0.3146  0.1407
11715TIP3    H156636   4.113   1.855   2.291  1.5197 -0.4794 -0.3781
11715TIP3    H256637   4.057   1.723   2.242 -3.0100  0.4962  1.5869
11716TIP3   OH256638   6.524   5.909  16.955  0.5039 -0.7523  0.6046
11716TIP3    H156639   6.534   5.991  16.906 -0.9449 -1.9638 -1.9416
11716TIP3    H256640   6.591   5.913  17.023 -0.6160  3.2874  1.7363
11717TIP3   OH256641   0.298   6.665  11.220 -0.2344  0.0346  0.0970
11717TIP3    H156642   0.291   6.759  11.238  1.8203  0.4537 -0.9876
11717TIP3    H256643   0.324   6.627  11.304  0.7883  0.7244  0.1095
11718TIP3   OH256644   1.598   2.587   5.284 -0.4271 -0.2247  0.6727
11718TIP3    H156645   1.692   2.573   5.288 -0.6581 -2.3525  0.0978
11718TIP3    H256646   1.582   2.630   5.200 -0.1161 -1.6979 -0.1722
11719TIP3   OH256647   2.688   5.775  15.505  0.2695 -0.1841  0.3001
11719TIP3    H156648   2.650   5.833  15.571 -2.6314 -0.7928 -0.6678
11719TIP3    H256649   2.654   5.809  15.422  0.1697 -2.0043 -0.4517
11720TIP3   OH256650   3.935   0.342   5.019  0.2576  0.2979  0.4751
11720TIP3    H156651   3.853   0.331   4.971 -0.2784  4.1297  0.2271
11720TIP3    H256652   3.908   0.370   5.106  1.3407 -2.2650  1.7372
11721TIP3   OH256653   2.143   4.222  11.956  1.0759 -0.1073  0.0490
11721TIP3    H156654   2.202   4.277  11.903  2.1677 -0.1428  1.2019
11721TIP3    H256655   2.182   4.222  12.043 -0.4073 -0.4961  0.7402
11722TIP3   OH256656   2.207   3.813  15.245 -0.0147  0.0867 -0.3787
11722TIP3    H156657   2.167   3.760  15.314 -0.7813 -0.2199 -1.0420
11722TIP3    H256658   2.152   3.798  15.168  1.4858 -0.4814 -1.3844
11723TIP3   OH256659   4.408   4.188  16.570 -0.2280 -0.3355  0.2187
11723TIP3    H156660   4.365   4.194  16.655  0.3660  0.5775  0.4818
11723TIP3    H256661   4.450   4.102  16.570 -0.2289 -0.3400  0.8561
11724TIP3   OH256662   1.582   3.053   3.254  0.4448  0.2675  0.6205
11724TIP3    H156663   1.635   2.981   3.287  1.4243  0.9785  0.6477
11724TIP3    H256664   1.526   3.077   3.328 -0.5728 -1.0673  0.3132
11725TIP3   OH256665   6.381   2.439  12.187 -0.2345  0.0831  0.1659
11725TIP3    H156666   6.454   2.379  12.175  0.9382  0.7013  3.2470
11725TIP3    H256667   6.363   2.472  12.099  1.4080 -2.0668 -1.0894
11726TIP3   OH256668   1.889   5.386  16.477  0.5001 -0.3596 -0.5389
11726TIP3    H156669   1.807   5.338  16.485 -0.8386  1.8169 -0.5043
11726TIP3    H256670   1.934   5.345  16.403  0.2091 -2.6742  0.4710
11727TIP3   OH256671   3.954   3.457   1.125 -0.0487 -0.3725  0.6724
11727TIP3    H156672   4.028   3.452   1.064 -0.4668  0.7918  0.0435
11727TIP3    H256673   3.991   3.434   1.210  0.6083 -1.7408  0.0412
11728TIP3   OH256674   4.937   1.100   5.821  0.1944 -0.2180 -0.2213
11728TIP3    H156675   4.888   1.155   5.761  1.5507  0.4610 -0.7487
11728TIP3    H256676   4.871   1.049   5.866 -1.0264  1.1410 -0.4181
11729TIP3   OH256677   4.947   0.394   6.607 -0.1895  0.2282 -0.1422
11729TIP3    H156678   4.896   0.472   6.627 -0.6077  0.4894 -2.0138
11729TIP3    H256679   4.884   0.335   6.566  0.0411 -1.2754  1.5461
11730TIP3   OH256680   5.843   4.344  16.297  0.5275  0.4581  0.0589
11730TIP3    H156681   5.810   4.416  16.352 -1.6723 -0.3674 -0.1031
11730TIP3    H256682   5.842   4.268  16.354  0.4024  0.0405 -0.4985
11731TIP3   OH256683   1.402   6.578  10.969  0.2623  0.0699 -0.1137
11731TIP3    H156684   1.398   6.501  11.024  0.4534  1.1999  1.5513
11731TIP3    H256685   1.386   6.546  10.880  0.7705 -1.9122  0.4813
11732TIP3   OH256686   1.081   5.891   2.197  0.4581  0.2219 -0.7471
11732TIP3    H156687   1.050   5.834   2.126  0.5375  0.1561 -0.7288
11732TIP3    H256688   1.107   5.972   2.152  2.9683 -0.7315 -1.1475
11733TIP3   OH256689   4.867   5.457  15.282  0.4779  0.3805  0.0923
11733TIP3    H156690   4.839   5.366  15.280 -0.2363  0.5625  0.9961
11733TIP3    H256691   4.939   5.462  15.219  2.6417 -1.5259  2.1967
11734TIP3   OH256692   6.795   1.665   1.362 -0.1857  0.6548 -0.8027
11734TIP3    H156693   6.798   1.597   1.429  0.4956 -0.2357 -1.7157
11734TIP3    H256694   6.741   1.628   1.293 -0.6842  1.4747 -0.8727
11735TIP3   OH256695   1.435   5.391   4.846  0.5356 -0.0505  0.4498
11735TIP3    H156696   1.402   5.481   4.850  0.4340 -0.1140  1.1807
11735TIP3    H256697   1.412   5.353   4.931  0.4864 -0.8031  0.1042
11736TIP3   OH256698   6.490   0.817   5.639  0.5609 -0.2504  0.3281
11736TIP3    H156699   6.429   0.744   5.638  1.0456 -0.8083  2.9387
11736TIP3    H256700   6.575   0.777   5.654  0.9424  0.7546  0.9981
11737TIP3   OH256701   6.079   2.008  13.418 -0.4137  0.1894 -0.7071
11737TIP3    H156702   6.150   2.066  13.391  1.7023 -1.4465  0.9511
11737TIP3    H256703   6.051   1.966  13.336  0.9547  0.4402 -1.3345
11738TIP3   OH256704   0.247   0.676  16.898 -0.5750  0.1891 -0.0090
11738TIP3    H156705   0.158   0.659  16.930 -0.0259 -2.8681  0.2297
11738TIP3    H256706   0.266   0.603  16.839  1.8062  0.7089 -0.0009
11739TIP3   OH256707   3.847   6.730   4.356 -0.3736  0.2163  0.1229
11739TIP3    H156708   3.903   6.653   4.349  0.1463  0.5807  0.2044
11739TIP3    H256709   3.908   6.803   4.366 -0.8857  0.4859  1.5606
11740TIP3   OH256710   3.121   2.712  11.681  0.0861  0.2001 -0.2864
11740TIP3    H156711   3.149   2.795  11.720 -0.9077 -0.0275  0.9447
11740TIP3    H256712   3.181   2.647  11.717 -0.1138  0.1567 -0.0321
11741TIP3   OH256713   1.777   1.242  12.340  0.3195  0.2141 -0.0713
11741TIP3    H156714   1.712   1.271  12.404  0.6666  2.1508 -0.5129
11741TIP3    H256715   1.861   1.254  12.385  0.4400 -1.2575  0.1243
11742TIP3   OH256716   0.248   3.337  12.936  0.1334  0.1109 -0.2049
11742TIP3    H156717   0.295   3.254  12.941 -1.5334 -0.9822 -1.4030
11742TIP3    H256718   0.239   3.354  12.842 -1.1047  0.7144  0.0000
11743TIP3   OH256719   0.885   1.100  14.397  0.5241  0.5625 -0.5969
11743TIP3    H156720   0.847   1.181  14.432  0.9563  0.9731 -1.0615
11743TIP3    H256721   0.911   1.123  14.308 -0.9852 -0.5844 -1.3873
11744TIP3   OH256722   6.437   3.065   0.987  0.0995 -0.5814 -0.2492
11744TIP3    H156723   6.401   3.076   0.899  2.0744  0.4010 -0.9906
11744TIP3    H256724   6.449   2.971   0.996 -0.8257 -0.7553 -0.7234
11745TIP3   OH256725   3.419   5.847  12.808  0.3021  0.1251  0.4206
11745TIP3    H156726   3.335   5.892  12.799  0.2000  0.1977  1.6005
11745TIP3    H256727   3.477   5.913  12.846  0.3255 -0.5365  1.5694
11746TIP3   OH256728   1.108   6.064   4.238 -0.5797  0.2582  0.1409
11746TIP3    H156729   1.046   5.991   4.243 -0.5871  0.1859 -0.8265
11746TIP3    H256730   1.190   6.028   4.273 -0.4564 -0.3625 -0.7748
11747TIP3   OH256731   3.943   5.325  13.007 -0.0956  0.3120  0.4761
11747TIP3    H156732   3.970   5.381  12.934 -0.3330  0.2710  0.3569
11747TIP3    H256733   3.874   5.374  13.051  0.0236  0.3212  0.6548
11748TIP3   OH256734   5.023   2.800  11.401 -0.6984 -0.1420 -0.4164
11748TIP3    H156735   4.968   2.722  11.407 -0.2371 -0.4174  0.3884
11748TIP3    H256736   4.997   2.853  11.477 -0.2953  0.0113 -0.3847
11749TIP3   OH256737   4.756   1.545  12.712  0.2057 -0.9113 -0.2904
11749TIP3    H156738   4.743   1.475  12.648  0.6185 -0.9662 -0.3150
11749TIP3    H256739   4.787   1.500  12.790 -0.1077 -0.8205 -0.1120
11750TIP3   OH256740   4.777   0.181  11.433 -0.2813 -0.3883 -0.0143
11750TIP3    H156741   4.684   0.170  11.414 -0.3970  1.6383 -0.8304
11750TIP3    H256742   4.813   0.220  11.353  1.2960 -1.1976  0.2629
11751TIP3   OH256743   4.281   3.129   3.096 -0.5146 -0.2326 -0.1982
11751TIP3    H156744   4.235   3.089   3.022 -0.0939  0.4784 -0.8565
11751TIP3    H256745   4.371   3.098   3.090 -0.8014 -1.3361  0.8825
11752TIP3   OH256746   5.059   5.315   1.160 -0.2471  0.0423  0.0163
11752TIP3    H156747   5.126   5.256   1.196 -0.5202 -0.6952 -0.6591
11752TIP3    H256748   5.095   5.403   1.173  0.9581 -0.3473 -0.5293
11753TIP3   OH256749   1.880   0.609  13.686 -0.9379 -0.5279  0.6465
11753TIP3    H156750   1.843   0.677  13.630  0.2280  0.1376  0.6463
11753TIP3    H256751   1.823   0.534  13.674 -0.3795 -0.6194 -1.9174
11754TIP3   OH256752   4.310   6.260   1.601 -0.0956  0.0276 -0.1160
11754TIP3    H156753   4.338   6.256   1.692 -1.1332 -0.5591  0.1955
11754TIP3    H256754   4.380   6.308   1.556  0.3578  0.4527  1.0069
11755TIP3   OH256755   1.873   1.612  15.288  0.0119 -0.4302 -0.6993
11755TIP3    H156756   1.934   1.538  15.290  2.0115  1.0282 -2.3681
11755TIP3    H256757   1.858   1.635  15.380  0.2751 -2.1518 -0.2055
11756TIP3   OH256758   2.980   2.406  16.111  0.1905  0.1363 -0.2944
11756TIP3    H156759   3.011   2.368  16.028 -0.9878 -1.0420 -0.2210
11756TIP3    H256760   3.035   2.364  16.177 -1.5346 -2.0631 -0.1515
11757TIP3   OH256761   1.470   2.103   5.099 -0.3972 -0.8657  0.6956
11757TIP3    H156762   1.462   2.126   5.191  2.2621 -0.7399  0.9700
11757TIP3    H256763   1.424   2.173   5.052  0.2043  0.3494  1.8639
11758TIP3   OH256764   1.722   4.387   2.600 -0.3516 -0.1695 -0.8018
11758TIP3    H156765   1.693   4.471   2.636 -1.8161 -1.4554  1.1337
11758TIP3    H256766   1.818   4.391   2.605 -0.4438  0.8415  0.5534
11759TIP3   OH256767   2.056   5.016   3.503  0.6144 -0.2360 -0.8557
11759TIP3    H156768   2.042   4.986   3.414 -2.5008 -1.2349 -0.1376
11759TIP3    H256769   2.099   5.101   3.493 -0.2724 -0.0006 -3.3062
11760TIP3   OH256770   0.105   3.220   1.689  0.3051  0.1383  0.2694
11760TIP3    H156771   0.052   3.213   1.609  0.4707 -0.2753  0.1923
11760TIP3    H256772   0.055   3.173   1.755  1.4401 -1.9032 -0.2574
11761TIP3   OH256773   5.624   0.425  12.438 -0.2834 -0.2261 -0.2158
11761TIP3    H156774   5.570   0.479  12.380 -0.2121  0.6943  0.5496
11761TIP3    H256775   5.712   0.461  12.427 -0.3149  0.1356  0.6558
11762TIP3   OH256776   0.293   1.130  14.722 -0.5615  0.3133 -0.0114
11762TIP3    H156777   0.318   1.041  14.696  1.6455  1.0235 -0.4885
11762TIP3    H256778   0.208   1.144  14.680 -0.1871 -0.9877 -1.3002
11763TIP3   OH256779   0.519   5.290   2.979  0.1000 -0.0823  0.3603
11763TIP3    H156780   0.513   5.370   3.032 -0.5583  0.4875 -0.5412
11763TIP3    H256781   0.448   5.298   2.916  0.4512 -1.0684 -0.1827
11764TIP3   OH256782   4.882   6.262  15.790  0.3046 -0.1906 -0.0366
11764TIP3    H156783   4.977   6.258  15.778  0.4239 -1.4428  1.0886
11764TIP3    H256784   4.860   6.355  15.778  1.6308  0.0843 -0.5029
11765TIP3   OH256785   3.404   4.737  16.318  0.0132  0.0554  0.4541
11765TIP3    H156786   3.476   4.727  16.257 -0.2577  0.1242  0.1187
11765TIP3    H256787   3.337   4.786  16.269 -0.0558  0.4410  0.9249
11766TIP3   OH256788   1.456   0.548   4.685  0.0461  0.5122 -0.4048
11766TIP3    H156789   1.460   0.527   4.591 -1.7093 -0.7385 -0.2459
11766TIP3    H256790   1.435   0.641   4.688  0.6248  0.6870 -1.2269
11767TIP3   OH256791   5.487   6.108   5.463  0.3328  0.2579  0.6244
11767TIP3    H156792   5.411   6.057   5.491  0.3051  0.3276  0.6775
11767TIP3    H256793   5.535   6.128   5.543  1.9271 -2.1262  0.3615
11768TIP3   OH256794   0.228   5.372   0.137 -0.0597 -0.3010 -0.5237
11768TIP3    H156795   0.233   5.290   0.086  2.2999 -0.6845  0.2097
11768TIP3    H256796   0.187   5.346   0.219  1.1471 -0.9255 -0.0842
11769TIP3   OH256797   0.685   3.092  12.997  0.4712 -0.5447  0.3429
11769TIP3    H156798   0.685   3.141  13.079  1.5441  2.2595 -1.1947
11769TIP3    H256799   0.592   3.075  12.980  0.1402 -0.0698  1.5316
11770TIP3   OH256800   6.773   4.583   0.779  0.4897 -0.6851 -0.2206
11770TIP3    H156801   6.693   4.599   0.729 -0.4849 -0.9063  1.1879
11770TIP3    H256802   6.761   4.495   0.815  1.3967 -0.7330 -0.0303
11771TIP3   OH256803   2.786   0.103   1.694  0.5747  0.3440 -0.0823
11771TIP3    H156804   2.881   0.112   1.703  0.9072 -0.5756 -2.1804
11771TIP3    H256805   2.765   0.148   1.612 -0.6263 -0.4595 -0.2436
11772TIP3   OH256806   2.055   3.415   4.635  0.2392 -0.1591 -0.4642
11772TIP3    H156807   2.016   3.487   4.585  0.4416 -0.1732 -0.6414
11772TIP3    H256808   2.082   3.455   4.717  3.1418  0.6847 -1.7034
11773TIP3   OH256809   3.339   3.619   4.655  0.1983 -0.2437  0.0198
11773TIP3    H156810   3.362   3.711   4.656  0.3147 -0.2714 -0.0467
11773TIP3    H256811   3.273   3.611   4.587  2.7311 -0.7884 -2.5838
11774TIP3   OH256812   2.445   2.873  14.361 -0.4321 -0.2808 -0.6242
11774TIP3    H156813   2.418   2.788  14.398  3.4793 -0.7887  1.6713
11774TIP3    H256814   2.518   2.851  14.304  3.9605  1.4956  3.6261
11775TIP3   OH256815   1.719   4.291  13.104  0.5763  0.1061 -0.3393
11775TIP3    H156816   1.638   4.307  13.055 -0.0142 -0.5889  0.3881
11775TIP3    H256817   1.716   4.352  13.177  1.0861  0.5977 -0.7107
11776TIP3   OH256818   0.267   0.571  14.696  0.4931  0.2430  0.0627
11776TIP3    H156819   0.204   0.541  14.631  1.8685  0.8920 -1.6675
11776TIP3    H256820   0.277   0.497  14.756 -1.5696 -0.0147  0.1736
11777TIP3   OH256821   3.936   2.473  13.307 -0.1916 -0.2855 -0.1405
11777TIP3    H156822   3.932   2.387  13.348 -0.8839 -0.0515  0.3100
11777TIP3    H256823   3.858   2.476  13.252 -1.0499  0.6385  1.0653
11778TIP3   OH256824   1.758   0.788  15.344 -0.0871  0.2423 -0.4455
11778TIP3    H156825   1.853   0.776  15.349 -0.0817 -1.4274 -2.6821
11778TIP3    H256826   1.746   0.861  15.283 -0.2568  0.9255  0.3928
11779TIP3   OH256827   2.090   0.634   1.594 -0.0667 -0.1816  0.3934
11779TIP3    H156828   2.005   0.677   1.597 -1.1260 -1.8304 -2.3136
11779TIP3    H256829   2.073   0.546   1.628  1.1112  0.1036  1.8406
11780TIP3   OH256830   5.888   6.692  15.496  0.1561 -0.3209  0.5402
11780TIP3    H156831   5.868   6.775  15.539 -2.8387  0.0534 -1.2715
11780TIP3    H256832   5.837   6.627  15.544  1.5515 -0.9624  1.2060
11781TIP3   OH256833   6.444   3.371  14.686  1.2422 -0.2787 -0.3483
11781TIP3    H156834   6.488   3.423  14.619  2.5899 -1.2602 -0.2594
11781TIP3    H256835   6.473   3.408  14.769  1.8394 -0.8599 -0.2908
11782TIP3   OH256836   6.361   5.434  16.203 -0.0079 -0.5046 -0.2633
11782TIP3    H156837   6.302   5.412  16.130 -0.0574 -0.2734 -0.2910
11782TIP3    H256838   6.321   5.509  16.245  1.1885  0.8173 -1.3780
11783TIP3   OH256839   1.221   3.460   2.048  0.1338 -0.1199  0.2140
11783TIP3    H156840   1.293   3.451   2.109 -0.1635  0.0160  0.5845
11783TIP3    H256841   1.228   3.382   1.992  0.7046  0.0118  0.0931
11784TIP3   OH256842   5.232   0.358  12.994 -0.4166 -0.5147 -0.0766
11784TIP3    H156843   5.321   0.332  12.972  0.1170  0.1014  1.2536
11784TIP3    H256844   5.178   0.323  12.923  0.7644 -1.6604 -0.4313
11785TIP3   OH256845   2.365   4.151   2.626 -0.6691  0.2316  0.1257
11785TIP3    H156846   2.354   4.059   2.648  1.1193 -0.3722 -1.2507
11785TIP3    H256847   2.338   4.156   2.534 -1.0902  1.1687  0.2908
11786TIP3   OH256848   3.350   4.773  11.517 -0.0718 -0.0837  0.3186
11786TIP3    H156849   3.307   4.737  11.440  0.9161 -2.0253  0.5976
11786TIP3    H256850   3.288   4.838  11.551 -1.6654 -1.0208 -0.6514
11787TIP3   OH256851   6.136   5.700  13.511  0.2389  0.3116 -0.4853
11787TIP3    H156852   6.126   5.758  13.586 -1.0888  0.0355 -0.4220
11787TIP3    H256853   6.231   5.688  13.502  0.4206  0.2856  1.1948
11788TIP3   OH256854   5.421   4.698   2.080 -0.7268 -0.1958  0.2321
11788TIP3    H156855   5.515   4.689   2.096 -0.4932 -0.8441 -1.3044
11788TIP3    H256856   5.394   4.612   2.048 -1.3119  0.6575 -1.7082
11789TIP3   OH256857   4.679   3.560   0.386  0.2026  0.4490 -0.0128
11789TIP3    H156858   4.632   3.640   0.365 -0.2386 -0.1555 -1.4726
11789TIP3    H256859   4.772   3.584   0.384  0.0507  1.0558  0.1982
11790TIP3   OH256860   4.036   0.441  12.482 -0.4992 -0.0776 -0.1248
11790TIP3    H156861   4.023   0.381  12.555  0.0837  1.0639  0.9594
11790TIP3    H256862   3.975   0.411  12.415 -0.4418 -1.6717  0.4913
11791TIP3   OH256863   0.005   2.298   5.318  0.1557  0.1165 -0.0486
11791TIP3    H156864   0.020   2.246   5.239 -2.0914  0.5624 -0.8453
11791TIP3    H256865  -0.061   2.248   5.367 -0.1627  0.9592  0.4061
11792TIP3   OH256866   5.174   1.720  12.537 -0.0082 -0.0974  0.2649
11792TIP3    H156867   5.137   1.765  12.461  0.4791 -2.1774 -1.3039
11792TIP3    H256868   5.208   1.638  12.501  1.1815 -0.6821  2.5871
11793TIP3   OH256869   6.806   3.488  13.399  0.0557  0.4710  0.2030
11793TIP3    H156870   6.864   3.415  13.378 -0.7409 -0.6134  1.6308
11793TIP3    H256871   6.739   3.487  13.330  0.5162  0.3822 -0.2410
11794TIP3   OH256872   1.931   5.302  11.294 -0.0932  0.5268  0.4134
11794TIP3    H156873   1.879   5.325  11.218 -0.7993  0.8258  0.9794
11794TIP3    H256874   2.003   5.249  11.259 -1.4592 -0.9607 -0.2275
11795TIP3   OH256875   6.720   3.501   1.395  0.3182 -0.2994 -0.6283
11795TIP3    H156876   6.625   3.501   1.391  0.3310  1.0509 -1.4579
11795TIP3    H256877   6.741   3.539   1.480  0.0998  1.4323 -1.3201
11796TIP3   OH256878   0.273   1.807  15.610 -0.1981 -0.0445  0.2151
11796TIP3    H156879   0.204   1.741  15.598 -0.5460 -0.3440  3.2132
11796TIP3    H256880   0.260   1.839  15.699  0.3831  3.6605 -0.8957
11797TIP3   OH256881   3.245   0.754   4.173 -0.0886 -0.3434  0.0445
11797TIP3    H156882   3.186   0.708   4.232  0.6578 -1.2357  0.1134
11797TIP3    H256883   3.231   0.714   4.087 -1.3410  1.1098 -0.4715
11798TIP3   OH256884   2.801   5.722  11.617  0.1128 -0.2542 -0.1472
11798TIP3    H156885   2.778   5.814  11.607  1.2199 -0.1163 -1.7304
11798TIP3    H256886   2.869   5.721  11.684  0.0631  0.0575 -0.0932
11799TIP3   OH256887   3.063   2.495   4.492 -0.5024  0.5528  0.5927
11799TIP3    H156888   3.024   2.413   4.461 -1.3453  0.5846  1.5024
11799TIP3    H256889   3.042   2.559   4.424 -1.3305  0.3776  0.6686
11800TIP3   OH256890   3.139   4.638   4.575  0.1674  0.4169 -0.0367
11800TIP3    H156891   3.164   4.720   4.531 -0.5546  0.8248  0.2889
11800TIP3    H256892   3.135   4.661   4.667  1.8868 -0.4885  0.3016
11801TIP3   OH256893   2.643   0.175  12.661 -0.0162  0.0911  0.1756
11801TIP3    H156894   2.641   0.148  12.753 -0.9515 -0.3594  0.0368
11801TIP3    H256895   2.703   0.113  12.619  0.2661  0.1801  0.4462
11802TIP3   OH256896   4.169   2.952   6.607  0.2360 -0.0043  0.3452
11802TIP3    H156897   4.254   2.933   6.568  0.6256  0.5265  0.9177
11802TIP3    H256898   4.170   3.047   6.622 -0.9770  0.2395 -0.8607
11803TIP3   OH256899   5.360   2.348   1.481 -0.0074 -1.2448 -0.7164
11803TIP3    H156900   5.371   2.429   1.431 -1.5613 -0.9664 -0.6361
11803TIP3    H256901   5.277   2.311   1.451 -0.0899 -1.9998  0.3740
11804TIP3   OH256902   1.066   0.312  16.590  0.1348  0.5556 -0.6866
11804TIP3    H156903   1.077   0.218  16.575  0.2957  0.6173 -0.9589
11804TIP3    H256904   1.128   0.354  16.530  0.7914  0.8111  0.1368
11805TIP3   OH256905   1.303   0.942   2.513  0.4498  0.3788  0.2217
11805TIP3    H156906   1.305   1.030   2.551  0.3188  0.1096  0.8628
11805TIP3    H256907   1.364   0.946   2.440  1.0799  0.7792  0.7611
11806TIP3   OH256908   1.257   5.736   2.944 -0.2038 -0.2262 -0.4087
11806TIP3    H156909   1.216   5.819   2.969  1.6705  0.5487  0.2570
11806TIP3    H256910   1.228   5.722   2.854 -0.4002  1.2638 -0.6063
11807TIP3   OH256911   6.353   1.027  11.473 -0.3067  0.0791 -0.0274
11807TIP3    H156912   6.278   1.083  11.453 -0.1794  0.3117  0.1346
11807TIP3    H256913   6.368   0.977  11.392  1.0518  2.0065 -1.0676
11808TIP3   OH256914   5.413   6.216   3.224  0.0855  0.1934  0.4740
11808TIP3    H156915   5.459   6.297   3.246 -0.8781  0.4852  1.4834
11808TIP3    H256916   5.459   6.148   3.273  0.7833  0.1448 -0.2339
11809TIP3   OH256917   4.835   2.624   1.855  0.3400 -0.5562 -0.5207
11809TIP3    H156918   4.832   2.653   1.946 -0.9370 -1.5825 -0.2097
11809TIP3    H256919   4.919   2.657   1.823  1.2283 -0.9081  1.2815
11810TIP3   OH256920   4.985   6.787  15.894 -0.1196 -0.8504 -0.2099
11810TIP3    H156921   4.921   6.833  15.950 -1.1840 -0.8717 -1.3663
11810TIP3    H256922   4.947   6.791  15.806  1.5586 -0.7521 -0.9592
11811TIP3   OH256923   2.741   3.912   2.229 -0.1547  0.1948 -0.3416
11811TIP3    H156924   2.726   3.837   2.171  2.8773  0.9611 -2.3856
11811TIP3    H256925   2.723   3.989   2.175  3.3872  0.9537 -0.6729
11812TIP3   OH256926   5.908   6.428  13.910 -0.0623  0.1010 -0.3436
11812TIP3    H156927   5.849   6.495  13.946  0.4142  1.7529 -2.4244
11812TIP3    H256928   5.876   6.413  13.821  2.0447  0.3321 -1.2001
11813TIP3   OH256929   6.470   4.921   3.882 -0.4871 -0.3088  0.0365
11813TIP3    H156930   6.409   4.875   3.824 -0.3843 -1.4028  0.7665
11813TIP3    H256931   6.499   4.997   3.830 -0.5182 -1.1647 -1.2946
11814TIP3   OH256932   3.609   5.617   3.127 -0.1711 -0.3713  0.0902
11814TIP3    H156933   3.649   5.555   3.066  1.7603  0.4541  0.4642
11814TIP3    H256934   3.519   5.626   3.096 -0.4478 -3.1186 -0.1409
11815TIP3   OH256935   6.663   0.811  14.679  0.4233 -0.7550 -0.5416
11815TIP3    H156936   6.660   0.879  14.612 -1.0911 -0.9148 -0.6599
11815TIP3    H256937   6.730   0.841  14.741 -0.8104  1.3148 -0.1124
11816TIP3   OH256938   5.155   4.453   1.961  0.4525  0.1467 -0.4438
11816TIP3    H156939   5.179   4.362   1.947  1.0808  0.2725 -0.2052
11816TIP3    H256940   5.135   4.459   2.054 -2.4041 -0.3831 -0.9403
11817TIP3   OH256941   5.532   6.271   0.727  0.4493  0.2746  0.2540
11817TIP3    H156942   5.516   6.258   0.634 -1.5375 -2.2771  0.8272
11817TIP3    H256943   5.619   6.235   0.742 -0.5905 -2.6125 -0.1314
11818TIP3   OH256944   5.773   4.486   1.474 -0.3141 -0.1986 -0.0277
11818TIP3    H156945   5.706   4.538   1.430  0.9583  2.1483  0.6093
11818TIP3    H256946   5.779   4.406   1.422 -2.8093 -0.0264 -0.7094
11819TIP3   OH256947   2.054   2.383  14.325 -0.2839  0.6433  0.4359
11819TIP3    H156948   2.119   2.330  14.372 -1.0341 -3.1783 -2.3378
11819TIP3    H256949   2.101   2.416  14.249 -0.8476  0.3330 -0.0537
11820TIP3   OH256950   0.545   1.763  12.238  0.0605  0.1275  0.8496
11820TIP3    H156951   0.501   1.803  12.163  1.0985 -2.0036 -1.0491
11820TIP3    H256952   0.479   1.705  12.277  0.2226 -0.7214 -0.0819
11821TIP3   OH256953   5.020   1.796  16.230 -0.4920  0.1041  0.5624
11821TIP3    H156954   5.028   1.708  16.193 -0.3457 -0.5863  2.1864
11821TIP3    H256955   5.045   1.854  16.158  3.0910 -1.2983  0.4784
11822TIP3   OH256956   2.253   3.265  12.123  0.0131 -0.0120 -0.5772
11822TIP3    H156957   2.305   3.203  12.175 -1.3123 -0.5321  0.1937
11822TIP3    H256958   2.253   3.345  12.175  1.9456  0.7778 -1.6986
11823TIP3   OH256959   0.937   1.644   3.533 -0.0050 -0.1445 -0.1491
11823TIP3    H156960   0.936   1.576   3.600  0.3706  0.6626  0.6942
11823TIP3    H256961   1.028   1.674   3.530 -0.4339  1.3168  0.5372
11824TIP3   OH256962   3.427   3.912  11.499 -1.0060  0.1937 -0.0083
11824TIP3    H156963   3.451   3.894  11.590  0.7726 -4.0294 -1.0746
11824TIP3    H256964   3.332   3.924  11.500 -0.8946  1.3781  2.4682
11825TIP3   OH256965   0.574   1.498  16.498 -0.1886 -0.1574  0.1220
11825TIP3    H156966   0.627   1.556  16.552 -0.1814 -1.2317  1.3121
11825TIP3    H256967   0.490   1.492  16.544 -0.5919 -0.1714 -0.6013
11826TIP3   OH256968   6.551   1.843   3.922  0.0729 -0.6381  0.1388
11826TIP3    H156969   6.529   1.773   3.860 -0.3619 -2.0950  1.8410
11826TIP3    H256970   6.632   1.814   3.964 -0.9021 -0.9456  1.9479
11827TIP3   OH256971   0.490   2.324  16.118  0.2510  0.7063  0.4998
11827TIP3    H156972   0.471   2.305  16.026 -1.8052  2.2938  0.5160
11827TIP3    H256973   0.547   2.253  16.146 -1.4666 -1.4856 -1.2101
11828TIP3   OH256974   4.177   3.654  12.179  0.9088 -0.8623  0.2476
11828TIP3    H156975   4.223   3.645  12.096 -1.6663  0.1033 -1.3807
11828TIP3    H256976   4.123   3.575  12.185 -0.5573  0.1011 -0.0921
11829TIP3   OH256977   5.309   1.158   3.395 -0.0515 -0.1253 -0.0421
11829TIP3    H156978   5.347   1.216   3.329 -3.3351  1.8542 -0.4465
11829TIP3    H256979   5.246   1.104   3.347 -1.3716  0.2546  1.1825
11830TIP3   OH256980   0.744   0.410   0.502 -0.1437 -0.3252 -0.2951
11830TIP3    H156981   0.709   0.487   0.546 -0.9517 -0.1581 -1.1946
11830TIP3    H256982   0.690   0.338   0.534 -0.3039 -0.3050 -0.5227
11831TIP3   OH256983   0.015   0.977  15.363  0.1316 -0.3304  0.1789
11831TIP3    H156984   0.004   1.015  15.276 -0.2576  2.1410  1.2217
11831TIP3    H256985   0.110   0.971  15.375  0.2281  1.1958  0.3096
11832TIP3   OH256986   5.805   4.233  13.429 -0.4746 -0.0139 -0.3789
11832TIP3    H156987   5.711   4.238  13.444 -0.3792 -0.0096  0.2298
11832TIP3    H256988   5.843   4.221  13.516  0.1051  0.2463 -0.5881
11833TIP3   OH256989   1.530   6.355   6.283 -0.7082  0.3682 -0.0540
11833TIP3    H156990   1.469   6.428   6.288  0.5076  1.3388  1.1891
11833TIP3    H256991   1.616   6.394   6.295  0.2233 -0.9458 -1.8806
11834TIP3   OH256992   1.439   1.630   1.577 -0.2605  0.1201  0.5051
11834TIP3    H156993   1.386   1.700   1.539  0.4944 -0.2576 -1.3492
11834TIP3    H256994   1.377   1.558   1.593 -0.5587  0.1724 -0.3630
11835TIP3   OH256995   1.650   5.258   0.119 -0.6423 -0.1678 -0.3904
11835TIP3    H156996   1.628   5.165   0.128 -1.2644  0.0748  0.8654
11835TIP3    H256997   1.566   5.302   0.112 -0.5113  0.5334  1.7980
11836TIP3   OH256998   2.878   4.746  12.977  0.2485  0.3091 -0.1881
11836TIP3    H156999   2.880   4.675  12.913  0.2379  2.4523 -2.7506
11836TIP3    H257000   2.968   4.753  13.009  0.3600 -0.4883 -0.3162
11837TIP3   OH257001   1.421   0.512   4.410 -0.5021  0.0543 -0.0706
11837TIP3    H157002   1.363   0.529   4.336 -1.1884 -0.3933  0.3575
11837TIP3    H257003   1.509   0.522   4.374 -0.8230  1.7902 -0.4888
11838TIP3   OH257004   0.815   5.079   2.011  0.7504 -0.6721 -0.0850
11838TIP3    H157005   0.842   5.054   2.099 -0.0306 -1.1386  0.0302
11838TIP3    H257006   0.753   5.151   2.024 -0.5544 -1.7467 -0.1452
11839TIP3   OH257007   4.877   4.152   2.588  0.0440  0.8610  0.0602
11839TIP3    H157008   4.821   4.158   2.666 -0.4733 -0.0970 -0.2282
11839TIP3    H257009   4.816   4.152   2.514  0.3136 -1.1995 -0.2227
11840TIP3   OH257010   1.243   5.734   1.455  0.0033  0.1290  0.1476
11840TIP3    H157011   1.210   5.786   1.529 -0.1080  1.4320 -0.7644
11840TIP3    H257012   1.190   5.764   1.381  0.2088 -1.0460 -0.4944
11841TIP3   OH257013   3.463   6.237  11.297  0.4767 -0.0289 -0.4835
11841TIP3    H157014   3.373   6.209  11.314  0.8845 -0.6878  0.7190
11841TIP3    H257015   3.499   6.255  11.384  1.5790 -0.0320 -0.9244
11842TIP3   OH257016   5.910   1.720   4.070 -0.1254  0.1617 -0.2162
11842TIP3    H157017   5.822   1.685   4.081  0.3685 -0.7344  1.0397
11842TIP3    H257018   5.930   1.705   3.977 -0.1332 -2.4609  0.1272
11843TIP3   OH257019   3.016   3.081  11.778  0.4634 -0.3570 -0.4720
11843TIP3    H157020   3.014   3.124  11.692  1.2819 -1.1825 -0.9253
11843TIP3    H257021   3.098   3.032  11.778 -0.2381 -1.5756  0.1900
11844TIP3   OH257022   2.123   4.895  11.374 -0.6270 -0.2989 -1.0389
11844TIP3    H157023   2.107   4.801  11.372  0.3133 -0.5287  0.5526
11844TIP3    H257024   2.188   4.907  11.443 -0.2252  1.4522 -1.6634
11845TIP3   OH257025   6.492   4.034   0.675 -0.4778  0.3470  0.2145
11845TIP3    H157026   6.461   3.979   0.603  0.0850  0.2443  0.0491
11845TIP3    H257027   6.504   4.120   0.636 -0.8397  0.4634  0.3510
11846TIP3   OH257028   6.689   4.879  15.015 -0.2457  0.1377  0.1890
11846TIP3    H157029   6.741   4.896  14.937  1.3309 -0.5466  1.0392
11846TIP3    H257030   6.687   4.784  15.023 -0.1592  0.2023  1.1195
11847TIP3   OH257031   0.881   1.959   2.668  1.0742 -0.0577 -0.4725
11847TIP3    H157032   0.792   1.987   2.690  0.7832 -1.2930  0.0529
11847TIP3    H257033   0.877   1.938   2.575  0.7657 -0.2339 -0.4236
11848TIP3   OH257034   0.834   5.829   6.029 -0.5149  0.6302 -0.0154
11848TIP3    H157035   0.818   5.898   5.965 -1.2391  0.4391 -0.0535
11848TIP3    H257036   0.748   5.791   6.044 -0.3542  0.6632  1.0563
11849TIP3   OH257037   1.159   4.149   4.953  0.1192  0.1054 -0.1054
11849TIP3    H157038   1.167   4.113   5.041 -0.1191  1.7611  0.6316
11849TIP3    H257039   1.076   4.114   4.920 -0.3534  0.3659  0.7839
11850TIP3   OH257040   0.166   0.314   0.151 -0.4328  0.2411 -0.2490
11850TIP3    H157041   0.152   0.390   0.094 -0.5453  1.2538  1.0623
11850TIP3    H257042   0.129   0.341   0.235  1.4858 -0.4307  0.8603
11851TIP3   OH257043   2.180   5.999   4.215 -0.0457 -0.0328  0.4591
11851TIP3    H157044   2.161   6.082   4.171 -1.5001 -0.5754 -0.0091
11851TIP3    H257045   2.149   6.011   4.305  0.3768  0.1602  0.5781
11852TIP3   OH257046   3.194   5.048   3.175  0.1563  0.1657  0.1069
11852TIP3    H157047   3.170   4.985   3.107 -0.2130  0.7818 -0.3541
11852TIP3    H257048   3.139   5.024   3.250 -0.6888  0.5125 -0.3829
11853TIP3   OH257049   3.721   2.962   5.442  0.0835 -0.1217 -0.4925
11853TIP3    H157050   3.809   2.924   5.450  0.4722  0.8621  0.0097
11853TIP3    H257051   3.735   3.056   5.449 -1.2063 -0.0348  1.4692
11854TIP3   OH257052   5.321   1.021   1.220  0.4172 -0.5250  0.0022
11854TIP3    H157053   5.319   0.950   1.284 -0.7987  0.6935  1.3944
11854TIP3    H257054   5.291   0.982   1.139 -4.4400 -0.8548  1.6579
11855TIP3   OH257055   1.686   5.685   5.106 -0.5759  0.2401  0.0541
11855TIP3    H157056   1.751   5.738   5.152 -1.8784  1.6734  0.3199
11855TIP3    H257057   1.720   5.677   5.017  0.3534  0.2633  0.3928
11856TIP3   OH257058   0.575   1.215   2.904  0.4801 -0.7949 -0.0964
11856TIP3    H157059   0.510   1.152   2.937 -0.6644 -0.4858 -1.5959
11856TIP3    H257060   0.564   1.211   2.808  0.2312  1.7839 -0.2516
11857TIP3   OH257061   1.868   3.265  14.623  0.3435 -0.1115 -0.3117
11857TIP3    H157062   1.773   3.272  14.617  0.2624 -0.0421  0.8027
11857TIP3    H257063   1.899   3.356  14.619  0.1025  0.1868  2.5737
11858TIP3   OH257064   5.155   3.205   1.137  0.0366 -0.0705 -0.0409
11858TIP3    H157065   5.180   3.177   1.049  1.1090 -0.4641  0.3651
11858TIP3    H257066   5.231   3.254   1.169  0.8666 -2.3113  1.7053
11859TIP3   OH257067   5.628   3.835  14.758  0.3917 -0.1788  0.3896
11859TIP3    H157068   5.682   3.914  14.751 -2.5456  1.9643  0.2368
11859TIP3    H257069   5.598   3.834  14.848 -1.9101  0.6061 -0.3003
11860TIP3   OH257070   0.205   3.377   4.356  0.0209  0.1259  0.0243
11860TIP3    H157071   0.300   3.374   4.356  0.0149 -2.7986  1.7669
11860TIP3    H257072   0.180   3.377   4.448 -1.7519  2.5061 -0.3269
11861TIP3   OH257073   4.184   3.713   2.224 -0.2446 -0.2708 -0.2806
11861TIP3    H157074   4.170   3.624   2.255  0.1009 -0.4292 -0.5724
11861TIP3    H257075   4.103   3.736   2.178 -0.0419 -0.7198 -0.8751
11862TIP3   OH257076   2.284   2.965   2.997  0.1821  0.3251  0.2527
11862TIP3    H157077   2.349   3.019   2.952 -0.9332 -0.3286 -2.3199
11862TIP3    H257078   2.248   3.023   3.064 -1.0694  2.9714 -2.4649
11863TIP3   OH257079   3.439   5.180  13.419  0.0678  0.4362  0.0469
11863TIP3    H157080   3.532   5.159  13.420 -0.0740 -0.3522  1.9336
11863TIP3    H257081   3.435   5.274  13.405  0.9264  0.0747 -4.0913
11864TIP3   OH257082   3.210   5.747   0.780 -0.2046  0.1769 -0.1747
11864TIP3    H157083   3.224   5.795   0.698 -1.2357 -2.1353 -1.8220
11864TIP3    H257084   3.117   5.761   0.800  0.0716  0.8436  0.7289
11865TIP3   OH257085   3.415   2.446  13.633  0.7281  0.0640 -0.0874
11865TIP3    H157086   3.432   2.449  13.539  1.8274 -0.7563  0.0735
11865TIP3    H257087   3.333   2.397  13.641  1.9785 -2.1944 -0.4883
11866TIP3   OH257088   6.106   5.117   6.284 -0.0156  0.2150 -0.1651
11866TIP3    H157089   6.184   5.087   6.332 -0.8227 -0.1808  0.9512
11866TIP3    H257090   6.038   5.053   6.307 -0.2974 -0.3297 -2.3465
11867TIP3   OH257091   5.218   1.129  13.492  0.0122 -0.2775  0.3278
11867TIP3    H157092   5.214   1.150  13.585 -1.0790  2.1349 -0.1912
11867TIP3    H257093   5.195   1.210  13.448  1.5384 -1.0640 -2.1092
11868TIP3   OH257094   6.769   0.332  10.801 -0.2994 -0.6968  0.1259
11868TIP3    H157095   6.743   0.250  10.760 -2.7607  0.5488 -1.0959
11868TIP3    H257096   6.709   0.341  10.875  0.5780 -0.4369  0.8139
11869TIP3   OH257097   3.291   4.610  14.413  0.3217 -0.8907  0.1899
11869TIP3    H157098   3.203   4.578  14.396  0.2118 -0.8558  0.6800
11869TIP3    H257099   3.321   4.645  14.329 -1.3171  2.0188  0.7253
11870TIP3   OH257100   1.291   3.766  14.600  0.1808  0.3476 -0.0226
11870TIP3    H157101   1.349   3.809  14.663  0.9255 -1.0722  0.3127
11870TIP3    H257102   1.203   3.797  14.624  0.5336  0.4490  1.2169
11871TIP3   OH257103   1.116   2.203  16.708 -0.3023 -0.4004  0.5391
11871TIP3    H157104   1.206   2.170  16.708 -0.0839  0.1362  1.4602
11871TIP3    H257105   1.078   2.168  16.789 -0.4637  0.5271  0.8768
11872TIP3   OH257106   1.253   2.666   1.088 -0.1065 -0.4203  0.2332
11872TIP3    H157107   1.313   2.709   1.026  0.2029 -1.2411 -0.0537
11872TIP3    H257108   1.235   2.581   1.048 -1.4864 -0.1874  0.3112
11873TIP3   OH257109   1.399   6.504   4.524 -0.2114 -0.1999 -0.0475
11873TIP3    H157110   1.305   6.496   4.505 -0.0586 -1.4194 -0.3673
11873TIP3    H257111   1.406   6.585   4.573 -1.2759  0.5398 -1.0512
11874TIP3   OH257112   1.059   2.908   4.583  0.3892 -0.1407  0.3213
11874TIP3    H157113   1.129   2.868   4.532  1.5116  0.9031  0.9939
11874TIP3    H257114   1.087   2.898   4.674 -1.3340 -1.5323  0.7688
11875TIP3   OH257115   5.634   5.132  14.236 -0.3001 -0.6164  0.4656
11875TIP3    H157116   5.559   5.087  14.197  0.7190 -1.6690 -0.3511
11875TIP3    H257117   5.596   5.199  14.293 -1.8901 -2.1181  1.2565
11876TIP3   OH257118   6.273   2.105  12.716 -0.3141  0.5279 -0.0477
11876TIP3    H157119   6.317   2.165  12.776 -1.2896  0.7352  0.4702
11876TIP3    H257120   6.329   2.027  12.716 -1.6356 -0.6367  3.3428
11877TIP3   OH257121   0.966   3.341  13.240  0.1941  0.4255 -0.3847
11877TIP3    H157122   0.970   3.424  13.286  0.0674  0.3099 -0.1621
11877TIP3    H257123   0.976   3.363  13.147  1.8655  0.5401 -0.2051
11878TIP3   OH257124   2.709   0.135   4.694  0.5021  0.6070  0.4905
11878TIP3    H157125   2.764   0.184   4.633  1.6480  0.3539  1.2829
11878TIP3    H257126   2.696   0.195   4.768 -1.0607  0.9963 -0.0760
11879TIP3   OH257127   5.620   4.193   4.415  0.6542 -0.1409 -0.4793
11879TIP3    H157128   5.541   4.141   4.433  0.5071  0.1555 -0.2651
11879TIP3    H257129   5.588   4.283   4.409  0.5045 -0.2777 -3.1964
11880TIP3   OH257130   4.626   2.906  16.561 -0.0973  0.0593 -0.1427
11880TIP3    H157131   4.691   2.907  16.631 -0.7316 -0.1204  0.4661
11880TIP3    H257132   4.565   2.977  16.583 -1.7020 -1.5324  0.8877
11881TIP3   OH257133   0.328   2.544   1.169  0.2143 -0.8425 -0.2237
11881TIP3    H157134   0.277   2.611   1.123  1.4013  0.2595  0.0440
11881TIP3    H257135   0.271   2.466   1.167 -0.4326 -0.3795 -2.1494
11882TIP3   OH257136   3.381   2.406   5.197 -0.4565  0.2120  0.4265
11882TIP3    H157137   3.384   2.440   5.108 -1.1645  0.9739  0.6880
11882TIP3    H257138   3.345   2.317   5.188  0.2105 -0.0134 -0.1177
11883TIP3   OH257139   3.161   4.239  15.663 -0.3702 -0.1085  0.5680
11883TIP3    H157140   3.119   4.222  15.579 -2.8541 -1.5840  1.9670
11883TIP3    H257141   3.181   4.333  15.662 -2.3592  0.3667 -0.8466
11884TIP3   OH257142   0.205   1.425  12.465 -0.6762  0.6269 -0.6192
11884TIP3    H157143   0.162   1.510  12.475  0.7254  1.3654 -0.5134
11884TIP3    H257144   0.208   1.389  12.554 -1.1775  0.5201 -0.6466
11885TIP3   OH257145   0.779   3.972  12.627  0.0140 -1.2692  0.6071
11885TIP3    H157146   0.751   4.043  12.570  2.0346 -1.1114 -0.2682
11885TIP3    H257147   0.721   3.899  12.604  1.1405 -1.4161 -2.2140
11886TIP3   OH257148   6.000   5.569   1.761 -0.2840  0.1272  0.6504
11886TIP3    H157149   5.924   5.526   1.798  0.1580 -0.2472  1.1446
11886TIP3    H257150   5.974   5.661   1.751 -1.0215 -0.1357  0.1701
11887TIP3   OH257151   0.061   3.227  13.718 -0.6032  0.0878 -0.4688
11887TIP3    H157152   0.051   3.136  13.690 -1.2367 -0.0534  0.1759
11887TIP3    H257153   0.038   3.225  13.811 -3.7035  1.4047 -1.0853
11888TIP3   OH257154   5.235   4.637  16.085 -0.6116 -0.3592 -0.5382
11888TIP3    H157155   5.304   4.664  16.024 -0.7330  1.1239 -0.0557
11888TIP3    H257156   5.156   4.630  16.031 -1.2643  3.2739 -0.2679
11889TIP3   OH257157   3.053   0.616   0.144  0.0056  0.2340  0.8229
11889TIP3    H157158   3.023   0.706   0.129  0.4883  0.0445 -1.5036
11889TIP3    H257159   3.143   0.614   0.113  0.6695 -0.6230  2.6184
11890TIP3   OH257160   3.815   0.540   1.341  0.3771  0.8809 -0.1818
11890TIP3    H157161   3.874   0.538   1.416  1.5227  1.2082 -1.0478
11890TIP3    H257162   3.790   0.448   1.329  0.6215  0.7503  0.2596
11891TIP3   OH257163   3.226   2.142   4.436  0.2373 -0.2886  0.5337
11891TIP3    H157164   3.203   2.201   4.364 -0.8518 -0.3552  0.7999
11891TIP3    H257165   3.320   2.154   4.448  0.3274  0.1703 -0.4983
11892TIP3   OH257166   4.047   6.386   1.873 -0.5606  0.4955  0.5203
11892TIP3    H157167   3.957   6.396   1.843 -0.8167 -0.3824  0.9589
11892TIP3    H257168   4.093   6.462   1.838 -1.4415  0.8797  0.1822
11893TIP3   OH257169   1.604   0.450  17.078  0.4064  0.1111 -0.5163
11893TIP3    H157170   1.690   0.490  17.094 -0.6623  1.9396  1.0566
11893TIP3    H257171   1.624   0.366  17.036  3.0834 -0.4200  1.5226
11894TIP3   OH257172   0.208   2.477  16.071 -0.1356  0.5654  0.6175
11894TIP3    H157173   0.158   2.503  16.148  1.4360  1.6243  1.3336
11894TIP3    H257174   0.265   2.552  16.053  2.6964 -1.3336  1.1288
11895TIP3   OH257175   0.959   2.781  13.459 -0.3128  0.4261  0.5967
11895TIP3    H157176   0.949   2.729  13.379  1.7145  2.2568 -0.9499
11895TIP3    H257177   0.875   2.826  13.469 -1.1809 -1.0969  0.5151
11896TIP3   OH257178   2.053   2.361   5.666  0.2581 -0.4539  0.5753
11896TIP3    H157179   2.110   2.287   5.681  1.6233 -0.1761 -2.4299
11896TIP3    H257180   2.002   2.336   5.588 -0.7882  0.9045  0.7886
11897TIP3   OH257181   6.307   5.647  15.917 -0.7417 -0.0624 -0.2130
11897TIP3    H157182   6.237   5.712  15.907 -1.2569 -0.7907 -1.6990
11897TIP3    H257183   6.269   5.566  15.883 -0.1766 -1.2330  1.7711
11898TIP3   OH257184   5.138   2.439  17.119  0.3188  0.4150  0.6657
11898TIP3    H157185   5.083   2.364  17.142  0.3731  0.6997  1.7697
11898TIP3    H257186   5.215   2.401  17.077 -0.1182 -0.0694  0.2848
11899TIP3   OH257187   1.027   3.325  12.252 -0.1313 -0.3444 -0.6315
11899TIP3    H157188   1.013   3.362  12.165 -0.0506 -0.2834 -0.6193
11899TIP3    H257189   0.940   3.324  12.292 -0.1447 -0.2251 -0.6558
11900TIP3   OH257190   0.214   5.861   5.438  0.1241 -0.9618  0.0274
11900TIP3    H157191   0.180   5.846   5.527 -2.0353 -0.9668 -0.7530
11900TIP3    H257192   0.178   5.946   5.413 -0.2239 -1.4797 -1.2652
11901TIP3   OH257193   6.332   1.230   6.606  0.2843  0.4044 -0.3165
11901TIP3    H157194   6.367   1.319   6.613  1.6335 -0.1325  0.1315
11901TIP3    H257195   6.256   1.229   6.664  0.3396  1.2230 -0.2196
11902TIP3   OH257196   4.132   1.690  11.356 -0.8685 -0.1715 -0.1385
11902TIP3    H157197   4.142   1.729  11.269  1.0046 -0.0773  0.0737
11902TIP3    H257198   4.141   1.763  11.417 -0.7730 -0.4341  0.1636
11903TIP3   OH257199   6.484   6.756   2.896  0.2674  0.2857 -0.1992
11903TIP3    H157200   6.484   6.696   2.821 -1.0450 -1.1660  0.8781
11903TIP3    H257201   6.391   6.775   2.911  0.1189 -2.2202  3.0633
11904TIP3   OH257202   3.214   5.567  14.406 -0.5984 -0.1571  0.3905
11904TIP3    H157203   3.301   5.606  14.406 -0.7689  0.2384 -0.1896
11904TIP3    H257204   3.206   5.525  14.491  0.6105 -1.1875  0.0356
11905TIP3   OH257205   5.729   5.284   2.511  0.2041 -0.1381  0.1808
11905TIP3    H157206   5.812   5.278   2.463 -0.7007 -2.1537 -1.2408
11905TIP3    H257207   5.668   5.231   2.460 -1.4106 -0.4949  2.3689
11906TIP3   OH257208   6.405   2.868  16.812  0.5047 -0.3400 -0.2469
11906TIP3    H157209   6.468   2.866  16.884  0.8462  0.2575 -0.5285
11906TIP3    H257210   6.320   2.867  16.856  0.7067 -0.7997  0.1434
11907TIP3   OH257211   3.963   2.939   6.030  0.0210 -0.1697 -0.5019
11907TIP3    H157212   3.968   3.029   6.060  0.8460 -1.0739  2.4217
11907TIP3    H257213   3.881   2.934   5.980 -0.9742  1.7736  0.8357
11908TIP3   OH257214   6.156   6.353  12.354 -0.0705  0.5443  0.0773
11908TIP3    H157215   6.063   6.336  12.337  0.2993 -1.2602 -0.3058
11908TIP3    H257216   6.186   6.400  12.276 -0.4616  0.4092 -0.1576
11909TIP3   OH257217   6.202   5.282  14.090 -0.1441  0.0239  0.0012
11909TIP3    H157218   6.149   5.359  14.070  0.0436  0.4558  1.1114
11909TIP3    H257219   6.292   5.314  14.089  0.0065 -0.3988 -0.4782
11910TIP3   OH257220   5.119   1.459   5.271 -0.0360  0.0163 -0.3365
11910TIP3    H157221   5.152   1.542   5.237  0.8261 -0.4150 -0.6041
11910TIP3    H257222   5.198   1.404   5.279  0.0734  0.5096  3.6640
11911TIP3   OH257223   5.196   2.735   3.422  0.2340 -0.1601 -0.6409
11911TIP3    H157224   5.143   2.688   3.486  0.6513 -1.6076 -1.3241
11911TIP3    H257225   5.252   2.792   3.475  1.7092 -2.4836  0.4560
11912TIP3   OH257226   4.144   1.398  13.540  0.5916  0.0722  0.2268
11912TIP3    H157227   4.095   1.447  13.473  0.0257 -1.4283 -0.4963
11912TIP3    H257228   4.229   1.382  13.499  1.8114  2.6736  1.4796
11913TIP3   OH257229   2.421   1.637   2.704 -0.3834 -0.6894 -0.2659
11913TIP3    H157230   2.327   1.654   2.706 -0.2754  0.1391 -1.4835
11913TIP3    H257231   2.428   1.548   2.668 -0.6622 -0.1630 -1.6729
11914TIP3   OH257232   5.273   2.607  14.096  0.3553  0.0357  0.2994
11914TIP3    H157233   5.229   2.585  14.177 -0.8203  1.0264 -0.0347
11914TIP3    H257234   5.269   2.703  14.091  0.7762  0.0209 -0.7047
11915TIP3   OH257235   2.139   4.754   4.846 -0.0197  0.3349  0.6735
11915TIP3    H157236   2.078   4.698   4.796 -3.1627  0.5789  3.8163
11915TIP3    H257237   2.222   4.706   4.844 -1.1997 -1.8546 -1.0043
11916TIP3   OH257238   4.085   0.228   1.686  0.1545  0.7299  0.2739
11916TIP3    H157239   4.011   0.202   1.630 -0.9235  0.3858  1.7824
11916TIP3    H257240   4.048   0.229   1.775  1.8314  1.1404  1.0026
11917TIP3   OH257241   0.726   4.466   2.006 -0.5768 -0.2891  0.3780
11917TIP3    H157242   0.809   4.494   1.968 -0.2209 -0.2447  1.1814
11917TIP3    H257243   0.684   4.547   2.035 -1.3899 -0.1979 -0.9725
11918TIP3   OH257244   4.644   3.080  14.896 -0.3151 -0.4937  0.4960
11918TIP3    H157245   4.720   3.139  14.896 -1.0809  0.5196  1.0897
11918TIP3    H257246   4.572   3.132  14.931 -0.9036 -1.9664  1.5814
11919TIP3   OH257247   0.675   4.987  16.827 -0.2750 -0.7649  0.0327
11919TIP3    H157248   0.635   5.073  16.809 -1.4235 -1.6830 -2.1627
11919TIP3    H257249   0.651   4.969  16.918 -1.4692  0.5047  0.0070
11920TIP3   OH257250   0.353   3.056   4.031  0.0361 -0.0071  0.2879
11920TIP3    H157251   0.418   3.094   4.090 -0.9819  2.2419  0.0599
11920TIP3    H257252   0.381   3.083   3.943 -0.0946 -0.7775  0.0015
11921TIP3   OH257253   4.599   3.614  11.518  0.0563 -0.2794 -0.3018
11921TIP3    H157254   4.508   3.607  11.550 -0.0828  1.4130 -0.2687
11921TIP3    H257255   4.610   3.536  11.464 -0.9333 -1.2801  0.8518
11922TIP3   OH257256   3.485   6.074   2.867 -0.1267  0.5316 -0.1353
11922TIP3    H157257   3.394   6.066   2.894 -0.5341 -0.6987 -1.7183
11922TIP3    H257258   3.505   6.167   2.875 -1.2894  0.7118  0.8961
11923TIP3   OH257259   3.258   3.837   0.382 -0.4899 -0.2139  0.6711
11923TIP3    H157260   3.350   3.817   0.363 -0.2843  0.9334  0.3411
11923TIP3    H257261   3.222   3.756   0.418  0.4066 -0.9675 -0.0668
11924TIP3   OH257262   1.841   4.944   4.878 -0.0753 -0.1112  0.4702
11924TIP3    H157263   1.825   4.942   4.972  0.9570 -0.7407  0.6566
11924TIP3    H257264   1.789   4.871   4.843  0.2720 -0.4675  0.6900
11925TIP3   OH257265   4.795   0.715  15.669  0.4669  0.0870 -0.1757
11925TIP3    H157266   4.828   0.782  15.729  0.1150 -0.8239  1.0940
11925TIP3    H257267   4.844   0.728  15.588  0.9647  1.3588  0.3025
11926TIP3   OH257268   3.385   4.082  16.142  0.1749 -0.5350  0.4591
11926TIP3    H157269   3.378   4.075  16.047 -0.3184 -0.9298  0.5210
11926TIP3    H257270   3.477   4.064  16.162  0.0608 -1.4946  0.1475
11927TIP3   OH257271   0.435   5.690   3.099  0.1370  0.5398 -0.3053
11927TIP3    H157272   0.486   5.621   3.141 -0.1721 -0.4678 -1.5530
11927TIP3    H257273   0.499   5.759   3.080  0.7809 -0.1428 -0.6314
11928TIP3   OH257274   2.889   4.693  15.983  0.0083 -0.0217  0.2063
11928TIP3    H157275   2.924   4.604  15.983 -0.4199 -0.1929  1.3588
11928TIP3    H257276   2.814   4.689  15.924 -0.5473 -0.6475  0.9336
11929TIP3   OH257277   6.827   3.109   1.883  0.2807  0.2363  0.3245
11929TIP3    H157278   6.872   3.025   1.888 -1.0365 -0.4956  0.3968
11929TIP3    H257279   6.774   3.112   1.963  0.7037  1.3820  0.5814
11930TIP3   OH257280   3.288   3.541  13.861 -0.5505  0.5944 -0.1626
11930TIP3    H157281   3.236   3.524  13.783  1.3750  0.0919 -1.3867
11930TIP3    H257282   3.287   3.459  13.909  1.6326 -0.4621 -1.7735
11931TIP3   OH257283   2.703   0.191   2.894  0.1287  0.0976  0.2436
11931TIP3    H157284   2.752   0.237   2.963 -0.7430  2.3061 -0.5444
11931TIP3    H257285   2.619   0.169   2.935 -0.2511  1.0883  0.0113
11932TIP3   OH257286   1.337   3.395  15.484  0.5964  0.6832 -1.2714
11932TIP3    H157287   1.398   3.458  15.447  0.3576  3.7347  2.8043
11932TIP3    H257288   1.253   3.416  15.444  0.8977  1.5966 -1.4387
11933TIP3   OH257289   2.509   3.634   4.393 -0.6565  0.3399 -0.2913
11933TIP3    H157290   2.522   3.570   4.463 -1.0591 -1.3977 -1.7090
11933TIP3    H257291   2.414   3.648   4.391 -1.0134 -1.7313 -2.1419
11934TIP3   OH257292   5.179   2.268   4.012  0.1937 -0.6153 -0.5978
11934TIP3    H157293   5.164   2.356   3.977  3.4538  1.4149  2.4656
11934TIP3    H257294   5.103   2.252   4.068  0.4068  1.1643  0.2821
11935TIP3   OH257295   4.229   1.009   5.510  0.0420  0.1432 -0.3512
11935TIP3    H157296   4.150   0.958   5.493  0.5606 -1.2124  1.0558
11935TIP3    H257297   4.286   0.991   5.434  0.4218 -1.8670  0.3461
11936TIP3   OH257298   0.217   0.808  16.105 -0.4350 -0.3133 -0.2697
11936TIP3    H157299   0.156   0.841  16.172 -1.5788 -1.7503 -0.5568
11936TIP3    H257300   0.208   0.713  16.110  0.5171 -0.4841 -1.5160
11937TIP3   OH257301   5.611   0.870   4.691  0.0189 -0.3891 -0.5558
11937TIP3    H157302   5.705   0.874   4.710 -0.0690 -1.2928  0.1521
11937TIP3    H257303   5.572   0.841   4.774 -0.8874 -0.0220 -0.8465
11938TIP3   OH257304   0.884   0.928  12.963 -0.3184 -0.1798  0.0405
11938TIP3    H157305   0.863   1.021  12.960 -2.4784 -0.6261 -1.4995
11938TIP3    H257306   0.832   0.894  13.036  1.5652 -0.0204  1.5435
11939TIP3   OH257307   1.906   1.169   6.404 -0.6222  0.1186 -0.3719
11939TIP3    H157308   1.874   1.256   6.377  0.4090 -0.2496 -3.1552
11939TIP3    H257309   1.993   1.186   6.441 -0.7771  0.3572 -0.1131
11940TIP3   OH257310   5.764   2.410   5.631 -0.6595  0.5159  0.2301
11940TIP3    H157311   5.741   2.415   5.723 -0.9572  1.5467  0.1126
11940TIP3    H257312   5.775   2.501   5.604 -0.4578  0.2226 -0.7254
11941TIP3   OH257313   5.788   3.432   0.038 -0.0185  0.0917  0.5457
11941TIP3    H157314   5.790   3.395   0.127  0.4138 -0.6283  0.2485
11941TIP3    H257315   5.878   3.461   0.023 -0.6898  2.8985  1.4090
11942TIP3   OH257316   5.769   4.913   3.444  0.4327 -0.2425 -0.2115
11942TIP3    H157317   5.819   4.984   3.485 -0.6298  0.1026  0.5359
11942TIP3    H257318   5.758   4.848   3.514 -1.0147  0.1484 -0.0538
11943TIP3   OH257319   3.974   3.587   5.441  0.2846  0.2721  0.3476
11943TIP3    H157320   3.978   3.493   5.458  0.8012  0.3011  0.4039
11943TIP3    H257321   3.881   3.606   5.433  0.1474 -0.1452  0.9048
11944TIP3   OH257322   1.567   6.372   1.465 -0.1622 -1.2196 -0.4136
11944TIP3    H157323   1.524   6.319   1.397  1.7951 -0.4463 -2.3888
11944TIP3    H257324   1.607   6.444   1.416  1.3134 -0.5945  1.5982
11945TIP3   OH257325   2.728   5.636   2.577 -0.1484  0.0513  0.2370
11945TIP3    H157326   2.671   5.578   2.525  0.4870 -0.5135  0.1442
11945TIP3    H257327   2.772   5.576   2.637  0.2250  0.5052  0.4110
11946TIP3   OH257328   1.592   1.582   4.677  0.7203 -0.0394  0.2907
11946TIP3    H157329   1.632   1.514   4.624  0.9381 -0.0474  0.4606
11946TIP3    H257330   1.499   1.560   4.679  0.6709  0.1003 -0.2911
11947TIP3   OH257331   5.007   2.619  16.196 -0.3879  0.3241  0.2413
11947TIP3    H157332   4.930   2.675  16.209 -0.4778  0.0405  0.9960
11947TIP3    H257333   5.069   2.674  16.148  0.0641  1.5789  2.1385
11948TIP3   OH257334   0.021   2.937  15.913 -0.2348 -0.3583 -0.1248
11948TIP3    H157335  -0.042   2.883  15.960 -1.0721  1.7424  1.2982
11948TIP3    H257336   0.086   2.961  15.979  0.8427 -0.6407 -1.0434
11949TIP3   OH257337   0.548   3.904  16.026 -0.1061 -0.4813 -0.2317
11949TIP3    H157338   0.514   3.966  15.961 -0.6567  1.0808  1.4759
11949TIP3    H257339   0.471   3.854  16.054 -0.6045  1.1690  1.6080
11950TIP3   OH257340   4.353   2.103   6.410 -0.2993  0.6291 -0.1863
11950TIP3    H157341   4.333   2.163   6.482  0.2789  0.2400  0.3085
11950TIP3    H257342   4.285   2.036   6.415  0.0116  0.3395  0.3114
11951TIP3   OH257343   1.884   4.172   5.651 -0.6207 -0.0368  0.4835
11951TIP3    H157344   1.794   4.156   5.677 -0.8024 -1.3408 -0.8786
11951TIP3    H257345   1.878   4.226   5.572 -0.1270  1.6604  1.5421
11952TIP3   OH257346   2.104   0.373  14.497 -0.1765  0.0843  0.0048
11952TIP3    H157347   2.078   0.296  14.446  2.3695 -0.4247 -0.6452
11952TIP3    H257348   2.154   0.337  14.570 -0.0242  1.0652  0.4008
11953TIP3   OH257349   5.738   6.245   1.436  0.3218  0.1463 -0.3757
11953TIP3    H157350   5.671   6.247   1.368 -0.8369 -2.2326  0.5697
11953TIP3    H257351   5.696   6.286   1.512  1.0746  1.4186 -0.6174
11954TIP3   OH257352   2.471   3.638  12.789  0.2146  0.5302  0.1461
11954TIP3    H157353   2.530   3.706  12.757  0.0684  2.1304  2.9731
11954TIP3    H257354   2.529   3.566  12.814  0.3825 -0.4625 -2.6543
11955TIP3   OH257355   3.573   2.697   5.121 -0.4769 -0.2743  0.2858
11955TIP3    H157356   3.585   2.748   5.041  1.3817 -1.7771 -0.4674
11955TIP3    H257357   3.661   2.683   5.155 -1.1840 -0.1278  2.3504
11956TIP3   OH257358   3.499   0.621   5.798 -0.0361 -0.3126 -0.2317
11956TIP3    H157359   3.451   0.590   5.874  1.7227  0.1004  1.1218
11956TIP3    H257360   3.524   0.542   5.751 -0.5527 -0.6113 -0.0138
11957TIP3   OH257361   0.382   2.240  13.783 -0.3007 -0.2724  0.2319
11957TIP3    H157362   0.382   2.311  13.719 -0.0582  0.0645  0.6029
11957TIP3    H257363   0.341   2.167  13.737 -0.3122  0.0257 -0.2422
11958TIP3   OH257364   4.132   4.715  13.801 -0.4652 -0.1438 -0.1393
11958TIP3    H157365   4.175   4.770  13.735  4.1345 -0.0604  2.5418
11958TIP3    H257366   4.130   4.628  13.762  0.4609  0.2218 -1.0440
11959TIP3   OH257367   1.380   5.355   2.962  0.3000 -0.5909 -0.5101
11959TIP3    H157368   1.409   5.382   2.874 -0.5388 -0.3585 -0.7195
11959TIP3    H257369   1.294   5.316   2.948 -0.2399  0.2619  0.3155
11960TIP3   OH257370   2.308   1.620  13.528 -0.5151  0.0231 -0.4054
11960TIP3    H157371   2.348   1.705  13.512 -0.0201 -0.0194  0.5205
11960TIP3    H257372   2.360   1.582  13.599 -1.1625 -0.7533 -0.3293
11961TIP3   OH257373   0.770   2.249   1.357 -0.2655  0.1135  0.1024
11961TIP3    H157374   0.706   2.316   1.333  1.2038  1.0256 -1.5102
11961TIP3    H257375   0.757   2.237   1.451 -1.1387  2.0778  0.2942
11962TIP3   OH257376   4.868   0.006  13.819  0.1556 -0.6149 -0.0494
11962TIP3    H157377   4.805  -0.061  13.793 -0.6901  0.2229 -0.2519
11962TIP3    H257378   4.816   0.087  13.823  1.2180  0.0968 -0.1894
11963TIP3   OH257379   5.119   5.112  13.779  0.3009 -0.1234  0.1597
11963TIP3    H157380   5.199   5.164  13.770 -0.8296  1.3336 -2.6441
11963TIP3    H257381   5.150   5.021  13.786  2.2323  0.3177 -1.5530
11964TIP3   OH257382   0.743   2.776   0.240  0.0371  0.2297  0.2471
11964TIP3    H157383   0.707   2.749   0.155 -1.5276  0.2804  0.8584
11964TIP3    H257384   0.779   2.864   0.224 -0.8615  0.5270 -0.2166
11965TIP3   OH257385   1.217   3.643   4.522 -1.0192  0.6862 -0.3582
11965TIP3    H157386   1.159   3.609   4.591 -2.4931  2.6765 -0.5185
11965TIP3    H257387   1.158   3.664   4.450  0.6290 -2.9678 -3.0991
11966TIP3   OH257388   1.020   3.033  14.592  0.0643 -0.0419  0.1669
11966TIP3    H157389   1.106   3.063  14.563 -0.7625  0.2425 -2.2193
11966TIP3    H257390   1.028   3.025  14.687  2.1087  1.9297  0.2399
11967TIP3   OH257391   5.107   1.519   3.971 -0.5975 -0.0556 -0.0605
11967TIP3    H157392   5.177   1.563   3.923 -1.2681 -0.8567 -1.8515
11967TIP3    H257393   5.130   1.531   4.063  0.2695  2.3154 -0.5155
11968TIP3   OH257394   2.948   3.725   0.426 -0.6413  0.0764  0.0215
11968TIP3    H157395   2.855   3.744   0.421 -0.6257 -0.0232 -0.9065
11968TIP3    H257396   2.988   3.807   0.455 -0.9108  0.4448 -0.6348
11969TIP3   OH257397   2.320   0.884  16.828  0.1003  0.1385  0.5171
11969TIP3    H157398   2.306   0.814  16.765  0.4475 -0.0428  0.6391
11969TIP3    H257399   2.233   0.922  16.842  0.1597  0.8319 -0.8174
11970TIP3   OH257400   6.298   5.461   1.339 -0.3597 -0.2794 -0.8845
11970TIP3    H157401   6.257   5.377   1.358 -0.3326  0.1361  1.2487
11970TIP3    H257402   6.392   5.442   1.338 -0.3494 -0.2798 -0.3340
11971TIP3   OH257403   4.914   0.694  11.860  0.2110 -0.6100  0.3007
11971TIP3    H157404   4.903   0.786  11.836  0.1287 -0.5376  0.6118
11971TIP3    H257405   4.826   0.658  11.860  0.4011 -1.1828 -1.7272
11972TIP3   OH257406   3.928   4.637   4.908 -0.0817 -0.1662 -0.4483
11972TIP3    H157407   3.958   4.727   4.920 -1.8319  0.5648 -1.1034
11972TIP3    H257408   3.982   4.603   4.836  0.8963  0.1905  0.0986
11973TIP3   OH257409   6.044   5.228   0.477 -0.0953 -0.0684 -0.3791
11973TIP3    H157410   6.124   5.198   0.435 -0.3989  0.3172 -1.2544
11973TIP3    H257411   6.073   5.264   0.561  1.1077  2.8806 -1.9260
11974TIP3   OH257412   3.819   3.962   6.091 -0.1503 -0.5930  0.0813
11974TIP3    H157413   3.841   3.891   6.031 -1.6829 -1.1469  0.1457
11974TIP3    H257414   3.882   3.953   6.162  0.4380 -1.1282 -0.4941
11975TIP3   OH257415   2.924   0.758  14.443 -0.5338  0.0798 -0.2114
11975TIP3    H157416   2.947   0.830  14.500 -0.8547  0.0255 -0.0112
11975TIP3    H257417   2.978   0.771  14.365  2.1303 -1.4801  1.2393
11976TIP3   OH257418   4.713   6.015  16.712  0.6083 -0.1655 -0.0342
11976TIP3    H157419   4.619   6.009  16.698  0.3960 -0.4039  1.3660
11976TIP3    H257420   4.751   6.009  16.624 -0.5460 -2.6910 -0.4245
11977TIP3   OH257421   3.240   6.085  16.540 -0.3080  0.2412  0.1761
11977TIP3    H157422   3.190   6.158  16.504 -0.7969 -1.2048 -2.3595
11977TIP3    H257423   3.301   6.061  16.470  0.6428 -1.0465  1.3855
11978TIP3   OH257424   0.162   2.752   1.076  0.2007  0.4975  0.5096
11978TIP3    H157425   0.214   2.827   1.104  0.3498 -0.2945  2.4950
11978TIP3    H257426   0.187   2.738   0.985  1.8664  1.4596  0.7792
11979TIP3   OH257427   4.133   0.524   1.839  0.2340  0.3588  0.5777
11979TIP3    H157428   4.090   0.596   1.885 -2.4530  1.5782 -3.2895
11979TIP3    H257429   4.073   0.450   1.848 -0.6923  0.8124 -1.3048
11980TIP3   OH257430   1.635   0.596  16.389  0.3813 -0.3914  0.2378
11980TIP3    H157431   1.590   0.660  16.334 -0.6016 -0.0113  1.4237
11980TIP3    H257432   1.565   0.552  16.437  1.0651 -2.2370 -0.3959
11981TIP3   OH257433   3.255   6.112  17.119  0.1531  0.2214 -0.1982
11981TIP3    H157434   3.303   6.119  17.036  1.8157 -0.4598  0.6648
11981TIP3    H257435   3.221   6.023  17.119 -1.3114  0.7363 -0.8573
11982TIP3   OH257436   1.994   5.872  13.647 -0.1108  0.3605 -0.4712
11982TIP3    H157437   1.935   5.801  13.671 -0.2935  0.4951 -0.5176
11982TIP3    H257438   1.951   5.951  13.679  1.5265  0.2228  2.3662
11983TIP3   OH257439   2.479   2.380   5.775 -0.0158 -0.0906  1.0214
11983TIP3    H157440   2.562   2.335   5.757  0.2830  0.0557  1.9932
11983TIP3    H257441   2.489   2.465   5.733 -0.2596 -0.5960 -0.1147
11984TIP3   OH257442   3.026   1.900   3.393  0.4466 -0.5901 -0.4618
11984TIP3    H157443   2.986   1.865   3.472  1.1431  0.2250  0.2749
11984TIP3    H257444   3.004   1.837   3.325  0.1431 -1.4942  0.4522
11985TIP3   OH257445   5.288   3.715  15.653 -0.3751 -0.0391 -0.7324
11985TIP3    H157446   5.254   3.702  15.741 -0.8100  1.7415 -0.6115
11985TIP3    H257447   5.381   3.733  15.665 -0.9434  3.2247 -0.2745
11986TIP3   OH257448   2.579   1.569  12.441 -0.0005  0.0752  0.3973
11986TIP3    H157449   2.520   1.530  12.378  1.0622  0.7277 -1.0544
11986TIP3    H257450   2.661   1.583  12.393  0.7950  0.7747  1.8565
11987TIP3   OH257451   0.012   5.751   0.062  0.4429  0.1804  0.5852
11987TIP3    H157452   0.073   5.677   0.062  0.8243  0.4929  0.3938
11987TIP3    H257453   0.068   5.828   0.054  0.0344  0.4796  0.6136
11988TIP3   OH257454   3.117   4.602  10.291 -0.0622 -0.7479 -0.2772
11988TIP3    H157455   3.073   4.566  10.215 -0.2528 -1.9395  0.3641
11988TIP3    H257456   3.056   4.587  10.364  1.5630 -3.0443  0.7513
11989TIP3   OH257457   2.758   3.593  16.172 -0.6282  0.0530  0.2916
11989TIP3    H157458   2.826   3.551  16.119  0.3912  1.0842  0.7554
11989TIP3    H257459   2.698   3.522  16.193  0.3581 -0.9150 -0.0276
11990TIP3   OH257460   6.798   2.371   0.227  0.8684  0.4234 -0.1502
11990TIP3    H157461   6.755   2.456   0.242  0.7771  0.4032 -0.2902
11990TIP3    H257462   6.780   2.321   0.306  1.3395  0.7060  0.1416
11991TIP3   OH257463   5.171   4.854  14.142 -0.1943  1.0728  0.1958
11991TIP3    H157464   5.112   4.831  14.214  1.1597 -2.7082  0.3006
11991TIP3    H257465   5.259   4.851  14.180  0.4073  1.4238 -1.1002
11992TIP3   OH257466   2.904   1.068   3.002 -0.1444  0.5828  0.3048
11992TIP3    H157467   2.869   1.128   3.068  0.3559  1.2825 -0.0477
11992TIP3    H257468   2.963   1.122   2.950  0.5706 -0.3043  0.1730
11993TIP3   OH257469   5.470   1.570  12.835 -0.6240  0.4879 -0.0522
11993TIP3    H157470   5.423   1.496  12.875 -1.7565 -0.3610 -2.7409
11993TIP3    H257471   5.402   1.637  12.826 -0.5527  0.4364 -1.0408
11994TIP3   OH257472   2.711   0.344  10.782 -0.1602  0.2613 -0.1090
11994TIP3    H157473   2.743   0.254  10.786  0.0078  0.2889 -0.6716
11994TIP3    H257474   2.634   0.339  10.725 -0.3289  0.4247  0.1023
11995TIP3   OH257475   2.631   4.574   3.567 -0.7567 -0.4832 -0.3350
11995TIP3    H157476   2.671   4.491   3.593 -0.3082 -0.2023 -0.1392
11995TIP3    H257477   2.703   4.636   3.561 -1.3437  0.4808  1.7350
11996TIP3   OH257478   5.247   5.349  16.790 -0.1022 -0.3219  0.5243
11996TIP3    H157479   5.247   5.418  16.856 -0.3544 -1.9617  2.3500
11996TIP3    H257480   5.246   5.268  16.841  2.3225 -1.7481 -1.4718
11997TIP3   OH257481   2.497   0.363   5.656 -0.1607 -0.4126 -0.0006
11997TIP3    H157482   2.454   0.442   5.686  1.0816 -1.0779  4.1642
11997TIP3    H257483   2.589   0.374   5.682  0.4402 -2.4512 -1.0009
11998TIP3   OH257484   6.522   2.144   4.450  1.0051 -0.3012  0.4223
11998TIP3    H157485   6.523   2.159   4.356  0.0282 -0.4054  0.3883
11998TIP3    H257486   6.615   2.138   4.474  1.5964  4.2776  0.2139
11999TIP3   OH257487   4.744   0.481   0.070  0.5250 -0.3384 -0.1210
11999TIP3    H157488   4.739   0.568   0.109  0.9636 -0.9493  1.3688
11999TIP3    H257489   4.775   0.496  -0.020  1.0186  0.9954  0.2575
12000TIP3   OH257490   6.699   0.018   0.404  0.2650  0.0386  0.0155
12000TIP3    H157491   6.634   0.047   0.340  1.5492  1.0552 -0.8827
12000TIP3    H257492   6.724  -0.070   0.375  0.7508  0.4458 -0.8416
12001TIP3   OH257493   6.577   5.700  10.259 -0.0200 -0.5812  0.6343
12001TIP3    H157494   6.620   5.637  10.202  2.2618 -0.1599  1.7526
12001TIP3    H257495   6.593   5.785  10.218 -0.7367 -0.4944  0.5209
12002TIP3   OH257496   5.836   4.940   4.119 -0.1415  0.2994  0.2683
12002TIP3    H157497   5.796   4.936   4.206  0.2132  0.4996  0.4404
12002TIP3    H257498   5.771   4.985   4.065 -0.6498 -0.4203  0.2655
12003TIP3   OH257499   3.755   3.647   0.672 -0.1095 -0.3429 -0.4043
12003TIP3    H157500   3.789   3.630   0.585 -0.8740  0.4923 -0.8780
12003TIP3    H257501   3.832   3.651   0.728  0.7801  2.9554 -1.6666
12004TIP3   OH257502   0.468   1.875  11.992 -0.0170  0.3450  0.4244
12004TIP3    H157503   0.554   1.845  11.964 -0.2400 -1.5546  1.6426
12004TIP3    H257504   0.415   1.872  11.912  0.9562  1.3295 -0.2882
12005TIP3   OH257505   5.435   4.799   4.919 -0.1366 -0.6189 -0.2772
12005TIP3    H157506   5.386   4.880   4.908 -1.0422 -1.2772 -1.2736
12005TIP3    H257507   5.393   4.737   4.859  1.8614 -1.2363 -1.1250
12006TIP3   OH257508   1.900   1.944  13.239  0.2941 -0.5974 -0.2944
12006TIP3    H157509   1.948   2.004  13.181  0.9214 -1.1465 -0.3645
12006TIP3    H257510   1.956   1.866  13.242  0.9227 -0.1291  2.0307
12007TIP3   OH257511   5.615   3.343  13.624 -0.4407 -0.2241  0.2139
12007TIP3    H157512   5.529   3.326  13.662 -0.8720  1.1920 -0.0883
12007TIP3    H257513   5.668   3.372  13.698 -0.7342  0.6198  0.1071
12008TIP3   OH257514   5.538   2.145  16.349  1.3052 -0.0487 -0.0583
12008TIP3    H157515   5.622   2.132  16.393  0.4849 -2.0694  1.0274
12008TIP3    H257516   5.491   2.063  16.361 -0.7780  0.9526 -0.8024
12009TIP3   OH257517   3.226   6.376   5.928  0.5725  0.2340  0.0372
12009TIP3    H157518   3.185   6.398   6.012  2.1219  3.6031  0.0746
12009TIP3    H257519   3.302   6.323   5.952  0.8419  0.9228  0.7702
12010TIP3   OH257520   2.981   3.055   0.953  0.1713  0.3140 -0.4827
12010TIP3    H157521   2.967   3.100   0.870  1.7716 -1.9947 -2.0977
12010TIP3    H257522   3.069   3.081   0.980 -0.1176  0.5914  0.2310
12011TIP3   OH257523   6.488   1.997   5.107 -0.4180 -0.3702  0.3733
12011TIP3    H157524   6.394   2.001   5.121 -0.5315  1.3152 -0.6570
12011TIP3    H257525   6.500   2.018   5.015  1.0150  0.2805  0.6760
12012TIP3   OH257526   4.899   4.099  16.372 -0.2849  0.4606 -0.1368
12012TIP3    H157527   4.827   4.155  16.401 -0.8104 -0.5002  0.4882
12012TIP3    H257528   4.869   4.010  16.391  1.6427  0.0877  1.4859
12013TIP3   OH257529   0.784   3.943   2.866  0.0520 -0.1571 -0.4752
12013TIP3    H157530   0.751   3.855   2.849  0.6757  0.0434 -3.2934
12013TIP3    H257531   0.727   4.001   2.815  2.1742  0.5595 -2.2427
12014TIP3   OH257532   0.502   3.812   1.878  1.0916  0.2736  0.0044
12014TIP3    H157533   0.449   3.848   1.949  1.1123 -0.0431  0.1793
12014TIP3    H257534   0.455   3.839   1.798  1.1143  0.6967  0.1328
12015TIP3   OH257535   0.082   1.130  16.914  0.1904  0.5113 -0.2786
12015TIP3    H157536   0.163   1.172  16.942 -0.6074  0.8141  1.7467
12015TIP3    H257537   0.013   1.178  16.961 -1.2109  0.5033 -2.2184
12016TIP3   OH257538   2.285   5.165  14.159 -0.1016  0.2398 -0.1499
12016TIP3    H157539   2.358   5.219  14.190 -0.4039  0.4561  0.1840
12016TIP3    H257540   2.226   5.159  14.234  0.9978 -2.4541  0.6121
12017TIP3   OH257541   5.316   0.588  11.005 -0.2945 -0.4918 -0.5189
12017TIP3    H157542   5.248   0.528  11.033 -0.0226 -0.6584 -0.2104
12017TIP3    H257543   5.344   0.555  10.920  1.8529 -2.5303  0.8578
12018TIP3   OH257544   4.362   4.435  15.596 -0.2396 -0.3740  0.1630
12018TIP3    H157545   4.337   4.442  15.689 -0.0151  0.6540  0.1548
12018TIP3    H257546   4.351   4.523  15.562 -2.6217 -1.1873 -1.4160
12019TIP3   OH257547   3.531   0.020  12.926 -0.0218  0.3996 -0.2376
12019TIP3    H157548   3.457   0.060  12.971 -0.8209  2.2203 -2.9185
12019TIP3    H257549   3.560   0.086  12.863  2.7981 -0.9211 -0.4787
12020TIP3   OH257550   0.287   1.727   5.832  0.4598  0.2354 -0.3272
12020TIP3    H157551   0.345   1.674   5.777  2.9710  0.5356  1.8212
12020TIP3    H257552   0.199   1.694   5.812  1.7550 -4.3338  0.3112
12021TIP3   OH257553   2.376   5.352  12.823  0.0174  0.1109  0.4100
12021TIP3    H157554   2.369   5.447  12.831  1.0575  0.1246  1.5012
12021TIP3    H257555   2.441   5.327  12.889 -0.3983 -1.3839  0.2974
12022TIP3   OH257556   0.460   0.588  13.181 -0.4062  0.1845  0.5530
12022TIP3    H157557   0.444   0.496  13.162 -1.5040  0.6873 -1.2351
12022TIP3    H257558   0.513   0.619  13.107 -0.6034  1.1435  0.7997
12023TIP3   OH257559   0.200   2.335   2.259  0.2398  0.2502 -0.5087
12023TIP3    H157560   0.281   2.385   2.248  1.0442 -0.8091  0.3594
12023TIP3    H257561   0.212   2.259   2.202  1.3796 -1.6346  2.0350
12024TIP3   OH257562   0.407   3.383   0.500  0.2830  0.2558 -0.1409
12024TIP3    H157563   0.338   3.436   0.539  0.4894 -0.3380  1.0959
12024TIP3    H257564   0.474   3.446   0.474 -0.9550  0.9026 -1.9542
12025TIP3   OH257565   5.790   3.687  15.359  0.5125  0.2199  1.0762
12025TIP3    H157566   5.725   3.664  15.425 -2.3059  2.0799 -0.8586
12025TIP3    H257567   5.847   3.751  15.403  1.1407 -1.4053  2.7824
12026TIP3   OH257568   1.618   0.729  15.918 -0.0748  0.3177  0.4283
12026TIP3    H157569   1.647   0.654  15.971 -1.0062 -0.0099  0.4950
12026TIP3    H257570   1.694   0.786  15.915  1.2359 -1.3793 -1.0069
12027TIP3   OH257571   6.134   3.816   5.633 -0.1695  0.1352 -0.1769
12027TIP3    H157572   6.090   3.845   5.553 -0.5497 -1.3324 -0.5295
12027TIP3    H257573   6.197   3.886   5.653 -1.4773  1.4751 -0.6077
12028TIP3   OH257574   0.351   4.865  11.390 -0.2541  0.1943 -0.6631
12028TIP3    H157575   0.342   4.770  11.392 -0.5663  0.2368  0.9632
12028TIP3    H257576   0.443   4.881  11.370 -0.4927 -0.3988 -2.4697
12029TIP3   OH257577   1.125   5.290   3.604 -0.8434 -0.0144  0.1205
12029TIP3    H157578   1.123   5.366   3.547 -0.8832  0.5424  0.8486
12029TIP3    H257579   1.219   5.274   3.619 -0.8222  1.3897  1.8803
12030TIP3   OH257580   1.145   3.209  11.037 -0.3723  0.4694  0.7018
12030TIP3    H157581   1.188   3.294  11.030 -2.5765  1.5802 -0.7336
12030TIP3    H257582   1.196   3.151  10.980  0.8762  0.9339  1.3207
12031TIP3   OH257583   4.335   5.721   0.623 -0.2630 -0.2338 -0.5031
12031TIP3    H157584   4.396   5.795   0.632 -2.1006  1.5352 -1.7114
12031TIP3    H257585   4.382   5.658   0.568  0.2811  1.4038 -2.0335
12032TIP3   OH257586   2.512   4.343  11.454  0.0298  0.1161  0.0898
12032TIP3    H157587   2.581   4.350  11.388 -0.1014 -1.2851 -0.2295
12032TIP3    H257588   2.438   4.389  11.415 -0.0420 -0.6846 -0.7513
12033TIP3   OH257589   2.264   6.278  13.884  0.4362 -0.2204  0.8109
12033TIP3    H157590   2.319   6.355  13.868  0.6649 -0.3725  0.8685
12033TIP3    H257591   2.177   6.314  13.901  0.5781  0.0338  0.9914
12034TIP3   OH257592   5.078   4.768   4.954 -0.0451 -0.0269 -0.4858
12034TIP3    H157593   5.084   4.769   5.050 -0.0255 -1.6099 -0.4434
12034TIP3    H257594   5.115   4.852   4.927  1.4965 -0.2411  0.8169
12035TIP3   OH257595   6.634   1.593  13.838  0.0638  0.3745 -0.3177
12035TIP3    H157596   6.632   1.499  13.858  1.9870 -0.0389 -1.7872
12035TIP3    H257597   6.560   1.629  13.888 -0.1748 -1.7479  1.0255
12036TIP3   OH257598   4.204   0.585   3.869 -0.0018  0.0994  0.3825
12036TIP3    H157599   4.147   0.660   3.856  0.4389  0.1831 -1.3386
12036TIP3    H257600   4.148   0.509   3.852  0.1495  0.1507 -0.3966
12037TIP3   OH257601   3.684   0.350  12.510 -0.0727  0.0810  0.2180
12037TIP3    H157602   3.736   0.280  12.472 -1.6239 -0.3002 -1.3051
12037TIP3    H257603   3.595   0.334  12.480 -0.5828  2.3837  0.2718
12038TIP3   OH257604   1.570   6.252  10.638 -0.0949  0.5131  0.1265
12038TIP3    H157605   1.658   6.288  10.648  0.2094  0.4771 -2.0881
12038TIP3    H257606   1.511   6.326  10.654  0.3879  0.9146  0.0555
12039TIP3   OH257607   6.747   0.851   2.937  0.3474 -0.0740 -0.0293
12039TIP3    H157608   6.838   0.837   2.962  0.7365 -1.4760 -1.9729
12039TIP3    H257609   6.701   0.773   2.967 -0.9693  1.9195  3.7157
12040TIP3   OH257610   0.858   6.307  13.535 -0.6616  0.3158 -0.3919
12040TIP3    H157611   0.949   6.332  13.518 -1.0388  2.3812  0.4015
12040TIP3    H257612   0.812   6.329  13.454 -0.5102 -0.5255 -0.7153
12041TIP3   OH257613   1.010   4.698  16.258 -0.2717 -0.6215 -0.5959
12041TIP3    H157614   1.082   4.705  16.320 -0.4286  0.1022 -0.4915
12041TIP3    H257615   1.045   4.731  16.175 -0.7217  0.5213 -0.3436
12042TIP3   OH257616   1.596   6.483   2.491  0.4411 -0.1282 -0.3536
12042TIP3    H157617   1.645   6.416   2.443  1.6206  0.7577 -0.4411
12042TIP3    H257618   1.537   6.522   2.427  0.9542  0.0462 -0.7244
12043TIP3   OH257619   6.350   0.817  15.121 -0.4077  0.1245  0.2340
12043TIP3    H157620   6.391   0.902  15.105 -2.3692  0.8828 -1.0267
12043TIP3    H257621   6.257   0.836  15.130 -0.7703 -1.7766  1.0646
12044TIP3   OH257622   2.247   6.848  12.864 -0.6273  0.2549 -0.0099
12044TIP3    H157623   2.234   6.936  12.828 -0.3921 -0.1292 -1.0691
12044TIP3    H257624   2.278   6.864  12.954 -2.5617  1.2170  0.5419
12045TIP3   OH257625   1.646   2.412  12.942  0.6690 -0.0907  0.2925
12045TIP3    H157626   1.648   2.490  12.997  0.6503  0.1513 -0.0462
12045TIP3    H257627   1.592   2.350  12.990 -0.5509  0.6229 -0.1078
12046TIP3   OH257628   2.433   2.155  15.791 -0.2361 -0.2544 -0.1840
12046TIP3    H157629   2.447   2.192  15.704 -1.9951 -0.1698 -0.4718
12046TIP3    H257630   2.377   2.078  15.776 -2.1081  0.7988  0.9857
12047TIP3   OH257631   6.612   0.709  15.585 -0.2806  0.9148 -0.2452
12047TIP3    H157632   6.598   0.742  15.496 -0.4890  1.5323  0.0113
12047TIP3    H257633   6.685   0.761  15.618  1.3228 -0.8610 -0.8440
12048TIP3   OH257634   1.022   2.235  11.505 -0.9947 -0.1513 -0.0897
12048TIP3    H157635   1.077   2.165  11.540 -0.4775  0.6503  0.7697
12048TIP3    H257636   1.084   2.301  11.475 -1.4789  0.0634 -0.6369
12049TIP3   OH257637   3.465   6.013   1.737  0.5346 -0.6664 -0.1734
12049TIP3    H157638   3.500   5.958   1.667  1.6849 -0.5279  0.2690
12049TIP3    H257639   3.536   6.073   1.758 -0.7107  1.1004 -0.7116
12050TIP3   OH257640   4.564   6.838   0.707  0.2048 -0.1710  0.4148
12050TIP3    H157641   4.510   6.898   0.655  3.7943  2.6014 -0.5393
12050TIP3    H257642   4.565   6.876   0.795 -0.8050 -1.3037  0.9524
12051TIP3   OH257643   0.276   4.878  13.708  0.1763  0.2798 -0.0356
12051TIP3    H157644   0.297   4.808  13.645 -0.7188  0.7065 -0.8411
12051TIP3    H257645   0.314   4.849  13.790 -3.2199 -3.0498  0.6551
12052TIP3   OH257646   0.528   4.278   0.531 -0.4395  0.0254  0.1996
12052TIP3    H157647   0.610   4.325   0.518 -1.1023  1.3419  0.6789
12052TIP3    H257648   0.462   4.330   0.486 -1.7960  1.5745  3.6143
12053TIP3   OH257649   4.342   0.607   5.921 -0.1725 -0.1160 -0.2268
12053TIP3    H157650   4.325   0.674   5.988 -0.7776 -0.6879  0.2129
12053TIP3    H257651   4.282   0.536   5.943  0.8315 -1.0315 -0.3658
12054TIP3   OH257652   1.336   3.413  11.369  0.1830  0.3402  0.0654
12054TIP3    H157653   1.324   3.323  11.397  1.5317 -0.4655 -1.7387
12054TIP3    H257654   1.249   3.441  11.340 -0.4749  0.0305  1.6404
12055TIP3   OH257655   1.403   2.965  12.088 -0.0921  0.0708 -0.1204
12055TIP3    H157656   1.333   3.020  12.125  0.4366  0.7269 -0.0630
12055TIP3    H257657   1.365   2.929  12.008 -0.5750  0.2428  0.0248
12056TIP3   OH257658   5.018   5.368  13.206  0.2736 -0.1055  0.2707
12056TIP3    H157659   4.966   5.399  13.281  0.6760  1.7621 -0.1740
12056TIP3    H257660   4.973   5.405  13.130  1.5945  0.6287 -0.1872
12057TIP3   OH257661   0.861   5.949  17.065 -0.1038  0.9817  0.0076
12057TIP3    H157662   0.824   5.867  17.099  1.1722  0.3049 -0.1734
12057TIP3    H257663   0.943   5.923  17.024  0.4192  2.3927  0.1049
12058TIP3   OH257664   1.161   1.480   2.218 -0.3755 -0.7227 -0.7097
12058TIP3    H157665   1.125   1.408   2.269  1.2848 -0.8475  0.3760
12058TIP3    H257666   1.228   1.518   2.275  1.1248 -0.4514 -2.5814
12059TIP3   OH257667   6.625   5.078   1.658 -0.1189 -0.1675 -0.1012
12059TIP3    H157668   6.720   5.087   1.646 -0.0642 -0.9162 -0.2633
12059TIP3    H257669   6.602   5.152   1.716  0.5999 -0.1251  0.1534
12060TIP3   OH257670   5.668   0.977  16.644  0.6480  0.0858  0.3937
12060TIP3    H157671   5.693   0.888  16.621 -1.1010 -0.7435  1.4475
12060TIP3    H257672   5.750   1.020  16.667  1.4066 -1.6965  1.2271
12061TIP3   OH257673   2.148   4.898   1.891 -0.4884 -0.4041  0.0116
12061TIP3    H157674   2.118   4.970   1.836 -0.7435 -0.7117 -0.2536
12061TIP3    H257675   2.242   4.912   1.899 -0.6323  0.3471  0.5307
12062TIP3   OH257676   2.593   3.532   5.722  0.5755 -0.5675 -0.2053
12062TIP3    H157677   2.569   3.481   5.644 -1.1003 -0.3519  0.1227
12062TIP3    H257678   2.511   3.539   5.772  1.8876 -1.8891  2.2931
12063TIP3   OH257679   5.446   2.134  13.503  0.2205  0.5025  0.0612
12063TIP3    H157680   5.424   2.139  13.410  0.1736  0.8593  0.0893
12063TIP3    H257681   5.485   2.219  13.523  3.0214 -0.5821 -0.3297
12064TIP3   OH257682   1.538   4.770  15.102 -0.2932 -0.5691  0.4570
12064TIP3    H157683   1.498   4.783  15.188 -0.9579 -1.3644  0.2789
12064TIP3    H257684   1.483   4.820  15.042 -0.8146 -1.3457  0.2685
12065TIP3   OH257685   5.537   3.375  11.593  0.2794 -0.0037  0.0169
12065TIP3    H157686   5.487   3.416  11.523 -0.1505 -1.0629 -0.3249
12065TIP3    H257687   5.585   3.304  11.550 -0.0818 -0.7395  0.8050
12066TIP3   OH257688   1.827   4.336   5.922  0.3197  0.8326 -0.6238
12066TIP3    H157689   1.772   4.414   5.921  0.1950  0.7695  0.3360
12066TIP3    H257690   1.770   4.265   5.894 -0.0834  0.7836  0.2749
12067TIP3   OH257691   0.998   2.990   0.101  0.2148  0.3593 -0.5593
12067TIP3    H157692   1.083   3.005   0.142 -0.4703 -0.3205  1.1997
12067TIP3    H257693   1.018   2.948   0.017  1.6985  2.4341 -1.3379
12068TIP3   OH257694   3.874   1.792  15.948  0.2140  0.3512 -0.0856
12068TIP3    H157695   3.913   1.722  16.000 -2.9562 -2.3645 -1.0095
12068TIP3    H257696   3.935   1.806  15.876  2.2921  0.6816  1.6480
12069TIP3   OH257697   6.496   2.472   1.591 -0.8972  0.7655 -0.1386
12069TIP3    H157698   6.519   2.381   1.606  2.0283  1.4148  0.0001
12069TIP3    H257699   6.417   2.469   1.537 -0.6112 -1.8492 -0.5326
12070TIP3   OH257700   3.678   3.102   2.169 -0.6053 -0.2233 -0.2134
12070TIP3    H157701   3.609   3.165   2.189  0.2076  0.3124  1.0740
12070TIP3    H257702   3.740   3.111   2.241  0.7013 -0.8510 -1.2081
12071TIP3   OH257703   2.475   3.409  14.349  0.4779  1.1167  0.2266
12071TIP3    H157704   2.487   3.359  14.268  2.6121  2.2624 -0.2457
12071TIP3    H257705   2.443   3.345  14.412 -0.7581  0.0863 -1.3693
12072TIP3   OH257706   3.726   3.772  10.891 -0.2453 -0.2356  0.0707
12072TIP3    H157707   3.797   3.753  10.830  0.5825 -0.4380  1.0700
12072TIP3    H257708   3.646   3.758  10.840  0.4183 -0.1945 -1.0156
12073TIP3   OH257709   6.827   1.400   5.414  0.5165 -0.9518 -0.0806
12073TIP3    H157710   6.742   1.425   5.452  0.0152 -2.6808 -0.0127
12073TIP3    H257711   6.822   1.431   5.324  0.2751 -0.0630  0.2198
12074TIP3   OH257712   0.021   1.369   1.159  0.0662 -0.0562 -0.4178
12074TIP3    H157713   0.100   1.354   1.210 -0.9538 -0.4702  1.1189
12074TIP3    H257714   0.019   1.297   1.096  0.2739 -0.7714  0.3761
12075TIP3   OH257715   0.776   1.839   5.274  0.1136 -0.3031  0.1773
12075TIP3    H157716   0.770   1.934   5.287  1.8088 -0.2593  0.9176
12075TIP3    H257717   0.712   1.802   5.334 -0.3890  0.3573  0.0575
12076TIP3   OH257718   5.798   5.284  14.018 -0.1536  0.9273  0.1783
12076TIP3    H157719   5.836   5.362  14.058 -1.2661  1.2150  0.7120
12076TIP3    H257720   5.761   5.235  14.092  0.1257  0.1244 -0.2058
12077TIP3   OH257721   1.972   1.328  10.933  0.0305  0.0191  0.3237
12077TIP3    H157722   1.994   1.287  10.850 -1.5879  2.2915 -1.3368
12077TIP3    H257723   1.918   1.404  10.910 -0.0645  1.0541  3.4159
12078TIP3   OH257724   6.498   6.631   1.113  0.2501 -0.0140  0.1482
12078TIP3    H157725   6.422   6.680   1.083  1.2216  1.0943 -0.5862
12078TIP3    H257726   6.549   6.613   1.034  2.0429  1.5687  0.8360
12079TIP3   OH257727   6.657   6.054  13.744  0.2419  0.3636 -0.3350
12079TIP3    H157728   6.684   6.080  13.832 -0.3606  1.2003 -0.3738
12079TIP3    H257729   6.594   5.983  13.758  0.8867 -0.1703 -0.1446
12080TIP3   OH257730   4.780   6.723   4.632  0.1712  0.2819  0.0713
12080TIP3    H157731   4.751   6.766   4.552 -1.3791 -0.7066  0.0562
12080TIP3    H257732   4.856   6.671   4.606  0.0993  0.5090 -0.6105
12081TIP3   OH257733   0.898   0.582  14.675 -0.3368  0.0513 -0.0234
12081TIP3    H157734   0.963   0.591  14.745 -0.7505 -0.4117  0.4264
12081TIP3    H257735   0.950   0.567  14.596  0.1441  0.7793  0.1374
12082TIP3   OH257736   6.816   1.703  16.770 -0.3624  0.0633 -0.3127
12082TIP3    H157737   6.802   1.797  16.758 -0.1336  0.1950  0.4303
12082TIP3    H257738   6.889   1.682  16.711 -0.7465  0.2452 -0.8641
12083TIP3   OH257739   0.410   2.553  13.718 -0.6870  0.7313  0.5306
12083TIP3    H157740   0.341   2.521  13.777 -1.3794 -1.0006 -1.0988
12083TIP3    H257741   0.362   2.589  13.644  0.0703 -1.0921 -0.9301
12084TIP3   OH257742   5.877   1.389   5.063  0.1633  0.2723  0.0974
12084TIP3    H157743   5.797   1.427   5.099  0.3170  0.4949  0.2078
12084TIP3    H257744   5.895   1.442   4.985 -0.0493 -0.0699 -0.1860
12085TIP3   OH257745   1.535   4.920  12.594  0.1528 -0.2154 -0.6396
12085TIP3    H157746   1.506   4.830  12.577 -2.1990  0.3762 -0.1565
12085TIP3    H257747   1.459   4.962  12.634  1.5857  1.6860  0.2434
12086TIP3   OH257748   4.263   3.117   0.373  0.2790 -0.5639 -0.2389
12086TIP3    H157749   4.289   3.208   0.388 -2.1113 -0.0095  1.2622
12086TIP3    H257750   4.295   3.070   0.450 -0.8227 -0.3846  0.3571
12087TIP3   OH257751   1.091   4.319  11.419  0.6649 -0.5879 -0.1514
12087TIP3    H157752   1.130   4.318  11.332  1.8292  1.5518  0.2797
12087TIP3    H257753   1.161   4.291  11.478  0.1734 -1.0983  0.2012
12088TIP3   OH257754   2.026   0.834  14.090  0.0794  0.1441 -0.2924
12088TIP3    H157755   1.972   0.899  14.135 -1.7221  0.0554 -2.1771
12088TIP3    H257756   2.102   0.883  14.058 -0.7086  1.1003 -0.7427
12089TIP3   OH257757   6.481   5.588   2.192  0.2843  0.4693  0.0962
12089TIP3    H157758   6.538   5.657   2.159  0.1072  0.1165 -0.9878
12089TIP3    H257759   6.532   5.507   2.182 -0.3717  0.1604 -0.8288
12090TIP3   OH257760   1.842   2.260   4.395 -0.1509  0.2107  0.6371
12090TIP3    H157761   1.856   2.185   4.338  0.0415  1.7356 -1.4327
12090TIP3    H257762   1.749   2.281   4.385  0.6503  3.1209 -2.7822
12091TIP3   OH257763   0.106   2.878   5.953  0.2568 -0.0037 -0.2144
12091TIP3    H157764   0.172   2.936   5.991  0.3387 -0.4996  0.4146
12091TIP3    H257765   0.066   2.835   6.029 -0.6372  0.1271 -0.6022
12092TIP3   OH257766   5.357   1.473  13.648  0.4046  0.3108  0.5829
12092TIP3    H157767   5.340   1.553  13.697 -1.4950 -0.9694  2.2106
12092TIP3    H257768   5.270   1.444  13.620  0.9841 -1.3858  0.4216
12093TIP3   OH257769   3.212   2.280  15.745  0.0400 -0.2624 -0.1185
12093TIP3    H157770   3.125   2.246  15.764  0.4912 -0.7858  1.0904
12093TIP3    H257771   3.269   2.238  15.809  0.9276  1.2929  0.1664
12094TIP3   OH257772   0.529   5.909  12.019  0.3559 -0.2957  0.5382
12094TIP3    H157773   0.558   5.818  12.023  1.6830  0.0942  0.2706
12094TIP3    H257774   0.511   5.924  11.926  0.5065 -0.1818  0.5266
12095TIP3   OH257775   4.901   4.910  15.416  0.0427 -0.3544 -0.2770
12095TIP3    H157776   4.958   4.973  15.371 -0.5733 -1.2534 -2.4091
12095TIP3    H257777   4.930   4.914  15.508  3.0652 -0.2447 -1.1147
12096TIP3   OH257778   5.992   1.637  11.197  0.2298  0.3794 -0.8124
12096TIP3    H157779   5.954   1.626  11.109  1.7677 -0.7846 -1.3947
12096TIP3    H257780   5.936   1.702  11.239 -0.5767  0.9627 -2.6411
12097TIP3   OH257781   0.546   3.802  15.310  0.1359 -0.0444  0.5026
12097TIP3    H157782   0.491   3.818  15.387  0.7771 -0.1302  0.9952
12097TIP3    H257783   0.513   3.720  15.273  0.6886 -0.7491  1.5057
12098TIP3   OH257784   1.048   4.724  11.216 -0.1728  0.3222 -0.1192
12098TIP3    H157785   1.112   4.661  11.183 -0.0406  0.3300  0.1209
12098TIP3    H257786   0.995   4.747  11.140 -0.0523  0.1215 -0.2628
12099TIP3   OH257787   6.661   1.815   3.002 -0.0234 -0.0395  0.2204
12099TIP3    H157788   6.714   1.877   2.952 -0.1664 -0.6349 -0.7008
12099TIP3    H257789   6.620   1.868   3.071 -0.7227  1.0389 -0.9841
12100TIP3   OH257790   1.481   5.873  12.384 -0.0894 -0.1324 -0.4246
12100TIP3    H157791   1.457   5.780  12.387 -0.7363  0.0480  0.2569
12100TIP3    H257792   1.514   5.886  12.296 -0.3571 -0.9291 -0.6530
12101TIP3   OH257793   2.467   4.792   3.833 -0.0391 -0.3638  0.2676
12101TIP3    H157794   2.393   4.819   3.778  0.9645 -1.2722 -1.6320
12101TIP3    H257795   2.519   4.871   3.842  0.2653 -0.4086 -0.9286
12102TIP3   OH257796   4.446   5.689  16.770 -0.0977 -0.3647  0.5628
12102TIP3    H157797   4.394   5.612  16.747 -1.1188  0.4729 -0.0562
12102TIP3    H257798   4.536   5.658  16.776 -0.3244 -1.3572 -0.9200
12103TIP3   OH257799   6.294   0.627  13.219  0.0735 -0.6072 -0.3791
12103TIP3    H157800   6.268   0.640  13.128  1.3390 -0.7673 -0.7967
12103TIP3    H257801   6.215   0.643  13.270 -0.2952  0.9723 -1.3926
12104TIP3   OH257802   0.821   0.685   1.235  0.3597 -0.1147  0.3483
12104TIP3    H157803   0.737   0.721   1.264  1.4153  0.6018  2.7308
12104TIP3    H257804   0.878   0.761   1.227  1.3837 -0.7944  0.9747
12105TIP3   OH257805   6.000   0.266  13.878  0.2952 -0.3107  0.4441
12105TIP3    H157806   6.048   0.286  13.798 -1.6004 -0.2519 -0.7413
12105TIP3    H257807   5.967   0.351  13.909  1.7832 -0.2031  1.8463
12106TIP3   OH257808   6.352   1.796  15.652 -0.2853 -0.1658 -0.3788
12106TIP3    H157809   6.371   1.859  15.721  0.1156 -0.0798 -0.5654
12106TIP3    H257810   6.292   1.733  15.692  0.0062 -0.1564  0.0699
12107TIP3   OH257811   6.819   5.076   2.775 -0.5916 -0.2835 -0.1005
12107TIP3    H157812   6.844   5.092   2.684 -1.3856  0.5113 -0.1901
12107TIP3    H257813   6.796   4.983   2.777  2.1348 -1.0364 -0.0418
12108TIP3   OH257814   3.493   1.391  10.597  0.2725 -0.8560  0.1078
12108TIP3    H157815   3.468   1.312  10.645 -1.7762  0.0725  0.6854
12108TIP3    H257816   3.420   1.405  10.537  0.4780  0.7565  0.2136
12109TIP3   OH257817   2.299   6.288   0.402  0.1764  0.1827 -0.4037
12109TIP3    H157818   2.361   6.329   0.342  2.0020 -2.0373 -0.1625
12109TIP3    H257819   2.238   6.241   0.344 -0.3072  1.0280 -0.5941
12110TIP3   OH257820   5.619   3.015   1.221  0.3933  0.7364 -0.8239
12110TIP3    H157821   5.592   3.103   1.195  1.3323  1.3716  0.2742
12110TIP3    H257822   5.708   3.006   1.186 -0.1284 -0.2518 -1.9618
12111TIP3   OH257823   3.740   1.602   2.433 -0.4408 -0.2193  0.1377
12111TIP3    H157824   3.650   1.629   2.417 -0.9860 -2.9612 -2.3738
12111TIP3    H257825   3.734   1.535   2.501 -0.7395 -2.1181 -1.6571
12112TIP3   OH257826   3.840   3.371  16.719  0.1996 -0.2138  0.7257
12112TIP3    H157827   3.767   3.408  16.670  0.6849  0.1296  0.2498
12112TIP3    H257828   3.882   3.310  16.658  0.7642  0.1640  0.7286
12113TIP3   OH257829   1.696   4.715  13.176 -0.0452  0.0105  0.0969
12113TIP3    H157830   1.781   4.730  13.217 -0.2518  1.0814  0.1612
12113TIP3    H257831   1.679   4.794  13.125 -1.5779  0.3984  1.1119
12114TIP3   OH257832   1.927   3.689   1.480 -0.1872 -0.0077  0.0962
12114TIP3    H157833   1.841   3.686   1.521 -0.4378 -0.9086 -0.4778
12114TIP3    H257834   1.910   3.674   1.387  0.6494 -0.9706  0.0786
12115TIP3   OH257835   1.604   2.634  15.785  0.3718 -0.6826 -0.0919
12115TIP3    H157836   1.612   2.569  15.715  0.7525 -0.2479 -0.4650
12115TIP3    H257837   1.686   2.683  15.780  0.1939 -0.3422  0.3513
12116TIP3   OH257838   6.395   4.841   4.227  0.1528 -0.3911 -0.5869
12116TIP3    H157839   6.470   4.896   4.209 -0.4708  0.1224 -1.6918
12116TIP3    H257840   6.431   4.766   4.275  1.3301 -0.0771 -0.9572
12117TIP3   OH257841   5.132   5.585   1.153 -0.0329  0.9756  0.7109
12117TIP3    H157842   5.117   5.649   1.223 -0.0594  0.2907  1.3451
12117TIP3    H257843   5.057   5.595   1.095 -0.4572  0.9651  1.2442
12118TIP3   OH257844   0.259   1.556   2.993  0.2745  1.1792 -0.3934
12118TIP3    H157845   0.202   1.482   2.975  0.2451  0.7264  1.3676
12118TIP3    H257846   0.346   1.518   3.002  0.2183  1.2981  0.7921
12119TIP3   OH257847   6.437   4.836   3.252  0.0036 -0.4856  0.3336
12119TIP3    H157848   6.532   4.836   3.242  0.0899  1.3844  0.7993
12119TIP3    H257849   6.412   4.743   3.249  1.6682 -0.9204 -1.1585
12120TIP3   OH257850   6.396   5.689  10.682  0.6089  0.0604  0.0549
12120TIP3    H157851   6.342   5.610  10.680  1.3055 -0.4225 -1.3975
12120TIP3    H257852   6.378   5.732  10.598  0.1718  1.5246  0.8495
12121TIP3   OH257853   3.588   1.113  15.115  0.1392 -0.3307  0.1222
12121TIP3    H157854   3.502   1.154  15.111 -0.7664 -2.1777 -1.3757
12121TIP3    H257855   3.649   1.180  15.084 -0.9341  0.5910 -0.0288
12122TIP3   OH257856   5.807   0.019   5.115 -0.2891  0.1255 -0.6995
12122TIP3    H157857   5.859   0.099   5.126 -2.0794  1.4907 -1.7758
12122TIP3    H257858   5.837  -0.038   5.186  0.5462  2.0092  0.5386
12123TIP3   OH257859   6.617   0.019  12.644  0.4401 -0.0245  0.0951
12123TIP3    H157860   6.622   0.028  12.740  0.3889 -1.9422  0.3172
12123TIP3    H257861   6.699  -0.023  12.620 -0.7382 -2.2768 -0.2892
12124TIP3   OH257862   1.014   0.924   0.960 -0.4322 -0.7278 -0.2648
12124TIP3    H157863   0.933   0.935   0.911 -1.0394 -2.5723  0.2432
12124TIP3    H257864   1.066   0.864   0.907 -0.1536 -0.9648  0.2624
12125TIP3   OH257865   6.213   6.037  16.457 -0.0258 -0.0251 -0.1020
12125TIP3    H157866   6.285   5.981  16.427 -0.6700 -0.9901  0.0892
12125TIP3    H257867   6.215   6.112  16.397  1.3605  0.1663  0.1350
12126TIP3   OH257868   5.175   1.236   0.072 -0.0343  0.1158 -0.2619
12126TIP3    H157869   5.175   1.201  -0.017  0.9848 -0.9664  0.1420
12126TIP3    H257870   5.255   1.289   0.077 -0.2457  0.4239 -0.0736
12127TIP3   OH257871   0.008   6.798   0.022 -0.6282  0.3682  0.0051
12127TIP3    H157872   0.101   6.821   0.017  0.1131 -2.2443 -0.0146
12127TIP3    H257873  -0.028   6.825  -0.063  0.2682  0.8448 -0.2360
12128TIP3   OH257874   4.409   1.681  14.637 -0.0586 -0.4367 -0.1424
12128TIP3    H157875   4.442   1.620  14.703 -1.5408  1.2348  2.2774
12128TIP3    H257876   4.340   1.633  14.592 -0.6330 -0.8686  1.1529
12129TIP3   OH257877   5.565   5.852  14.209 -0.6805 -0.0175 -0.6095
12129TIP3    H157878   5.521   5.768  14.206 -1.5314  0.3740  0.4400
12129TIP3    H257879   5.649   5.837  14.165 -1.7785 -0.8000 -2.5430
12130TIP3   OH257880   1.832   2.223   1.368  0.5495 -0.3478 -0.0957
12130TIP3    H157881   1.833   2.217   1.272  1.8835  1.0092 -0.2079
12130TIP3    H257882   1.829   2.132   1.397 -2.4607 -0.7799 -1.3661
12131TIP3   OH257883   2.244   3.048   0.413 -0.4708  0.0953  0.0129
12131TIP3    H157884   2.299   3.124   0.395 -0.8827  1.0487  2.3926
12131TIP3    H257885   2.304   2.983   0.450  0.0306 -1.1495 -2.7275
12132TIP3   OH257886   6.247   2.382   4.661  0.2255  0.1529 -0.0785
12132TIP3    H157887   6.219   2.454   4.718  1.0095 -0.6979  1.4530
12132TIP3    H257888   6.175   2.370   4.600 -1.3569  0.1048  1.7220
12133TIP3   OH257889   2.921   6.556  13.774 -0.3048 -0.1704  0.5346
12133TIP3    H157890   3.011   6.565  13.742 -1.5745  0.2574 -3.4009
12133TIP3    H257891   2.896   6.466  13.751 -1.4633  0.3236 -0.2014
12134TIP3   OH257892   4.126   6.586   4.364  0.1100 -0.6375 -0.2253
12134TIP3    H157893   4.136   6.620   4.274 -0.7942  3.6627  1.0389
12134TIP3    H257894   4.216   6.580   4.397  0.4402 -2.0246 -1.2836
12135TIP3   OH257895   5.587   3.292  12.998 -0.2645  0.1520 -0.2242
12135TIP3    H157896   5.647   3.345  13.051  0.8503 -1.0216 -0.2669
12135TIP3    H257897   5.505   3.342  12.999  0.0451  0.7419  1.6421
12136TIP3   OH257898   3.978   0.065  14.183 -0.4329 -0.6402  0.3874
12136TIP3    H157899   4.018   0.001  14.242 -0.2714  0.2459  1.2726
12136TIP3    H257900   3.996   0.031  14.096  4.5348  0.8517  0.5309
12137TIP3   OH257901   6.230   0.166  11.360  0.0251 -0.4209 -0.0940
12137TIP3    H157902   6.182   0.243  11.389  1.3498  0.3013  0.2780
12137TIP3    H257903   6.181   0.092  11.395  0.5828  0.3541  2.5605
12138TIP3   OH257904   5.519   1.762  14.907 -1.1330  0.1109 -0.0592
12138TIP3    H157905   5.533   1.697  14.976 -0.1238 -0.0417 -0.3750
12138TIP3    H257906   5.557   1.721  14.829 -1.2516  0.7350 -0.4491
12139TIP3   OH257907   4.767   3.906   4.251  0.2864  0.0499 -0.1358
12139TIP3    H157908   4.844   3.960   4.272  1.3867 -1.1079 -1.0218
12139TIP3    H257909   4.796   3.852   4.177 -1.2636 -0.7009 -0.2215
12140TIP3   OH257910   2.643   6.596   0.024 -0.2219 -0.7071 -0.1254
12140TIP3    H157911   2.713   6.578   0.087 -0.5230  0.5499  0.5967
12140TIP3    H257912   2.670   6.677  -0.020 -0.2117 -1.3471 -1.3472
12141TIP3   OH257913   1.780   0.210  11.320  0.0162 -0.3651  0.1228
12141TIP3    H157914   1.849   0.190  11.384 -0.2797 -1.9314  0.0033
12141TIP3    H257915   1.822   0.270  11.258  0.8365 -0.1905  0.8196
12142TIP3   OH257916   3.476   4.830   0.846  0.1620 -0.3025 -0.0795
12142TIP3    H157917   3.418   4.830   0.770  0.9517 -0.9983 -0.7201
12142TIP3    H257918   3.545   4.893   0.823 -0.1989  0.3335  0.5617
12143TIP3   OH257919   2.203   2.547  15.130 -0.2805  0.5582 -0.7266
12143TIP3    H157920   2.135   2.568  15.066 -1.5318 -1.6426 -0.2174
12143TIP3    H257921   2.156   2.535  15.213  0.7442 -0.5644 -0.2616
12144TIP3   OH257922   5.606   1.907  11.436 -0.0102 -0.6638 -0.0002
12144TIP3    H157923   5.557   1.978  11.395  0.1527 -0.6615 -0.1966
12144TIP3    H257924   5.574   1.904  11.526  1.4733  1.0852  0.6495
12145TIP3   OH257925   2.578   4.417   1.510 -0.0302  0.4588 -0.1047
12145TIP3    H157926   2.515   4.478   1.549 -0.6931 -0.3813  0.1510
12145TIP3    H257927   2.550   4.331   1.540  1.4403  0.0871  0.2989
12146TIP3   OH257928   1.318   4.368  13.701  0.2052 -0.2606  0.5476
12146TIP3    H157929   1.242   4.390  13.754 -0.7323 -0.1628 -0.7735
12146TIP3    H257930   1.359   4.453  13.681 -0.1147 -0.1901  0.1727
12147TIP3   OH257931   0.377   1.649   3.255 -0.5964  0.2632 -0.1356
12147TIP3    H157932   0.439   1.716   3.227 -0.2484 -0.0631 -0.1544
12147TIP3    H257933   0.360   1.597   3.177 -1.0734  0.4893 -0.1854
12148TIP3   OH257934   1.462   4.522  13.962  0.0106  0.3052 -0.1638
12148TIP3    H157935   1.505   4.473  13.892 -1.3035  1.0088 -1.5284
12148TIP3    H257936   1.523   4.593  13.983  0.4328  0.0760 -0.5966
12149TIP3   OH257937   6.011   5.350   6.184  0.2108  0.4466  0.0876
12149TIP3    H157938   5.983   5.410   6.253 -0.0759 -0.7744  1.0751
12149TIP3    H257939   6.034   5.269   6.231 -0.9953 -0.7608 -1.3274
12150TIP3   OH257940   5.177   0.793   5.923  0.0632  0.3572 -0.2913
12150TIP3    H157941   5.212   0.876   5.957  1.3802 -0.2278 -0.1308
12150TIP3    H257942   5.200   0.794   5.830 -0.1447  0.2825 -0.3432
12151TIP3   OH257943   5.148   6.189  10.828 -0.5480 -0.4869 -0.2018
12151TIP3    H157944   5.200   6.268  10.845  0.0976 -1.3209  1.9858
12151TIP3    H257945   5.212   6.119  10.818 -1.1354 -1.3754  1.6992
12152TIP3   OH257946   4.716   5.685  15.217 -0.6748 -0.3870 -0.3760
12152TIP3    H157947   4.765   5.755  15.260 -0.4035  0.1867 -1.5839
12152TIP3    H257948   4.753   5.605  15.254  0.8276  0.0471 -0.8619
12153TIP3   OH257949   3.599   1.291   2.547 -0.4598 -0.0482 -0.2518
12153TIP3    H157950   3.674   1.233   2.534 -1.5060 -0.7933 -3.9174
12153TIP3    H257951   3.599   1.309   2.641  3.1218 -1.5607  0.1850
12154TIP3   OH257952   3.473   4.058  15.466  0.0790 -0.0108 -0.2409
12154TIP3    H157953   3.457   4.152  15.475 -1.3095 -0.4052  2.4432
12154TIP3    H257954   3.393   4.024  15.425  0.3297 -0.1004 -0.6565
12155TIP3   OH257955   1.905   3.910  14.455 -0.0479  0.0526  0.3504
12155TIP3    H157956   1.894   3.858  14.375 -1.5922 -0.6747  1.0093
12155TIP3    H257957   1.999   3.909  14.471  0.0585 -1.6435 -0.2496
12156TIP3   OH257958   6.249   6.392   5.908 -0.2520 -0.2677  0.6207
12156TIP3    H157959   6.164   6.361   5.940 -1.1289  1.7631  0.4407
12156TIP3    H257960   6.278   6.454   5.976  0.9084 -0.6668  0.4972
12157TIP3   OH257961   4.811   6.325   2.613  0.2556  0.2298 -0.3025
12157TIP3    H157962   4.831   6.304   2.704  0.1715  1.5763  0.0397
12157TIP3    H257963   4.864   6.263   2.562  1.8153  0.7568  0.6355
12158TIP3   OH257964   4.248   0.340  15.887 -0.0354  0.1383 -0.3073
12158TIP3    H157965   4.324   0.334  15.830  0.6111 -1.8070  0.6585
12158TIP3    H257966   4.275   0.398  15.957  0.1994  0.2614 -0.4979
12159TIP3   OH257967   0.263   2.593   1.439  0.5035  0.3233  0.4571
12159TIP3    H157968   0.239   2.569   1.349 -1.1213 -0.4152  1.0583
12159TIP3    H257969   0.321   2.523   1.468  0.7749  0.3978  0.1130
12160TIP3   OH257970   1.743   1.215  14.776  0.0964 -0.1670  0.0107
12160TIP3    H157971   1.775   1.125  14.766 -1.6430 -0.7333 -0.9382
12160TIP3    H257972   1.660   1.206  14.822 -0.4346  0.8735 -0.6918
12161TIP3   OH257973   6.215   2.763   3.895 -0.1748  0.2432 -0.3537
12161TIP3    H157974   6.287   2.774   3.958  0.1456  0.2917 -0.7257
12161TIP3    H257975   6.203   2.850   3.857  0.9625 -0.1792 -1.7876
12162TIP3   OH257976   0.944   6.828  15.332  0.1055 -0.0390 -0.0679
12162TIP3    H157977   0.851   6.802  15.335  0.2253 -0.5353 -0.4574
12162TIP3    H257978   0.978   6.802  15.418 -0.2198  0.5577  0.2461
12163TIP3   OH257979   2.691   1.814   1.851 -0.4995  0.1533  0.1841
12163TIP3    H157980   2.740   1.873   1.909 -0.4878 -0.3400  0.6809
12163TIP3    H257981   2.735   1.821   1.767 -0.8865  1.3534  0.0505
12164TIP3   OH257982   6.403   3.122  11.012  0.1903  0.2369  0.7705
12164TIP3    H157983   6.387   3.033  11.044  2.7044  0.1101  1.9448
12164TIP3    H257984   6.342   3.133  10.940  0.3462 -2.7451  0.0560
12165TIP3   OH257985   1.005   3.321  14.588 -0.3523 -0.5360 -0.0744
12165TIP3    H157986   1.031   3.324  14.496 -1.2061 -1.3980 -0.3618
12165TIP3    H257987   0.939   3.251  14.592 -2.0753  1.0427  0.7327
12166TIP3   OH257988   2.502   0.640  15.358  0.3996  0.5576 -0.0667
12166TIP3    H157989   2.533   0.578  15.423 -0.3466 -0.6142 -0.7758
12166TIP3    H257990   2.536   0.607  15.275  1.3410  2.0243 -0.3036
12167TIP3   OH257991   0.719   1.117   0.430  0.2250  0.0809  0.2816
12167TIP3    H157992   0.777   1.134   0.356  2.6522 -0.9602  1.8180
12167TIP3    H257993   0.707   1.022   0.430 -1.2111  0.2428  0.2190
12168TIP3   OH257994   5.772   4.419  10.904  0.2742  0.1025 -0.1260
12168TIP3    H157995   5.843   4.455  10.851 -1.3936  3.0258 -0.6100
12168TIP3    H257996   5.711   4.381  10.841  0.4931 -0.7183  0.1398
12169TIP3   OH257997   1.673   1.527  13.784 -0.0278 -0.0725 -0.5128
12169TIP3    H157998   1.611   1.501  13.852  0.4612  1.5001  0.5971
12169TIP3    H257999   1.722   1.447  13.764 -0.7961 -0.7737  0.3189
12170TIP3   OH258000   2.776   6.802   2.795  0.0152 -0.0484  0.1944
12170TIP3    H158001   2.798   6.811   2.703  0.1976 -1.1753  0.1108
12170TIP3    H258002   2.803   6.885   2.834  2.7996 -0.6357 -0.2370
12171TIP3   OH258003   2.551   0.668  14.846  0.3126  0.2796 -0.5073
12171TIP3    H158004   2.517   0.740  14.792 -0.3427  0.1773 -0.2372
12171TIP3    H258005   2.548   0.591  14.788  3.0034  0.8189 -1.5238
12172TIP3   OH258006   2.544   3.132   2.333  0.5107 -0.0417 -0.3379
12172TIP3    H158007   2.558   3.079   2.411 -0.8632 -0.9937 -0.6957
12172TIP3    H258008   2.579   3.218   2.356  2.0823 -0.8833  0.5286
12173TIP3   OH258009   4.110   0.152   1.257 -0.4714 -0.1518  0.2720
12173TIP3    H158010   4.069   0.118   1.337 -1.7419 -0.6435 -0.5633
12173TIP3    H258011   4.124   0.245   1.276 -0.2307 -0.3786  1.2698
12174TIP3   OH258012   3.206   0.198   4.214  0.2779 -0.0047  0.0207
12174TIP3    H158013   3.285   0.233   4.171  0.8896 -1.5237 -0.1553
12174TIP3    H258014   3.184   0.120   4.163  0.7804 -1.6277  2.1518
12175TIP3   OH258015   3.526   1.962   3.713  0.3119  0.1000 -0.4297
12175TIP3    H158016   3.573   2.003   3.785  1.3970  0.1829 -1.1665
12175TIP3    H258017   3.594   1.937   3.651 -0.4896 -1.0712 -0.8831
12176TIP3   OH258018   3.048   6.228  15.021  0.1702 -0.3904 -0.1794
12176TIP3    H158019   3.013   6.236  15.110 -0.8300  0.7227 -0.6394
12176TIP3    H258020   3.121   6.289  15.018  0.8031 -1.1111  0.1329
12177TIP3   OH258021   3.787   1.151   2.915 -0.2388 -0.1899 -0.7085
12177TIP3    H158022   3.881   1.135   2.908  0.0534  1.0796  0.0017
12177TIP3    H258023   3.758   1.094   2.986  0.3502  0.7301  0.2911
12178TIP3   OH258024   4.227   0.465   6.127  0.1153  0.1436 -0.1112
12178TIP3    H158025   4.314   0.424   6.129 -1.1828 -2.8457 -0.4914
12178TIP3    H258026   4.172   0.408   6.180 -1.8837  1.3610 -0.7870
12179TIP3   OH258027   1.864   4.442  14.181 -0.2770 -0.1217 -0.2563
12179TIP3    H158028   1.844   4.350  14.196  0.4756 -0.2686 -0.1193
12179TIP3    H258029   1.959   4.446  14.180 -0.3026  0.7179  0.1041
12180TIP3   OH258030   4.955   0.191   0.560 -1.1242 -0.0562 -0.0783
12180TIP3    H158031   4.910   0.215   0.479 -3.4550 -1.8631  0.5569
12180TIP3    H258032   5.007   0.114   0.536 -0.3522  0.5243 -0.2643
12181TIP3   OH258033   1.067   0.878   6.170  0.1285  0.2271 -0.4996
12181TIP3    H158034   1.050   0.827   6.249  2.1978  0.7538  0.3643
12181TIP3    H258035   1.131   0.944   6.198  0.2153  1.0130 -2.4181
12182TIP3   OH258036   2.236   1.992   2.166  0.6537 -0.0002 -0.3235
12182TIP3    H158037   2.209   1.922   2.106 -2.6463 -0.7496  1.7347
12182TIP3    H258038   2.331   1.981   2.174  0.6224 -2.5918 -2.0831
12183TIP3   OH258039   6.448   1.229   4.668 -0.2260  0.0698 -0.4353
12183TIP3    H158040   6.450   1.145   4.622  1.1152 -0.1568 -0.0071
12183TIP3    H258041   6.384   1.281   4.620 -0.0466 -0.7168 -1.5730
12184TIP3   OH258042   4.512   5.521  14.135 -0.2267  0.2467  0.4445
12184TIP3    H158043   4.553   5.435  14.136  0.5379  0.5863 -0.4386
12184TIP3    H258044   4.492   5.538  14.043 -0.1521  1.1100  0.5746
12185TIP3   OH258045   4.881   5.477  14.229 -0.2895  0.0863  0.1704
12185TIP3    H158046   4.831   5.404  14.265 -0.8366  1.3546  2.1832
12185TIP3    H258047   4.854   5.482  14.137 -0.2693 -2.1531 -0.0170
12186TIP3   OH258048   5.456   3.286   3.585  0.4608 -0.2411 -0.3562
12186TIP3    H158049   5.459   3.378   3.613  0.4162 -0.6543  1.0770
12186TIP3    H258050   5.524   3.279   3.517  0.0203  0.9873 -0.9451
12187TIP3   OH258051   3.337   4.359  15.240  0.0729  0.1099 -0.0581
12187TIP3    H158052   3.396   4.308  15.186  0.3116  1.4996 -1.1710
12187TIP3    H258053   3.272   4.394  15.179 -2.1338 -1.5762  1.1499
12188TIP3   OH258054   0.843   6.207   5.509 -0.3182  0.5241 -0.2651
12188TIP3    H158055   0.758   6.247   5.522 -1.2136 -0.9597 -1.2748
12188TIP3    H258056   0.838   6.123   5.554  0.3054  0.0511 -1.0414
12189TIP3   OH258057   4.980   0.569  10.850  0.1671  0.3665  0.4575
12189TIP3    H158058   5.017   0.641  10.900  0.6402  1.4410 -1.3361
12189TIP3    H258059   4.935   0.611  10.776  0.6228 -1.1343 -0.7406
12190TIP3   OH258060   4.142   3.701  14.072 -0.7462 -0.7934 -0.3496
12190TIP3    H158061   4.110   3.651  14.147  0.0567 -1.5982 -0.5212
12190TIP3    H258062   4.070   3.700  14.009 -1.0232 -1.0592 -0.0294
12191TIP3   OH258063   0.819   3.926   0.895 -0.0680  0.3908  0.4472
12191TIP3    H158064   0.803   3.906   0.987  0.6556  0.0231  0.4968
12191TIP3    H258065   0.876   4.002   0.897 -0.8942  1.0272  0.2829
12192TIP3   OH258066   3.114   1.497  12.577  0.2975 -0.1520 -1.0192
12192TIP3    H158067   3.195   1.536  12.610  0.3574 -0.9576 -0.1581
12192TIP3    H258068   3.104   1.532  12.488 -1.0699  3.9189  0.5416
12193TIP3   OH258069   3.056   1.874  15.009  0.3879 -0.1590  0.3158
12193TIP3    H158070   3.009   1.926  14.944  1.6049  0.4569 -0.0968
12193TIP3    H258071   3.147   1.903  15.002  0.6785 -0.6400  1.7553
12194TIP3   OH258072   5.033   3.736  12.137 -0.3338  0.3975 -0.4006
12194TIP3    H158073   4.971   3.779  12.079 -0.4854 -0.0222 -0.5519
12194TIP3    H258074   5.064   3.660  12.088 -0.8212 -0.2350  0.2447
12195TIP3   OH258075   6.286   5.002  14.046 -0.1687  0.2543  0.0471
12195TIP3    H158076   6.283   4.952  13.964 -1.6422 -1.0857  0.8691
12195TIP3    H258077   6.233   5.079  14.029  1.6472  1.3306 -1.0483
12196TIP3   OH258078   6.396   4.269  16.737 -0.3470  0.0675 -0.7442
12196TIP3    H158079   6.399   4.228  16.824 -1.1313 -0.2365 -0.8504
12196TIP3    H258080   6.487   4.277  16.711 -0.1427 -0.7496 -0.3097
12197TIP3   OH258081   5.503   0.938  11.567  0.0582 -0.2161 -0.1030
12197TIP3    H158082   5.513   0.997  11.492  3.1290 -0.9573 -0.4175
12197TIP3    H258083   5.546   0.982  11.639 -1.1745 -0.3579  0.7423
12198TIP3   OH258084   6.312   4.396  12.377 -0.3533  0.2771  0.3568
12198TIP3    H158085   6.271   4.365  12.458  1.0421  0.0808  1.0221
12198TIP3    H258086   6.406   4.396  12.396  0.0310  0.0009 -1.3482
12199TIP3   OH258087   1.686   6.366   0.919  0.1005 -0.3469  0.0135
12199TIP3    H158088   1.609   6.313   0.901 -0.2084  0.2410 -0.4431
12199TIP3    H258089   1.760   6.309   0.900 -0.2025 -1.1292  1.0768
12200TIP3   OH258090   2.605   0.034   0.211  0.2104  0.1523  0.2010
12200TIP3    H158091   2.645   0.096   0.271 -0.2822  0.2002  0.4890
12200TIP3    H258092   2.643  -0.050   0.234  1.2991  0.4161 -0.5571
12201TIP3   OH258093   0.111   2.151  12.160  0.1195 -0.2879 -0.1458
12201TIP3    H158094   0.121   2.199  12.242 -0.5035 -1.4378  0.6269
12201TIP3    H258095   0.021   2.119  12.162  0.3215 -0.9334 -0.9499
12202TIP3   OH258096   5.926   0.441   5.856  0.5951  0.4739  0.0639
12202TIP3    H158097   5.981   0.519   5.865 -2.0175  2.4194  0.3009
12202TIP3    H258098   5.867   0.445   5.930  0.4284 -1.8512  0.1290
12203TIP3   OH258099   5.529   1.989   4.150 -0.3905  0.1439  1.0760
12203TIP3    H158100   5.536   2.045   4.073 -0.5969 -0.7555  0.3845
12203TIP3    H258101   5.501   1.904   4.115 -0.8265 -0.1776  2.1848
12204TIP3   OH258102   5.953   5.517   5.285 -0.8486 -0.6821  0.2260
12204TIP3    H158103   6.022   5.567   5.242 -0.1627 -1.9777 -0.2538
12204TIP3    H258104   5.893   5.582   5.319  0.7973  0.5058  0.9697
12205TIP3   OH258105   1.646   5.360  14.675 -0.1018 -0.0015 -0.3200
12205TIP3    H158106   1.666   5.452  14.657 -0.1462 -0.0365 -0.5537
12205TIP3    H258107   1.718   5.330  14.730 -0.6438  0.4659  0.6716
12206TIP3   OH258108   2.360   1.517  10.598 -0.1381 -0.0102  0.1253
12206TIP3    H158109   2.418   1.589  10.572  1.3317 -1.2517 -0.1725
12206TIP3    H258110   2.399   1.439  10.557 -1.2186 -1.1041  1.1045
12207TIP3   OH258111   1.137   0.455  12.991  0.0154  0.3474  0.3475
12207TIP3    H158112   1.215   0.399  12.989  0.1912  0.5981 -1.2586
12207TIP3    H258113   1.160   0.531  12.938 -0.9274  0.9919  0.8248
12208TIP3   OH258114   1.049   4.358   1.235 -0.2129 -0.0494 -0.1952
12208TIP3    H158115   0.964   4.314   1.240  0.2189 -0.8035  1.2480
12208TIP3    H258116   1.098   4.307   1.170  0.0640 -1.4131  1.0077
12209TIP3   OH258117   3.292   6.187   4.201 -0.1722  0.0732  0.4043
12209TIP3    H158118   3.283   6.271   4.155  1.3684  0.5030  0.8242
12209TIP3    H258119   3.304   6.212   4.293  1.4992 -0.5045  0.3806
12210TIP3   OH258120   3.381   1.820  16.225  0.1128  0.3037 -0.6794
12210TIP3    H158121   3.459   1.875  16.232  0.7362 -0.6416  0.1107
12210TIP3    H258122   3.311   1.881  16.203  0.9653  1.2535 -0.8703
12211TIP3   OH258123   0.253   0.336  16.978  0.1751  0.5238  0.1820
12211TIP3    H158124   0.337   0.364  17.014 -0.5134  1.8038  0.8565
12211TIP3    H258125   0.262   0.349  16.884  0.9733 -0.0502  0.1647
12212TIP3   OH258126   2.861   1.051  11.614 -0.4358 -0.5174  0.1018
12212TIP3    H158127   2.888   0.990  11.546 -1.1276  0.4031 -1.0341
12212TIP3    H258128   2.780   1.014  11.649 -0.7011 -0.3953 -0.3832
12213TIP3   OH258129   2.368   3.246   6.007  0.3629  0.2280  0.0805
12213TIP3    H158130   2.361   3.170   6.063  0.0471  0.5846  0.5295
12213TIP3    H258131   2.309   3.311   6.046  0.4207  0.6063 -0.4474
12214TIP3   OH258132   1.202   4.321  15.870  0.1788 -0.4210 -0.3156
12214TIP3    H158133   1.123   4.270  15.852 -0.9173  0.9008  0.5618
12214TIP3    H258134   1.238   4.281  15.950 -1.2230  0.7079  0.9498
12215TIP3   OH258135   6.456   6.588  14.604 -0.0824 -0.3288 -0.1807
12215TIP3    H158136   6.423   6.500  14.623  0.3801 -0.1404  1.7281
12215TIP3    H258137   6.551   6.577  14.598 -0.0757 -0.0622 -0.6242
12216TIP3   OH258138   1.073   3.835   2.202 -0.3313  0.1382  0.5968
12216TIP3    H158139   1.014   3.898   2.245 -0.4260  0.1314  0.4753
12216TIP3    H258140   1.159   3.853   2.241 -0.4693 -0.0562  0.9967
12217TIP3   OH258141   1.539   6.394  17.056 -0.0230 -0.2926  0.0457
12217TIP3    H158142   1.507   6.332  16.990 -0.3399  0.6144 -0.6641
12217TIP3    H258143   1.461   6.443  17.082  0.5612  1.1823 -0.8893
12218TIP3   OH258144   2.895   6.129  14.090 -0.1275 -0.1559  0.0217
12218TIP3    H158145   2.926   6.216  14.116  0.2762 -0.7837  1.7800
12218TIP3    H258146   2.945   6.068  14.144 -1.0387 -1.4470 -0.5298
12219TIP3   OH258147   5.246   0.953   2.743 -0.1696 -0.0294  0.0575
12219TIP3    H158148   5.249   0.963   2.647  0.8474 -2.5268 -0.2402
12219TIP3    H258149   5.313   1.013   2.775 -0.3744  0.6875 -0.8092
12220TIP3   OH258150   6.043   1.010   2.189 -0.5204 -0.1755 -0.2096
12220TIP3    H158151   5.989   1.028   2.112  0.0386 -0.4276 -0.6686
12220TIP3    H258152   6.120   1.066   2.178  0.1893 -1.1787 -0.5250
12221TIP3   OH258153   0.026   6.375  14.881 -0.2096 -0.4352  0.4100
12221TIP3    H158154   0.036   6.390  14.975  2.5435  1.7295 -0.0932
12221TIP3    H258155  -0.058   6.417  14.859 -0.6837 -0.6004  1.7916
12222TIP3   OH258156   3.557   1.996   3.277 -0.1410 -0.4238  0.3425
12222TIP3    H158157   3.548   1.936   3.204 -1.0513 -3.1366  2.4994
12222TIP3    H258158   3.468   2.004   3.313 -0.1615  2.7042 -0.1111
12223TIP3   OH258159   0.974   6.337   3.098 -0.2341 -0.0693  0.1677
12223TIP3    H158160   0.955   6.427   3.075  0.3026 -0.8262 -4.0050
12223TIP3    H258161   1.060   6.319   3.059  0.8394 -1.7939  2.9759
12224TIP3   OH258162   4.182   1.341  12.718 -0.1184  0.6488 -0.1010
12224TIP3    H158163   4.233   1.264  12.691 -0.3433  1.2741 -2.4748
12224TIP3    H258164   4.243   1.391  12.772  0.9684  0.1676 -0.8374
12225TIP3   OH258165   3.679   2.585   5.866 -0.2461 -0.0166  0.3347
12225TIP3    H158166   3.628   2.602   5.945  0.9669  0.3317  1.0702
12225TIP3    H258167   3.667   2.492   5.849 -0.6952 -0.0467  0.8071
12226TIP3   OH258168   6.383   4.048  16.198  0.4330  0.3600  0.2560
12226TIP3    H158169   6.347   4.020  16.282 -0.3174  0.6963  0.0619
12226TIP3    H258170   6.402   3.967  16.151  2.7400  0.1148  1.4899
12227TIP3   OH258171   1.254   5.142  15.460  0.3956  0.0602 -0.1158
12227TIP3    H158172   1.349   5.129  15.456  0.4998  0.2805  1.1826
12227TIP3    H258173   1.225   5.133  15.370  1.4519 -1.6026 -0.3468
12228TIP3   OH258174   0.318   5.658   0.148 -0.4006 -0.0863  0.6848
12228TIP3    H158175   0.308   5.563   0.151 -1.9824  0.0632  2.9944
12228TIP3    H258176   0.382   5.678   0.217  0.6943  0.4923 -0.4535
12229TIP3   OH258177   3.873   3.909   0.434 -0.1381 -0.0424  0.0497
12229TIP3    H158178   3.820   3.962   0.374  3.6945  2.4865 -1.4737
12229TIP3    H258179   3.885   3.826   0.388  0.5972  0.9101 -1.5599
12230TIP3   OH258180   2.323   3.775  11.770 -0.4296  0.2567  0.3436
12230TIP3    H158181   2.262   3.765  11.696 -0.2466 -0.3028  0.2610
12230TIP3    H258182   2.331   3.869  11.782 -0.1532  0.3687 -0.6192
12231TIP3   OH258183   6.067   1.417   4.485  0.1756  0.5169 -0.1078
12231TIP3    H158184   6.134   1.484   4.473  1.4535 -1.0861 -2.9730
12231TIP3    H258185   5.984   1.464   4.477  0.9823  2.0102 -0.1072
12232TIP3   OH258186   5.877   4.880  16.551  0.5871  0.7853  0.0498
12232TIP3    H158187   5.804   4.914  16.603  0.9884  1.8065 -0.0272
12232TIP3    H258188   5.883   4.787  16.575 -0.4411  0.7946  0.3919
12233TIP3   OH258189   1.627   1.964   4.928 -0.5147 -0.2912  0.1542
12233TIP3    H158190   1.566   2.009   4.987 -0.8137 -0.1192 -0.2809
12233TIP3    H258191   1.709   2.013   4.936 -0.1797 -1.0167  1.3654
12234TIP3   OH258192   5.527   4.361  16.218 -0.0183  0.0111  0.1307
12234TIP3    H158193   5.514   4.278  16.264  0.7890 -0.3531 -0.2812
12234TIP3    H258194   5.620   4.381  16.230  0.6995 -1.0110 -2.7901
12235TIP3   OH258195   5.154   0.676  16.615 -0.9342 -0.3034  0.8823
12235TIP3    H158196   5.241   0.682  16.654 -0.1423  1.0861 -0.9316
12235TIP3    H258197   5.151   0.589  16.574  0.8613  0.7192 -1.6474
12236TIP3   OH258198   0.939   5.716  14.515 -0.0332  0.4268  0.2357
12236TIP3    H158199   0.875   5.754  14.454  0.2715  0.9556  0.2377
12236TIP3    H258200   0.926   5.764  14.597 -0.7194 -0.5591  0.7236
12237TIP3   OH258201   3.293   3.546  16.552  1.0317 -0.3151 -0.3548
12237TIP3    H158202   3.340   3.619  16.593 -0.3361  1.0712 -1.1739
12237TIP3    H258203   3.311   3.554  16.459 -0.4289 -0.0384 -0.6331
12238TIP3   OH258204   6.503   3.535   5.278 -0.3568  0.4150 -0.5025
12238TIP3    H158205   6.435   3.467   5.278 -0.8025  0.8499 -1.0977
12238TIP3    H258206   6.535   3.537   5.368 -0.2092 -0.7106 -0.5154
12239TIP3   OH258207   1.575   4.528  15.690  0.1220  0.1572  0.4893
12239TIP3    H158208   1.543   4.614  15.716 -0.1336  0.0874  0.4078
12239TIP3    H258209   1.652   4.512  15.745  0.9158  0.9774 -0.3434
12240TIP3   OH258210   2.600   5.558  11.070 -0.4541 -0.0229  0.2589
12240TIP3    H158211   2.573   5.589  10.983 -1.3764  1.2172  0.9424
12240TIP3    H258212   2.655   5.629  11.105  0.0119 -0.5612  0.6510
12241TIP3   OH258213   0.511   6.650  14.461 -0.4442 -0.6295 -0.0710
12241TIP3    H158214   0.454   6.716  14.501 -1.1131 -1.6529  0.7237
12241TIP3    H258215   0.582   6.701  14.421 -0.9148  0.5641  0.5433
12242TIP3   OH258216   6.503   1.718   4.866  0.1847 -0.2784  0.3253
12242TIP3    H158217   6.543   1.631   4.866 -0.1110 -0.4219  1.0231
12242TIP3    H258218   6.479   1.733   4.957  1.3049  1.0506  0.4245
12243TIP3   OH258219   6.802   3.151   4.422 -0.2547 -0.0950 -0.5840
12243TIP3    H158220   6.765   3.073   4.380  1.8511 -1.6532  0.2701
12243TIP3    H258221   6.856   3.191   4.354 -0.2923 -0.1459 -0.6437
12244TIP3   OH258222   2.165   3.965  14.585 -0.1906 -0.4812  0.8064
12244TIP3    H158223   2.227   3.956  14.512  2.4535  2.3476  2.4727
12244TIP3    H258224   2.121   4.049  14.568 -0.6808 -0.5515  1.6719
12245TIP3   OH258225   1.296   1.111   5.199  0.0531 -0.0714  0.3666
12245TIP3    H158226   1.336   1.189   5.161  0.0176 -0.6252 -0.8582
12245TIP3    H258227   1.350   1.090   5.275  0.7132  0.5017  0.0590
12246TIP3   OH258228   2.332   4.402  13.075  0.2558  0.1119 -0.3080
12246TIP3    H158229   2.272   4.327  13.075  1.1094 -0.5846  0.1397
12246TIP3    H258230   2.274   4.478  13.083 -0.5978 -0.5164 -0.3131
12247TIP3   OH258231   4.873   3.803  16.094  0.3147 -0.5356 -1.0854
12247TIP3    H158232   4.802   3.793  16.031 -1.1351  1.2633  0.1468
12247TIP3    H258233   4.883   3.897  16.104  0.6041 -0.7527  1.1978
12248TIP3   OH258234   2.754   0.217  11.198 -0.5207 -0.2154  0.1341
12248TIP3    H158235   2.680   0.249  11.249 -0.2042 -1.4287  1.4045
12248TIP3    H258236   2.812   0.293  11.190 -1.4958  0.5159 -0.1592
12249TIP3   OH258237   5.843   1.815  11.332  0.1236  0.2915 -0.1754
12249TIP3    H158238   5.896   1.892  11.309 -1.1210  1.0821 -0.4931
12249TIP3    H258239   5.760   1.851  11.362 -0.5713 -0.9355 -0.5473
12250TIP3   OH258240   1.807   1.438   0.500  0.1868 -0.3038 -0.6370
12250TIP3    H158241   1.776   1.442   0.590 -1.4248 -1.4417 -1.0956
12250TIP3    H258242   1.903   1.442   0.507  0.0729  0.3730  1.0445
12251TIP3   OH258243   0.819   6.309  15.725 -0.3625 -0.0490  0.1291
12251TIP3    H158244   0.726   6.295  15.708 -0.2813  0.6400 -0.9719
12251TIP3    H258245   0.821   6.377  15.793 -0.6623 -1.5261  1.6903
12252TIP3   OH258246   6.051   2.641  16.307 -0.4458  0.6339 -0.4459
12252TIP3    H158247   6.019   2.691  16.382 -1.9776  1.6342 -1.7120
12252TIP3    H258248   6.145   2.662  16.303  0.3563 -1.6556  2.8002
12253TIP3   OH258249   3.072   3.520   3.968 -0.2282  0.4992  0.0984
12253TIP3    H158250   2.981   3.541   3.986 -0.6880 -0.0810 -1.3657
12253TIP3    H258251   3.084   3.431   4.002 -0.7508 -0.1252 -1.2627
12254TIP3   OH258252   3.579   5.707  12.401  0.1180 -0.0938 -0.3560
12254TIP3    H158253   3.602   5.683  12.491 -1.6182  0.6765  0.3412
12254TIP3    H258254   3.484   5.719  12.403  0.2178  1.3711 -1.9432
12255TIP3   OH258255   5.487   3.810   5.215 -0.0801  0.3278 -0.0125
12255TIP3    H158256   5.420   3.802   5.283 -1.6231  2.3548 -1.1752
12255TIP3    H258257   5.566   3.837   5.262 -0.1002 -1.8030  1.3501
12256TIP3   OH258258   6.319   4.593  12.948 -0.1592  0.4021  0.2497
12256TIP3    H158259   6.248   4.646  12.983  0.5694  0.3318  1.9333
12256TIP3    H258260   6.280   4.507  12.933 -0.4316  0.3257  1.2883
12257TIP3   OH258261   6.055   0.509  16.376  0.3105 -0.2637  0.1712
12257TIP3    H158262   5.992   0.581  16.378  0.0271 -0.4603 -0.9040
12257TIP3    H258263   6.018   0.448  16.312  1.3302 -0.6398 -0.0669
12258TIP3   OH258264   1.078   0.897  11.301 -0.2684 -0.6635 -0.0735
12258TIP3    H158265   1.089   0.827  11.236  1.2150 -1.6890  1.1955
12258TIP3    H258266   1.063   0.976  11.249  0.6847 -1.4709 -1.6660
12259TIP3   OH258267   6.464   4.705  15.808 -0.5012  0.4278 -0.5640
12259TIP3    H158268   6.392   4.675  15.751 -0.8286  0.3300 -0.1099
12259TIP3    H258269   6.432   4.787  15.845 -0.0756  0.7574 -0.9159
12260TIP3   OH258270   1.418   3.667  16.490 -0.4155 -0.7620 -0.0676
12260TIP3    H158271   1.357   3.730  16.450 -0.3213 -0.0535  0.8693
12260TIP3    H258272   1.504   3.699  16.464 -0.3510 -0.2674  0.7135
12261TIP3   OH258273   3.163   0.533   5.002  0.4084 -0.2812 -0.3695
12261TIP3    H158274   3.163   0.610   4.944  1.2317  0.2668  0.3247
12261TIP3    H258275   3.180   0.569   5.089 -0.4092 -1.1356  0.1638
12262TIP3   OH258276   6.557   6.386   4.210 -0.5107 -0.1703  0.2700
12262TIP3    H158277   6.590   6.377   4.121  2.0499 -2.3837  1.3390
12262TIP3    H258278   6.567   6.479   4.229 -0.4513  0.2233 -1.4717
12263TIP3   OH258279   0.536   2.213  14.616  0.0090  0.0859  0.5337
12263TIP3    H158280   0.558   2.178  14.702 -1.0398  0.6310  1.0440
12263TIP3    H258281   0.608   2.185  14.559  0.8036 -0.1411  1.6191
12264TIP3   OH258282   3.382   3.114   3.618  0.4420  0.1317  0.0888
12264TIP3    H158283   3.475   3.090   3.611 -0.0042 -1.1443 -3.4551
12264TIP3    H258284   3.383   3.210   3.617  1.7017  0.1515  0.4016
12265TIP3   OH258285   3.719   0.512  15.670  0.4052  0.0758  0.2637
12265TIP3    H158286   3.715   0.607  15.677  0.6702  0.0749  0.4337
12265TIP3    H258287   3.780   0.485  15.739  0.0221 -0.2502  0.4762
12266TIP3   OH258288   4.518   5.423   2.412  0.0620 -0.2397 -0.3151
12266TIP3    H158289   4.528   5.484   2.339 -1.6557 -1.6643 -1.8537
12266TIP3    H258290   4.529   5.337   2.372  1.8691 -1.0361  1.6946
12267TIP3   OH258291   2.234   5.916   4.636 -0.1928  0.6317  0.1634
12267TIP3    H158292   2.307   5.962   4.676  0.2122  0.3360 -0.2336
12267TIP3    H258293   2.237   5.828   4.672 -1.2494  1.0207  1.2843
12268TIP3   OH258294   0.703   4.726   0.232  0.4397 -0.5244  0.5024
12268TIP3    H158295   0.785   4.774   0.229 -0.6386  1.4318  0.8110
12268TIP3    H258296   0.635   4.792   0.217 -1.0675 -2.1589 -0.3276
12269TIP3   OH258297   2.531   1.823  15.190  0.3442 -0.0631 -0.2546
12269TIP3    H158298   2.523   1.837  15.096  3.4341 -0.2493 -0.6526
12269TIP3    H258299   2.441   1.820  15.222 -0.7708  1.3753 -2.9769
12270TIP3   OH258300   0.767   1.846  11.652 -0.3810  0.2034  0.0286
12270TIP3    H158301   0.702   1.843  11.582  0.3317  0.1651 -0.6395
12270TIP3    H258302   0.766   1.937  11.682 -1.2687  0.0392  0.5375
12271TIP3   OH258303   4.051   1.833   0.052  0.0261  0.3489 -0.1293
12271TIP3    H158304   4.123   1.878   0.096 -1.3206  0.5449  2.0141
12271TIP3    H258305   4.025   1.892  -0.019  4.1051 -1.2334 -3.3772
12272TIP3   OH258306   0.107   5.440  13.269 -0.6709 -0.0901  0.4594
12272TIP3    H158307   0.156   5.489  13.334 -0.8042 -0.8636  1.1531
12272TIP3    H258308   0.015   5.454  13.292 -0.7667  0.6092 -0.2900
12273TIP3   OH258309   3.749   3.450   0.136 -0.3231  0.0487  0.4340
12273TIP3    H158310   3.697   3.370   0.143 -0.6233  0.1953 -0.0540
12273TIP3    H258311   3.807   3.434   0.061  0.7918 -0.3639  1.3562
12274TIP3   OH258312   1.150   4.650   3.200  0.2639  0.1210 -0.1459
12274TIP3    H158313   1.194   4.577   3.155 -1.0372  0.2911 -1.7932
12274TIP3    H258314   1.121   4.614   3.283 -0.4513 -1.3060 -0.9800
12275TIP3   OH258315   4.653   3.939  16.477  0.0041 -0.4505 -0.0898
12275TIP3    H158316   4.597   3.935  16.555  1.6796  0.4962  1.2066
12275TIP3    H258317   4.678   3.848  16.461 -1.5113 -0.8352 -0.4373
12276TIP3   OH258318   1.933   2.930  12.630 -0.0820 -0.5822  0.6361
12276TIP3    H158319   1.962   2.955  12.718  0.6805  1.8836 -0.2417
12276TIP3    H258320   1.838   2.924  12.637 -0.1914  1.2855  1.2814
12277TIP3   OH258321   1.081   5.431  15.234 -0.3996 -0.5188 -0.2211
12277TIP3    H158322   1.049   5.482  15.308  2.0248  2.0306 -0.7950
12277TIP3    H258323   1.151   5.377  15.270 -0.9108 -1.2002 -0.2193
12278TIP3   OH258324   4.494   6.421  13.304  0.5006 -0.2006 -0.6220
12278TIP3    H158325   4.412   6.374  13.321 -0.0596  1.0683  0.3092
12278TIP3    H258326   4.562   6.365  13.342 -0.1832 -0.1417  0.7529
12279TIP3   OH258327   6.092   2.800  12.901 -0.0521 -0.1060  0.3536
12279TIP3    H158328   6.184   2.827  12.902  0.1722 -0.7840  2.1763
12279TIP3    H258329   6.044   2.879  12.926  0.0600  0.1756 -0.3152
12280TIP3   OH258330   3.192   0.081   3.048  0.4349  0.5946  0.3192
12280TIP3    H158331   3.102   0.094   3.080  0.3680  0.7627  0.0646
12280TIP3    H258332   3.225   0.008   3.100 -0.2475 -0.2370 -0.3910
12281TIP3   OH258333   6.162   5.023   5.207 -0.5741  0.1227  0.2882
12281TIP3    H158334   6.070   4.999   5.220 -0.2003 -0.4092  2.3703
12281TIP3    H258335   6.206   4.940   5.190  0.1481 -0.4220  3.8788
12282TIP3   OH258336   5.173   4.853  13.857 -0.1618  0.1321  0.1246
12282TIP3    H158337   5.206   4.769  13.825 -2.5697 -0.0534 -2.3239
12282TIP3    H258338   5.163   4.841  13.951  0.4749 -1.9841 -0.0260
12283TIP3   OH258339   0.964   0.653   0.694 -0.3795  0.0556 -0.1595
12283TIP3    H158340   0.927   0.680   0.778  2.2215  1.6275  0.6117
12283TIP3    H258341   1.003   0.733   0.658  3.1391 -1.5039 -0.2782
12284TIP3   OH258342   3.414   2.694   5.837  0.1832 -0.4712  0.1178
12284TIP3    H158343   3.440   2.724   5.924 -0.3547 -0.4067  0.2619
12284TIP3    H258344   3.495   2.689   5.787  0.2674  1.5873 -0.0249
12285TIP3   OH258345   2.649   6.795   5.640  0.2533  0.1120  0.5255
12285TIP3    H158346   2.567   6.752   5.615  0.8492 -0.7024 -0.1182
12285TIP3    H258347   2.626   6.851   5.713 -0.7165 -0.7635  0.9203
12286TIP3   OH258348   0.544   3.878   0.750  0.2046  0.3043 -0.3731
12286TIP3    H158349   0.547   3.783   0.766 -2.8804  0.1447 -0.0761
12286TIP3    H258350   0.600   3.915   0.818  2.7405 -1.2925 -1.4284
12287TIP3   OH258351   2.667   4.915   4.963  0.6103 -0.1532  0.2300
12287TIP3    H158352   2.734   4.971   4.923 -0.6467 -0.2573 -2.1731
12287TIP3    H258353   2.717   4.857   5.021  2.4778  0.4794 -0.6477
12288TIP3   OH258354   3.775   2.749  11.609 -0.0172  0.6921  0.2566
12288TIP3    H158355   3.729   2.833  11.606 -2.9975 -0.8116 -0.4104
12288TIP3    H258356   3.821   2.744  11.525  1.4523  2.2393  0.9268
12289TIP3   OH258357   3.517   3.957   5.615 -0.2117  0.1853  0.1120
12289TIP3    H158358   3.557   3.963   5.528  0.2501  0.3816  0.3298
12289TIP3    H258359   3.569   3.891   5.660 -1.0687 -0.6303 -0.0781
12290TIP3   OH258360   5.611   1.719   3.147 -0.6246 -0.1682  0.3687
12290TIP3    H158361   5.547   1.701   3.216 -1.4200 -2.2908 -0.8210
12290TIP3    H258362   5.632   1.633   3.111  2.1047  0.5661 -0.0345
12291TIP3   OH258363   4.841   2.750  12.591  0.0445 -0.5620 -0.1649
12291TIP3    H158364   4.828   2.791  12.676 -2.6540  1.0310 -1.1823
12291TIP3    H258365   4.886   2.816  12.539 -0.3946 -0.5874 -0.5887
12292TIP3   OH258366   4.517   6.076  14.103 -0.0170 -0.4336  0.0818
12292TIP3    H158367   4.489   6.146  14.044  0.4829 -1.5738 -1.6024
12292TIP3    H258368   4.442   6.059  14.160 -0.6555  0.4616 -0.4800
12293TIP3   OH258369   6.544   5.978   1.868 -0.1864  0.1570 -0.7896
12293TIP3    H158370   6.485   5.944   1.800  1.0796 -3.7793 -0.1163
12293TIP3    H258371   6.628   5.986   1.824  0.5528 -2.0492  0.1123
12294TIP3   OH258372   5.975   6.708  11.932  0.9254  0.2903  0.0195
12294TIP3    H158373   5.916   6.782  11.947  0.7571  0.2229 -0.3034
12294TIP3    H258374   6.060   6.749  11.915  1.1840  0.3622  1.3798
12295TIP3   OH258375   4.712   5.133   5.811 -0.2153  0.3462 -0.7388
12295TIP3    H158376   4.765   5.095   5.880  0.4379 -0.8491 -1.8595
12295TIP3    H258377   4.773   5.151   5.740 -1.3065 -1.4771 -2.2350
12296TIP3   OH258378   4.808   0.763   1.531 -0.1917  0.2346 -0.1270
12296TIP3    H158379   4.820   0.740   1.623  1.1044  1.4644  0.0327
12296TIP3    H258380   4.883   0.723   1.486 -0.2251  0.5556 -0.4745
12297TIP3   OH258381   1.904   5.825  10.201 -0.4883  0.6686  0.4714
12297TIP3    H158382   1.841   5.868  10.143 -0.2864  0.1472 -0.1387
12297TIP3    H258383   1.858   5.747  10.232 -0.5540  0.8863  0.9335
12298TIP3   OH258384   4.407   5.954   5.256  0.0894  0.1298  0.6563
12298TIP3    H158385   4.423   5.978   5.347 -1.6929 -1.1131  1.3404
12298TIP3    H258386   4.428   5.861   5.251 -0.8316 -0.0593  0.0722
12299TIP3   OH258387   4.981   4.244   4.042  0.4695 -0.0990 -0.0590
12299TIP3    H158388   4.937   4.318   4.084 -2.1501 -1.5022 -0.1280
12299TIP3    H258389   5.028   4.283   3.969 -1.7609  1.4363 -0.7919
12300TIP3   OH258390   5.833   4.656   1.912  0.7992  0.4003 -0.4467
12300TIP3    H158391   5.762   4.662   1.849 -0.2067  1.7889  0.7559
12300TIP3    H258392   5.904   4.707   1.874  0.7972 -0.1505 -1.1988
12301TIP3   OH258393   3.324   4.756   1.757 -0.3690 -0.1682  0.0478
12301TIP3    H158394   3.383   4.751   1.831 -0.4091 -0.1084  0.0847
12301TIP3    H258395   3.236   4.761   1.796 -0.8749 -4.8045  0.0279
12302TIP3   OH258396   6.305   5.706   3.125 -0.2387 -0.5394 -0.7398
12302TIP3    H158397   6.352   5.767   3.182  2.2667 -1.0189 -2.1477
12302TIP3    H258398   6.302   5.624   3.175  0.8485 -0.6227 -0.7915
12303TIP3   OH258399   4.199   4.176   2.126 -0.1351 -0.0311  0.2865
12303TIP3    H158400   4.152   4.101   2.090 -0.8425  0.1354  0.8469
12303TIP3    H258401   4.291   4.153   2.116 -0.3285 -1.3335  1.1487
12304TIP3   OH258402   4.544   3.098  11.087 -0.2080 -0.1784 -0.3297
12304TIP3    H158403   4.520   3.092  10.995 -0.7410 -0.0820 -0.1992
12304TIP3    H258404   4.639   3.110  11.086 -0.0510 -1.2891 -0.8289
12305TIP3   OH258405   6.721   5.820   6.387 -0.3722  0.0913 -0.4891
12305TIP3    H158406   6.790   5.887   6.386 -1.6970  1.5449  0.6118
12305TIP3    H258407   6.768   5.737   6.392  1.3221  1.0921  1.6776
12306TIP3   OH258408   6.039   5.538   1.326 -0.1101 -0.2881  0.8264
12306TIP3    H158409   6.013   5.481   1.398 -1.4243  0.2372  0.7974
12306TIP3    H258410   6.116   5.495   1.288 -1.3381 -2.3133  0.4857
12307TIP3   OH258411   6.619   4.573  11.137 -0.1405  0.2899 -0.0597
12307TIP3    H158412   6.693   4.533  11.091  0.5488  1.3149  0.1208
12307TIP3    H258413   6.562   4.499  11.160 -0.1036 -0.3311 -1.8146
12308TIP3   OH258414   4.100   2.879  13.040 -0.4136  0.4526 -0.0245
12308TIP3    H158415   4.009   2.849  13.039  0.1119 -1.4689  1.9422
12308TIP3    H258416   4.103   2.942  13.112 -0.0472 -0.0573  0.4114
12309TIP3   OH258417   5.128   5.734   4.293  0.2150 -0.1586 -0.0266
12309TIP3    H158418   5.132   5.698   4.204 -1.3816 -0.6000  0.0539
12309TIP3    H258419   5.039   5.770   4.300  0.1736 -0.4983  1.5286
12310TIP3   OH258420   1.352   5.712   1.866  0.2046  0.0184 -0.3102
12310TIP3    H158421   1.327   5.793   1.909 -0.2509 -0.7356  0.9064
12310TIP3    H258422   1.324   5.643   1.926 -0.9551 -1.1294 -2.0438
12311TIP3   OH258423   3.713   4.096  15.553 -0.0030 -0.4130 -0.0736
12311TIP3    H158424   3.636   4.090  15.496  0.4290  3.9109 -1.5079
12311TIP3    H258425   3.682   4.070  15.639 -3.1068  1.1387 -0.6054
12312TIP3   OH258426   4.891   1.559  14.263  0.3245  0.2938 -0.3840
12312TIP3    H158427   4.958   1.530  14.201  1.5534  1.5460  0.2910
12312TIP3    H258428   4.941   1.602  14.333 -1.0255 -0.6740  1.2664
12313TIP3   OH258429   6.528   5.126  10.013 -0.0689  0.2054  0.2804
12313TIP3    H158430   6.455   5.187  10.023  0.4814  0.8924  0.1151
12313TIP3    H258431   6.603   5.180   9.989  0.6077 -0.4410  0.8640
12314TIP3   OH258432   3.705   2.491  10.991 -0.8432 -0.1141 -0.1501
12314TIP3    H158433   3.773   2.425  11.007  0.8228  1.2801 -1.1360
12314TIP3    H258434   3.703   2.500  10.895 -1.9235  0.3848 -0.0889
12315TIP3   OH258435   0.058   3.377   3.401  0.5348 -0.6657  0.1665
12315TIP3    H158436   0.038   3.409   3.489 -1.2784 -0.6573 -0.2020
12315TIP3    H258437   0.148   3.347   3.406  0.4745 -0.6500  2.0248
12316TIP3   OH258438   0.873   0.648   2.847  0.2682 -0.0731 -0.0867
12316TIP3    H158439   0.901   0.738   2.860  0.5515 -0.2717  0.7718
12316TIP3    H258440   0.950   0.604   2.812 -0.0007  0.1058 -0.9183
12317TIP3   OH258441   0.734   4.404   0.883 -0.8175  0.8814  0.1882
12317TIP3    H158442   0.804   4.446   0.933 -0.4077  1.2112 -0.6321
12317TIP3    H258443   0.753   4.310   0.889  0.4303  1.0213 -1.0253
12318TIP3   OH258444   1.476   1.675   1.246  0.4745  0.2202 -0.2384
12318TIP3    H158445   1.426   1.738   1.297 -0.2788 -2.2865  2.4053
12318TIP3    H258446   1.411   1.613   1.213  1.4348 -1.0185  0.0939
12319TIP3   OH258447   5.376   0.402   4.447 -0.2974  0.0362  0.0224
12319TIP3    H158448   5.408   0.429   4.533  1.1185  2.2219 -1.0919
12319TIP3    H258449   5.296   0.454   4.433 -0.1698  0.1730 -0.2177
12320TIP3   OH258450   0.844   4.963   3.642 -0.6694 -0.1943 -0.5315
12320TIP3    H158451   0.815   4.923   3.724  2.0799  1.6485  1.4877
12320TIP3    H258452   0.926   4.918   3.621 -0.3842  0.6311 -1.2585
12321TIP3   OH258453   5.630   3.167  11.424 -0.1268 -0.2434 -0.5615
12321TIP3    H158454   5.574   3.121  11.487 -0.1146  1.5087  0.8073
12321TIP3    H258455   5.714   3.120  11.428 -1.3172 -2.7131 -2.4197
12322TIP3   OH258456   1.021   3.728   4.728 -0.2896 -0.3345 -0.4584
12322TIP3    H158457   1.055   3.816   4.715  1.6114 -0.9188  0.1810
12322TIP3    H258458   0.932   3.731   4.694 -0.5668  2.0344  0.3003
12323TIP3   OH258459   3.426   5.909   3.170 -0.2663 -0.3388 -0.0212
12323TIP3    H158460   3.393   5.989   3.128  0.0701  0.1829  0.6791
12323TIP3    H258461   3.495   5.940   3.229  0.6985 -1.2826 -0.6202
12324TIP3   OH258462   0.571   3.639  11.149  0.4457 -0.2409  0.2914
12324TIP3    H158463   0.666   3.643  11.143  0.3655  0.7881 -0.4051
12324TIP3    H258464   0.542   3.730  11.147 -0.5766 -0.5557  0.1527
12325TIP3   OH258465   6.822   5.502   0.662  0.3272  0.1880  0.0266
12325TIP3    H158466   6.897   5.444   0.646 -0.5668 -1.0457  0.2309
12325TIP3    H258467   6.787   5.520   0.574  0.6742  0.5151 -0.0460
12326TIP3   OH258468   5.399   3.426   0.457  0.4082 -0.1386 -0.1884
12326TIP3    H158469   5.413   3.448   0.365 -0.6706  1.8607  0.0878
12326TIP3    H258470   5.305   3.434   0.470  0.3893 -1.6082  0.8261
12327TIP3   OH258471   2.863   0.032   5.417 -0.3185 -0.4141  0.2236
12327TIP3    H158472   2.784  -0.008   5.454  1.0420 -2.4609  1.1247
12327TIP3    H258473   2.830   0.091   5.350 -2.6378 -0.7699  0.9369
12328TIP3   OH258474   3.203   0.386  16.308 -0.6036 -0.0892  0.3905
12328TIP3    H158475   3.212   0.327  16.382 -1.7833 -1.1133 -0.2414
12328TIP3    H258476   3.277   0.365  16.251 -0.8347 -0.7381  0.3249
12329TIP3   OH258477   1.790   2.570   3.105 -0.1103 -0.3207  0.1667
12329TIP3    H158478   1.831   2.577   3.191 -0.8212  0.5370  0.4503
12329TIP3    H258479   1.748   2.655   3.092 -0.7683 -0.7605 -0.6392
12330TIP3   OH258480   1.688   4.504   1.107 -0.2430  0.3115 -0.6950
12330TIP3    H158481   1.773   4.532   1.141 -1.1811  2.2871  0.1949
12330TIP3    H258482   1.669   4.567   1.037 -0.5165 -0.7643 -1.6014
12331TIP3   OH258483   1.837   1.318  14.038  0.4189  0.0702  0.2141
12331TIP3    H158484   1.900   1.268  14.091 -0.3390 -0.9219  0.2176
12331TIP3    H258485   1.851   1.287  13.949  2.1006  2.1703 -0.3302
12332TIP3   OH258486   3.981   1.360   4.048  0.7965  0.3672 -0.0962
12332TIP3    H158487   3.949   1.301   4.116  0.9281  1.8513  1.3175
12332TIP3    H258488   4.076   1.346   4.047  0.9796  1.3618  1.0852
12333TIP3   OH258489   5.123   6.722   0.365  0.1744 -0.0788 -0.4802
12333TIP3    H158490   5.033   6.750   0.353  0.4108  0.0215 -2.2473
12333TIP3    H258491   5.153   6.771   0.442 -1.2554 -0.1406  0.1535
12334TIP3   OH258492   2.801   1.368   0.801 -0.5323  0.1589  0.0879
12334TIP3    H158493   2.808   1.458   0.769  0.7883  0.6714  1.6896
12334TIP3    H258494   2.890   1.335   0.799 -0.6707 -0.3658  1.5550
12335TIP3   OH258495   1.934   1.588  11.581 -0.3589  0.6904  0.2526
12335TIP3    H158496   2.006   1.618  11.637  0.4224  0.7358 -0.7510
12335TIP3    H258497   1.881   1.667  11.567 -1.7409  0.2668  2.5653
12336TIP3   OH258498   2.949   5.373  11.963 -0.0589  0.0229 -0.5483
12336TIP3    H158499   3.003   5.421  12.025 -1.9464  1.3600  0.1704
12336TIP3    H258500   3.010   5.343  11.896  1.5071  1.6579  0.0602
12337TIP3   OH258501   5.229   2.863  13.476 -0.2441 -0.7309 -0.0342
12337TIP3    H158502   5.286   2.835  13.548  0.3670  0.6304  0.0278
12337TIP3    H258503   5.282   2.852  13.397 -1.1511 -2.9043 -0.4137
12338TIP3   OH258504   5.171   4.168   1.929  0.1837 -0.1298 -0.4703
12338TIP3    H158505   5.120   4.100   1.972 -0.4290  1.4761  1.5589
12338TIP3    H258506   5.263   4.145   1.947  0.0034 -0.6388 -0.2006
12339TIP3   OH258507   0.252   3.105   0.215 -0.1873  0.4412  0.2862
12339TIP3    H158508   0.181   3.144   0.165  0.9925  1.1220 -0.9100
12339TIP3    H258509   0.257   3.015   0.184 -1.1511  0.0832  1.1030
12340TIP3   OH258510   5.981   6.551  16.376 -0.1396  0.1374  0.4870
12340TIP3    H158511   5.920   6.589  16.313  0.5025  1.6689  0.7371
12340TIP3    H258512   5.945   6.465  16.397 -2.5871  1.2409  1.1402
12341TIP3   OH258513   3.103   2.209   5.404 -0.6205 -0.5543  0.0444
12341TIP3    H158514   3.152   2.273   5.456 -0.2884  0.8743 -1.8961
12341TIP3    H258515   3.163   2.136   5.392  0.3799  0.3588 -0.7088
12342TIP3   OH258516   3.880   0.256   4.566 -0.2820 -0.2408  0.4651
12342TIP3    H158517   3.880   0.295   4.479  2.3407 -0.3251  0.3687
12342TIP3    H258518   3.797   0.208   4.570  0.1793 -1.5578 -2.6052
12343TIP3   OH258519   1.286   4.050  15.435 -0.0476 -0.0668 -0.0429
12343TIP3    H158520   1.373   4.085  15.454  0.6294 -0.0781 -2.6717
12343TIP3    H258521   1.272   3.983  15.502  1.5136  0.6223  1.0472
12344TIP3   OH258522   2.980   1.592  11.610 -0.2612  0.3141 -0.2654
12344TIP3    H158523   2.898   1.636  11.634  0.0443  1.8098 -1.7677
12344TIP3    H258524   2.961   1.499  11.621 -1.3638  0.7187  1.7451
12345TIP3   OH258525   0.548   5.135  14.938  0.2859 -0.0204  0.1149
12345TIP3    H158526   0.616   5.126  15.006  0.6777 -0.5468 -0.3432
12345TIP3    H258527   0.583   5.201  14.879  0.1882  0.0415  0.1259
12346TIP3   OH258528   0.382   3.828  15.536  0.6622  0.0222  0.0795
12346TIP3    H158529   0.314   3.854  15.473  1.8284 -1.5710 -1.9398
12346TIP3    H258530   0.360   3.738  15.558  2.0809 -0.5262 -0.6281
12347TIP3   OH258531   6.674   5.807   2.104  0.0269  0.3650  0.6887
12347TIP3    H158532   6.613   5.858   2.051  1.1192  1.5938  0.5539
12347TIP3    H258533   6.756   5.857   2.101  0.2247  0.3473  3.2783
12348TIP3   OH258534   2.322   5.763   2.524 -0.1956  0.2547 -0.2265
12348TIP3    H158535   2.304   5.685   2.577 -3.4188  0.2357 -1.0878
12348TIP3    H258536   2.350   5.729   2.440  1.1960  0.1588  0.2589
12349TIP3   OH258537   0.389   4.232  16.349  0.3827 -0.5306  0.0475
12349TIP3    H158538   0.400   4.314  16.397  0.8357  0.7059 -2.0459
12349TIP3    H258539   0.296   4.228  16.330  0.6861  0.9284 -2.1028
12350TIP3   OH258540   1.620   1.039  16.305  0.1949  0.6226 -0.3881
12350TIP3    H158541   1.642   0.962  16.252 -0.4223  0.4988 -0.4803
12350TIP3    H258542   1.581   1.003  16.384  2.1342  0.7693  0.6881
12351TIP3   OH258543   5.905   2.751   2.921 -0.0615  0.3857  0.0408
12351TIP3    H158544   5.914   2.766   2.827  1.3539 -0.3627  0.0331
12351TIP3    H258545   5.826   2.799   2.946 -0.2065  0.9494 -1.4445
12352TIP3   OH258546   2.522   1.541   3.765 -0.8619 -0.1513 -0.0733
12352TIP3    H158547   2.612   1.539   3.731 -2.0267  1.1760 -3.7991
12352TIP3    H258548   2.528   1.587   3.848  1.8677  0.0356 -0.2868
12353TIP3   OH258549   5.314   5.016  12.392  0.5065  0.2162 -0.4465
12353TIP3    H158550   5.367   4.954  12.443  0.0826 -0.2653 -0.5884
12353TIP3    H258551   5.379   5.066  12.342  0.8073 -0.7431 -1.0373
12354TIP3   OH258552   2.602   6.469   5.570 -0.0444 -0.0004 -0.7944
12354TIP3    H158553   2.582   6.474   5.664  2.6620 -1.1133 -0.0707
12354TIP3    H258554   2.563   6.548   5.534 -3.3540 -0.7440  0.7508
12355TIP3   OH258555   1.768   5.216   4.367  0.1209  0.5760  0.3726
12355TIP3    H158556   1.857   5.250   4.369  0.4000 -0.1326  0.3428
12355TIP3    H258557   1.778   5.122   4.352 -0.6111  0.3921  0.9658
12356TIP3   OH258558   2.580   5.420   5.027  0.2025  0.1419 -0.6832
12356TIP3    H158559   2.529   5.358   4.975 -0.8596  0.1427  0.3131
12356TIP3    H258560   2.587   5.378   5.113  2.1993 -0.0080 -0.8821
12357TIP3   OH258561   4.840   6.214  17.038  0.2815  0.0196 -0.2211
12357TIP3    H158562   4.789   6.136  17.058  0.2551 -0.1977 -1.1208
12357TIP3    H258563   4.896   6.189  16.964 -0.0320  0.9734 -0.7999
12358TIP3   OH258564   6.390   5.435  14.484 -0.0406 -0.1330 -0.3725
12358TIP3    H158565   6.363   5.519  14.522 -1.6171 -0.6544 -0.2807
12358TIP3    H258566   6.464   5.458  14.427  0.5315  1.0770  0.7827
12359TIP3   OH258567   0.703   0.095   3.559 -0.4712 -0.0818 -0.2456
12359TIP3    H158568   0.616   0.055   3.553 -0.6573  0.3810 -0.7730
12359TIP3    H258569   0.704   0.160   3.488 -0.4055  1.2834  0.9693
12360TIP3   OH258570   0.576   1.783  10.763  0.2797  0.1405 -0.4807
12360TIP3    H158571   0.534   1.704  10.728 -0.9636  0.7813 -0.4981
12360TIP3    H258572   0.518   1.854  10.736  3.8821  1.8663 -5.1215
12361TIP3   OH258573   6.833   4.749  11.917 -0.1538 -0.1234 -0.3595
12361TIP3    H158574   6.889   4.826  11.925 -1.3081  0.6763  0.1899
12361TIP3    H258575   6.780   4.764  11.839 -0.8819 -0.0195  0.1454
12362TIP3   OH258576   4.045   5.196  14.790  0.0892  0.0655 -0.2484
12362TIP3    H158577   4.054   5.209  14.884 -2.3071 -1.4720  0.2707
12362TIP3    H258578   4.018   5.281  14.756 -1.4241  0.0605  0.8689
12363TIP3   OH258579   6.772   4.482   1.134  0.7535 -0.6887 -0.0736
12363TIP3    H158580   6.688   4.438   1.133  0.7868 -0.7548 -0.0228
12363TIP3    H258581   6.831   4.423   1.087  0.3231  0.2914 -1.9401
12364TIP3   OH258582   5.777   2.304   5.373 -0.0757 -0.5478 -0.5348
12364TIP3    H158583   5.700   2.250   5.355  0.0790 -1.1051  0.4352
12364TIP3    H258584   5.762   2.339   5.461  1.8991 -2.7317  0.7870
12365TIP3   OH258585   4.264   4.110  13.320  0.3242  0.2891 -1.0414
12365TIP3    H158586   4.179   4.135  13.355 -0.6781 -1.5332 -2.0213
12365TIP3    H258587   4.328   4.160  13.372 -1.2617  0.7449  0.5450
12366TIP3   OH258588   1.886   2.800   4.979 -0.5400 -0.1077 -0.1164
12366TIP3    H158589   1.843   2.715   4.977  0.5285 -0.6554 -1.1504
12366TIP3    H258590   1.818   2.861   5.007 -1.4793 -1.2122  0.0683
12367TIP3   OH258591   2.736   5.612   4.108  0.2854  0.0819 -0.3645
12367TIP3    H158592   2.737   5.524   4.146  1.5624 -0.5698 -1.7960
12367TIP3    H258593   2.829   5.632   4.094 -0.0340  1.3650 -0.7385
12368TIP3   OH258594   2.909   2.999  14.063 -0.0448  0.0993 -0.0691
12368TIP3    H158595   2.841   3.060  14.090 -0.2605  0.4161 -1.3007
12368TIP3    H258596   2.872   2.951  13.989  1.7559  1.7437 -2.1772
12369TIP3   OH258597   0.778   3.858  14.128  0.0855 -0.3207 -0.0152
12369TIP3    H158598   0.839   3.825  14.194 -0.9881 -0.7876  0.7838
12369TIP3    H258599   0.773   3.788  14.063  0.4240 -0.2660 -0.1016
12370TIP3   OH258600   2.465   1.962   3.310 -0.7029  0.3255  0.8406
12370TIP3    H158601   2.397   1.909   3.268 -1.9358  1.2201  1.6544
12370TIP3    H258602   2.487   1.912   3.389  1.3355 -1.1560 -0.5417
12371TIP3   OH258603   3.201   0.252  11.549  0.2873  0.7146 -0.4317
12371TIP3    H158604   3.260   0.324  11.572 -1.0069  1.5986  0.2637
12371TIP3    H258605   3.116   0.278  11.585 -0.5181 -0.5656 -1.3088
12372TIP3   OH258606   1.673   5.806   0.181 -0.0046 -0.1467  0.4604
12372TIP3    H158607   1.725   5.728   0.200  2.3978  1.5745  1.5374
12372TIP3    H258608   1.651   5.842   0.267  1.0575  1.6029  0.0543
12373TIP3   OH258609   5.561   6.402  12.442 -0.0408 -0.3077 -0.0897
12373TIP3    H158610   5.527   6.370  12.526  0.1427  0.0366  0.1163
12373TIP3    H258611   5.484   6.407  12.386 -0.3844  0.6664  0.4393
12374TIP3   OH258612   1.856   0.113   3.092  0.3903  0.1394 -0.1434
12374TIP3    H158613   1.842   0.039   3.151 -0.4010  0.2877 -0.1423
12374TIP3    H258614   1.805   0.091   3.014  1.4654 -0.0821 -0.8124
12375TIP3   OH258615   6.133   1.392   2.765  0.1383 -0.2956  0.0100
12375TIP3    H158616   6.191   1.468   2.755  0.2683 -0.5320 -1.1557
12375TIP3    H258617   6.180   1.320   2.722 -1.1759 -0.4009 -1.3131
12376TIP3   OH258618   6.223   0.240  10.439  0.0363  0.1682  0.4609
12376TIP3    H158619   6.311   0.242  10.402 -0.1472 -2.4734 -0.3245
12376TIP3    H258620   6.166   0.215  10.366 -1.2686  0.9624  1.1562
12377TIP3   OH258621   5.152   0.769   0.511 -0.6232  0.1586 -0.4231
12377TIP3    H158622   5.169   0.853   0.469 -0.8494  0.3878 -0.0596
12377TIP3    H258623   5.171   0.704   0.443  1.8365  0.3630 -0.0361
12378TIP3   OH258624   3.312   4.331   2.696 -0.0071  0.1718  0.1874
12378TIP3    H158625   3.285   4.305   2.608  0.4413  0.0463  0.0828
12378TIP3    H258626   3.389   4.386   2.683 -1.7389  2.7983  0.3089
12379TIP3   OH258627   1.468   3.492   5.527  0.4122  0.2752 -0.1979
12379TIP3    H158628   1.391   3.531   5.486  0.5007  0.3945 -0.2499
12379TIP3    H258629   1.476   3.536   5.611  0.6313  0.5175 -0.3426
12380TIP3   OH258630   2.515   3.468  13.874 -0.6257 -0.1860  0.2760
12380TIP3    H158631   2.502   3.558  13.844  3.1188 -0.3429 -2.6245
12380TIP3    H258632   2.477   3.414  13.805  1.8677 -0.6419 -0.8470
12381TIP3   OH258633   4.842   0.225  15.477 -0.0953 -0.1406  0.3361
12381TIP3    H158634   4.904   0.218  15.550 -0.1448 -0.0941  0.3827
12381TIP3    H258635   4.819   0.135  15.455 -0.7271 -0.1272  0.9258
12382TIP3   OH258636   4.479   2.080   3.708 -0.1051 -0.3474  0.5427
12382TIP3    H158637   4.538   2.005   3.698 -0.1549 -0.2231 -0.9171
12382TIP3    H258638   4.531   2.146   3.754  0.8604 -0.2996 -0.5769
12383TIP3   OH258639   5.699   6.622  13.281 -0.0113  0.3041  0.6121
12383TIP3    H158640   5.778   6.653  13.236 -0.2243  0.0398  0.0375
12383TIP3    H258641   5.667   6.699  13.328  0.4189  0.4942  0.6029
12384TIP3   OH258642   0.363   3.613   4.242 -0.4334 -0.1500 -0.4792
12384TIP3    H158643   0.288   3.554   4.247  0.3225 -1.1653 -0.9442
12384TIP3    H258644   0.425   3.579   4.306 -0.3084  0.6295 -0.1692
12385TIP3   OH258645   4.189   2.445   5.731 -0.4020 -0.2554  0.1000
12385TIP3    H158646   4.133   2.421   5.657  0.1319  2.4486 -1.2911
12385TIP3    H258647   4.162   2.534   5.754  1.1650 -0.0874  1.4816
12386TIP3   OH258648   0.214   5.598  13.468  0.2172  0.8096  0.0072
12386TIP3    H158649   0.184   5.554  13.547  0.4719  0.3077 -0.1728
12386TIP3    H258650   0.305   5.571  13.458  0.0498  0.4934 -0.7190
12387TIP3   OH258651   1.256   6.240  14.594  0.5257 -0.1085  0.1431
12387TIP3    H158652   1.190   6.199  14.651 -0.3332  0.2283 -0.5806
12387TIP3    H258653   1.229   6.332  14.589  0.1327 -0.2868 -1.4088
12388TIP3   OH258654   4.475   6.386  12.643 -0.0842  0.7349 -0.0052
12388TIP3    H158655   4.491   6.387  12.549 -1.3732 -0.4850 -0.2676
12388TIP3    H258656   4.410   6.455  12.656 -2.5117 -1.2737 -0.6025
12389TIP3   OH258657   2.661   4.416  17.013 -0.8420  0.0553 -0.1036
12389TIP3    H158658   2.724   4.459  16.955 -0.3315  0.7757  0.9413
12389TIP3    H258659   2.579   4.414  16.964 -0.3027  0.2096 -1.0241
12390TIP3   OH258660   0.464   3.593   4.823 -0.2343 -0.3693 -0.0036
12390TIP3    H158661   0.423   3.595   4.909  0.6295  0.0988  0.4084
12390TIP3    H258662   0.394   3.621   4.763 -1.0732 -1.4810  0.4256
12391TIP3   OH258663   4.713   5.098  14.994 -0.5060 -0.3148 -0.3331
12391TIP3    H158664   4.786   5.099  15.055 -0.4216 -0.3907 -0.4302
12391TIP3    H258665   4.649   5.039  15.034 -0.2474 -0.7494 -0.5462
12392TIP3   OH258666   6.438   2.838   5.588  0.0114  0.3426 -0.8468
12392TIP3    H158667   6.458   2.915   5.535 -1.3364 -0.5882 -2.8207
12392TIP3    H258668   6.392   2.779   5.529 -0.3966 -1.3420  1.0319
12393TIP3   OH258669   6.520   2.857   0.305  0.0816 -0.0175  0.2111
12393TIP3    H158670   6.580   2.868   0.232  0.2147  0.2154  0.3551
12393TIP3    H258671   6.511   2.762   0.314 -0.1492 -0.0402 -0.2799
12394TIP3   OH258672   2.724   2.880   5.196 -0.0074 -0.0094  0.3136
12394TIP3    H158673   2.665   2.947   5.161  1.2353 -0.0982 -2.0989
12394TIP3    H258674   2.806   2.892   5.148  1.0334 -1.7260  1.5589
12395TIP3   OH258675   4.757   5.944  15.315 -0.4762  0.5693  0.3768
12395TIP3    H158676   4.681   5.996  15.292 -0.2249  2.1092  2.6800
12395TIP3    H258677   4.832   5.997  15.288 -0.0323 -1.5061 -3.1302
12396TIP3   OH258678   1.804   5.660  16.598 -0.2606 -0.1691  0.6870
12396TIP3    H158679   1.838   5.577  16.565 -1.0442 -0.2808  0.1357
12396TIP3    H258680   1.733   5.635  16.658 -1.0350  0.1072 -0.0935
12397TIP3   OH258681   0.243   3.487  11.315 -0.1420  0.2823 -0.5273
12397TIP3    H158682   0.161   3.515  11.355  0.6640 -1.5371  2.7696
12397TIP3    H258683   0.223   3.401  11.279  0.4752 -0.6854  1.3034
12398TIP3   OH258684   4.994   1.946   1.012  0.0590  0.1451 -0.2274
12398TIP3    H158685   4.905   1.953   1.047  0.1290  0.2345 -0.0639
12398TIP3    H258686   4.992   1.870   0.954 -0.3819  0.7365 -1.0047
12399TIP3   OH258687   5.707   5.415   5.529  0.3825  0.0493 -0.4569
12399TIP3    H158688   5.734   5.329   5.495 -0.9265 -0.3590 -0.5139
12399TIP3    H258689   5.765   5.477   5.486  0.7927 -0.7316 -1.0621
12400TIP3   OH258690   0.497   3.591   2.591  0.4078  0.7344  0.1116
12400TIP3    H158691   0.581   3.637   2.583  0.9144 -0.3677 -1.4147
12400TIP3    H258692   0.521   3.498   2.592 -0.8458  0.3350 -1.7806
12401TIP3   OH258693   4.436   5.190   3.161  0.0474  0.1206  0.0893
12401TIP3    H158694   4.365   5.154   3.213 -0.8104  0.9401 -0.4793
12401TIP3    H258695   4.471   5.261   3.214 -0.7352  0.8642 -0.3541
12402TIP3   OH258696   5.187   1.713   1.400 -0.2281  0.4546 -0.0973
12402TIP3    H158697   5.134   1.655   1.346 -1.6322  1.1999  0.4238
12402TIP3    H258698   5.198   1.792   1.347  1.3160 -0.0937 -0.6363
12403TIP3   OH258699   1.723   5.575   1.637 -0.1977  0.3503  0.0407
12403TIP3    H158700   1.666   5.627   1.694 -2.2861 -0.3312 -1.3083
12403TIP3    H258701   1.765   5.513   1.696 -0.4680  1.2089  1.1644
12404TIP3   OH258702   1.947   4.966  16.382 -0.2171 -0.0436  0.5312
12404TIP3    H158703   1.862   4.970  16.340  0.5292 -0.9811 -1.1585
12404TIP3    H258704   2.008   5.003  16.318  1.0021 -1.7963  0.5779
12405TIP3   OH258705   4.654   0.882  11.654  0.0029 -0.4737  0.9110
12405TIP3    H158706   4.625   0.792  11.672 -1.8240 -0.3870 -1.1872
12405TIP3    H258707   4.590   0.937  11.701 -0.0036 -0.2758  0.6709
12406TIP3   OH258708   4.718   0.749   0.176 -0.4551  0.8734 -0.0681
12406TIP3    H158709   4.752   0.752   0.265  0.0114  2.5537 -0.2765
12406TIP3    H258710   4.644   0.809   0.176 -0.5618  0.7557 -0.7773
12407TIP3   OH258711   3.419   0.060   5.484  0.3497 -0.6713 -0.5496
12407TIP3    H158712   3.395   0.127   5.549  0.3614  0.6964 -1.9062
12407TIP3    H258713   3.418  -0.022   5.533  0.2605  0.3026  1.1612
12408TIP3   OH258714   1.847   2.040   5.091 -0.5656 -0.4651  0.0121
12408TIP3    H158715   1.792   2.031   5.169 -0.9850 -2.6414 -0.4542
12408TIP3    H258716   1.929   1.997   5.115 -0.5908 -0.8826 -0.6282
12409TIP3   OH258717   1.596   3.866  11.321 -0.0804  0.0787 -0.0082
12409TIP3    H158718   1.501   3.876  11.309 -0.2069  1.2512  1.5551
12409TIP3    H258719   1.631   3.953  11.303  0.4681  0.1032  1.0826
12410TIP3   OH258720   3.460   0.091  16.005 -0.3778  0.1431 -0.1065
12410TIP3    H158721   3.413   0.016  16.041 -0.7069  0.3450 -0.1136
12410TIP3    H258722   3.419   0.106  15.920  1.2077 -1.1096 -1.1450
12411TIP3   OH258723   2.134   0.695   1.878 -0.5843  0.6184  0.4827
12411TIP3    H158724   2.129   0.707   1.783 -1.9598 -1.5287  0.2070
12411TIP3    H258725   2.142   0.784   1.913  1.9701  1.3625 -1.6868
12412TIP3   OH258726   3.777   0.698   5.416  0.3808 -0.3681  0.1848
12412TIP3    H158727   3.785   0.658   5.503 -0.3251 -0.1933  0.3425
12412TIP3    H258728   3.723   0.776   5.431  1.7793  0.6819 -0.1060
12413TIP3   OH258729   4.093   0.942  16.927 -0.1113  0.4815  0.1623
12413TIP3    H158730   4.087   0.993  16.846 -0.3367  0.9450  0.4694
12413TIP3    H258731   4.182   0.907  16.927 -0.3740 -0.2256 -0.7079
12414TIP3   OH258732   2.373   3.036  12.229  0.3214 -0.0526  0.1077
12414TIP3    H158733   2.314   2.961  12.228  0.9666 -0.6113  1.4957
12414TIP3    H258734   2.429   3.023  12.153 -0.4819 -0.2090 -0.4714
12415TIP3   OH258735   5.370   1.063   3.922 -0.2772 -0.0748  0.3327
12415TIP3    H158736   5.333   1.144   3.956  1.3668  0.2914  1.3850
12415TIP3    H258737   5.368   1.073   3.827  0.2943  1.4038  0.4517
12416TIP3   OH258738   4.041   3.603  14.298  0.1440  0.0773  0.1809
12416TIP3    H158739   3.989   3.666  14.346  1.0271  0.5204  0.5873
12416TIP3    H258740   4.117   3.586  14.355  0.9217  0.1787 -0.7894
12417TIP3   OH258741   1.887   2.131  14.152  0.2538  0.0756 -0.4980
12417TIP3    H158742   1.983   2.131  14.156  0.2126  0.4322  1.4548
12417TIP3    H258743   1.866   2.065  14.086  1.8469 -0.4908 -0.4949
12418TIP3   OH258744   5.016   5.722   1.629  0.0409 -0.6866 -0.0443
12418TIP3    H158745   5.027   5.707   1.723  1.7960 -0.4819 -0.1975
12418TIP3    H258746   4.943   5.784   1.623 -2.0401 -2.8736  1.0067
12419TIP3   OH258747   2.854   0.297   4.507  0.5869  0.4807  0.3979
12419TIP3    H158748   2.934   0.314   4.457  0.1220 -2.9965 -1.8418
12419TIP3    H258749   2.783   0.311   4.445 -0.5719  2.5823  2.0894
12420TIP3   OH258750   6.176   3.450   0.531  0.0407 -0.3245 -0.1949
12420TIP3    H158751   6.162   3.463   0.625 -0.5413 -0.0019 -0.3188
12420TIP3    H258752   6.271   3.440   0.521  0.0608 -0.8524  0.4833
12421TIP3   OH258753   0.518   2.944   3.436 -0.7780 -0.5419 -0.5605
12421TIP3    H158754   0.593   3.003   3.427 -1.2899  0.1854 -0.1237
12421TIP3    H258755   0.516   2.922   3.530 -1.3604 -0.2125 -0.4895
12422TIP3   OH258756   0.204   5.020  14.175  0.1494 -0.0118 -0.2988
12422TIP3    H158757   0.200   5.099  14.228  0.2289  0.1949 -0.6004
12422TIP3    H258758   0.295   4.991  14.181 -0.1921 -0.8898  0.9820
12423TIP3   OH258759   3.284   4.298  16.276 -0.5808  0.2659  0.3669
12423TIP3    H158760   3.313   4.225  16.221  0.4138 -0.7079  2.0848
12423TIP3    H258761   3.188   4.294  16.272 -0.5330 -0.1688 -0.7598
12424TIP3   OH258762   4.644   3.817  17.043  0.0065  0.0227 -0.1618
12424TIP3    H158763   4.559   3.850  17.015  1.1226 -0.0334 -4.2511
12424TIP3    H258764   4.629   3.724  17.059 -0.7357 -0.0059 -0.9085
12425TIP3   OH258765   1.427   0.273   0.301  0.2028 -0.8125  0.3474
12425TIP3    H158766   1.425   0.186   0.342 -2.1581 -0.5882  0.8103
12425TIP3    H258767   1.383   0.330   0.363  0.1147  0.3605 -0.7597
12426TIP3   OH258768   1.664   6.321   2.771  0.7487  0.0324  0.1829
12426TIP3    H158769   1.688   6.327   2.863  1.7687 -1.1708  0.0247
12426TIP3    H258770   1.625   6.406   2.750  0.8618  0.4553  1.6121
12427TIP3   OH258771   3.165   3.494   3.429 -0.4673  0.3609 -0.0258
12427TIP3    H158772   3.246   3.535   3.460 -1.5077  1.2047  1.7475
12427TIP3    H258773   3.157   3.414   3.480 -1.3944  0.9548  0.8024
12428TIP3   OH258774   5.983   0.511   4.501  0.0098  0.3877 -0.2149
12428TIP3    H158775   6.023   0.488   4.418  0.5559  0.7438 -0.0605
12428TIP3    H258776   6.045   0.478   4.567  0.0498  0.9307  0.0265
12429TIP3   OH258777   3.030   6.735  10.347  0.3623 -0.4835  0.1002
12429TIP3    H158778   2.954   6.753  10.402 -0.8664 -2.9634 -0.6237
12429TIP3    H258779   3.097   6.705  10.408 -0.2354 -1.0717  0.4873
12430TIP3   OH258780   5.571   5.404  13.934 -0.2779 -0.1882 -0.2843
12430TIP3    H158781   5.561   5.446  14.019 -1.4032  0.8017 -0.8683
12430TIP3    H258782   5.647   5.347  13.944 -0.8006 -0.6392  1.5919
12431TIP3   OH258783   2.192   6.171   6.382  0.4843 -0.0223 -0.3166
12431TIP3    H158784   2.146   6.087   6.381  1.7310 -0.7423  0.3779
12431TIP3    H258785   2.270   6.157   6.328  1.1863  0.3851  0.5641
12432TIP3   OH258786   1.322   1.148  13.018  0.2592 -0.4731 -0.6122
12432TIP3    H158787   1.408   1.174  12.987  0.1632 -0.3037 -0.7357
12432TIP3    H258788   1.322   1.169  13.111  0.3887 -0.5702 -0.5907
12433TIP3   OH258789   6.810   4.467   6.430  0.6129 -0.2370 -1.0601
12433TIP3    H158790   6.730   4.417   6.444  0.8496 -0.6138 -0.9992
12433TIP3    H258791   6.829   4.458   6.337 -0.0957  0.9173 -1.3200
12434TIP3   OH258792   6.295   5.029   4.053  0.1602  0.2312  0.6549
12434TIP3    H158793   6.350   5.018   3.976 -0.9522  0.1682 -0.1417
12434TIP3    H258794   6.314   4.952   4.107  0.9030  0.2492  0.4376
12435TIP3   OH258795   5.305   6.519   1.660 -0.4784  0.0068  0.4788
12435TIP3    H158796   5.262   6.440   1.629 -0.4167 -1.6551  4.0692
12435TIP3    H258797   5.248   6.591   1.632 -2.2075 -1.5819 -0.2642
12436TIP3   OH258798   2.529   1.193  15.325 -0.4182  0.5283  0.0062
12436TIP3    H158799   2.496   1.105  15.307 -0.2908  0.4518  0.1482
12436TIP3    H258800   2.610   1.198  15.273 -0.4877  0.6044 -0.0950
12437TIP3   OH258801   3.399   2.913   0.971  0.3014 -0.2682  0.2336
12437TIP3    H158802   3.337   2.984   0.990 -1.2628 -1.0539 -1.5984
12437TIP3    H258803   3.384   2.849   1.040 -0.1430  0.0387  0.4268
12438TIP3   OH258804   3.704   6.682   2.704  0.2151  0.0119 -0.4371
12438TIP3    H158805   3.760   6.756   2.677  0.9955 -0.9683 -1.6376
12438TIP3    H258806   3.615   6.714   2.689  0.5640  0.3518 -2.0347
12439TIP3   OH258807   0.464   1.558  16.843 -0.5986 -0.3376  0.0632
12439TIP3    H158808   0.473   1.643  16.800  1.4494 -1.0892 -1.0984
12439TIP3    H258809   0.388   1.518  16.800 -0.0401 -0.0914 -1.1984
12440TIP3   OH258810   1.188   0.605   0.339 -0.3492  0.3156 -0.5713
12440TIP3    H158811   1.282   0.619   0.348 -0.3875  1.3880 -1.6363
12440TIP3    H258812   1.149   0.689   0.363 -0.9042  0.5237 -2.0924
12441TIP3   OH258813   4.033   3.156   6.302 -0.1320  0.5842  0.9066
12441TIP3    H158814   4.021   3.069   6.340  0.8970  0.6927  1.5191
12441TIP3    H258815   3.986   3.215   6.361  0.0944  0.5683  1.1031
12442TIP3   OH258816   4.181   1.660   4.820  0.1651 -0.1417  0.1289
12442TIP3    H158817   4.190   1.712   4.900 -0.9373 -0.1029  0.2398
12442TIP3    H258818   4.237   1.704   4.757  1.1713 -0.2592  0.9082
12443TIP3   OH258819   1.057   2.813   5.142  0.2295 -0.3463  0.6404
12443TIP3    H158820   1.025   2.903   5.141  0.8597 -0.1074  1.2452
12443TIP3    H258821   0.980   2.760   5.162  0.0968  0.1674  1.5101
12444TIP3   OH258822   0.666   6.011  13.356 -0.3798  0.3594  0.3113
12444TIP3    H158823   0.621   6.085  13.397 -0.4154  0.3006  0.3784
12444TIP3    H258824   0.758   6.022  13.381 -0.5414 -0.1984  1.1939
12445TIP3   OH258825   5.262   3.104  12.495 -0.3131  0.0114  0.1642
12445TIP3    H158826   5.294   3.043  12.428 -0.4209 -0.1064  0.2198
12445TIP3    H258827   5.335   3.113  12.556 -0.9693 -1.6467  1.2703
12446TIP3   OH258828   0.628   6.493   6.012  0.3727  0.2272 -0.6831
12446TIP3    H158829   0.686   6.430   5.971  2.5035  0.6774  1.3899
12446TIP3    H258830   0.683   6.538   6.076 -2.2300  0.8190  1.3274
12447TIP3   OH258831   6.411   1.438  11.670 -0.0297  0.2222 -0.0740
12447TIP3    H158832   6.494   1.438  11.622 -0.1667  1.9027 -0.3688
12447TIP3    H258833   6.424   1.375  11.740  0.6601 -1.3021 -1.5028
12448TIP3   OH258834   2.457   1.215   0.409  0.2960 -0.6861 -0.3446
12448TIP3    H158835   2.534   1.238   0.460  0.7834  1.4034 -1.8517
12448TIP3    H258836   2.477   1.129   0.373  0.7786 -1.3131  1.3505
12449TIP3   OH258837   4.225   1.224  14.977  0.0187 -0.5638  0.0570
12449TIP3    H158838   4.241   1.158  15.044  1.0176 -0.3445  0.0430
12449TIP3    H258839   4.295   1.212  14.914 -0.5410 -0.3368 -0.6239
12450TIP3   OH258840   4.801   4.679   4.836  0.1773 -0.7899  0.2090
12450TIP3    H158841   4.799   4.602   4.779 -2.5048 -1.7575  1.4327
12450TIP3    H258842   4.834   4.646   4.919 -0.5549 -0.5213  0.6094
12451TIP3   OH258843   3.781   2.639   3.661 -0.1587  0.7174  0.4516
12451TIP3    H158844   3.822   2.580   3.598 -1.3112  2.5208 -2.1660
12451TIP3    H258845   3.775   2.723   3.615 -2.1925  1.8349  2.5378
12452TIP3   OH258846   5.552   4.866  14.762 -0.0023  0.5965 -0.5289
12452TIP3    H158847   5.503   4.787  14.741 -0.1019  0.6497 -0.4971
12452TIP3    H258848   5.641   4.835  14.778 -0.6109  0.0490  2.4233
12453TIP3   OH258849   3.087   2.476   1.011 -0.1465 -0.3583  0.2819
12453TIP3    H158850   3.149   2.501   0.942 -0.7281  1.8505  0.4815
12453TIP3    H258851   3.103   2.539   1.081 -1.0336 -1.2383  1.3029
12454TIP3   OH258852   2.517   1.798  16.907 -0.2042 -0.6078 -0.4305
12454TIP3    H158853   2.560   1.802  16.822  0.9362  0.7207  0.1624
12454TIP3    H258854   2.571   1.853  16.964 -1.5183 -0.6112  0.8943
12455TIP3   OH258855   0.069   1.887  15.336 -0.0335 -0.1851  0.1787
12455TIP3    H158856   0.069   1.803  15.381 -1.9143 -0.2355  0.1540
12455TIP3    H258857   0.070   1.952  15.407  1.0045 -0.2049  0.2009
12456TIP3   OH258858   6.130   3.132   1.601 -0.6536  0.2835 -0.4884
12456TIP3    H158859   6.087   3.081   1.670  0.6414  0.7492  0.7376
12456TIP3    H258860   6.070   3.204   1.583 -1.7550 -0.7421 -1.0542
12457TIP3   OH258861   6.322   6.566  12.773  0.3964  0.3691 -0.5049
12457TIP3    H158862   6.228   6.556  12.784  0.2168  0.6200 -1.7136
12457TIP3    H258863   6.332   6.647  12.723  1.4002  1.8341  1.8953
12458TIP3   OH258864   4.811   4.566   5.145  0.0628 -0.0612 -0.6373
12458TIP3    H158865   4.891   4.617   5.145  0.9269 -1.3621 -0.1159
12458TIP3    H258866   4.811   4.519   5.228 -2.5860  1.8651  0.5889
12459TIP3   OH258867   5.705   5.904  15.693 -0.2118 -0.5758 -0.1332
12459TIP3    H158868   5.797   5.883  15.708  0.1104 -0.8426 -2.2117
12459TIP3    H258869   5.669   5.827  15.650 -1.2808 -0.2659  0.1710
12460TIP3   OH258870   2.717   5.354  14.908 -0.0565  0.3310  0.3430
12460TIP3    H158871   2.766   5.405  14.972  1.2229  2.6490 -2.3107
12460TIP3    H258872   2.782   5.296  14.869  0.3893  2.4087 -2.1946
12461TIP3   OH258873   3.565   2.077   6.086 -0.1267  0.4110  0.3015
12461TIP3    H158874   3.477   2.040   6.095  0.0280 -0.5485 -1.6405
12461TIP3    H258875   3.589   2.059   5.995  1.8351  1.2241  0.6216
12462TIP3   OH258876   5.408   5.700  15.373  0.3903 -0.2324  0.7633
12462TIP3    H158877   5.421   5.641  15.299 -0.1012 -0.5378  0.9169
12462TIP3    H258878   5.388   5.785  15.333 -0.5212 -0.5398  0.5405
12463TIP3   OH258879   6.211   0.154  14.022 -0.1012  0.4165  0.5083
12463TIP3    H158880   6.268   0.224  13.988  0.2950  1.0351  2.3281
12463TIP3    H258881   6.129   0.164  13.972  1.3555 -0.6017 -2.2860
12464TIP3   OH258882   4.037   0.896   6.727  0.8593 -0.5780  0.7829
12464TIP3    H158883   4.075   0.977   6.693  0.6522 -0.1237  1.6058
12464TIP3    H258884   3.943   0.912   6.727  0.6306 -1.5868 -0.9620
12465TIP3   OH258885   1.895   3.720  10.957 -0.0129 -0.0053  0.5326
12465TIP3    H158886   1.875   3.781  10.887 -0.3686  0.1905  0.8034
12465TIP3    H258887   1.981   3.748  10.990  0.2205 -0.1907  0.0792
12466TIP3   OH258888   6.472   4.292  16.110  0.9126 -0.0684 -0.1330
12466TIP3    H158889   6.434   4.204  16.110  2.7898 -0.9204  0.0789
12466TIP3    H258890   6.399   4.349  16.134 -0.1539 -1.6599  0.6026
12467TIP3   OH258891   2.367   0.352  14.369 -0.6467 -0.1794  0.5353
12467TIP3    H158892   2.288   0.302  14.392 -1.1327  0.3769  0.1194
12467TIP3    H258893   2.395   0.313  14.286 -0.6306 -0.2179  0.5593
12468TIP3   OH258894   4.776   2.359   0.557 -0.0707  0.4247  0.0874
12468TIP3    H158895   4.715   2.285   0.560  0.1766  0.2030 -0.2338
12468TIP3    H258896   4.848   2.333   0.615 -0.3636  0.7633  0.6067
12469TIP3   OH258897   3.710   3.996   2.459  0.3402 -0.1801 -0.1215
12469TIP3    H158898   3.621   3.963   2.471  0.5785 -0.8483 -0.1549
12469TIP3    H258899   3.765   3.918   2.465  0.7735 -0.0573 -1.9905
12470TIP3   OH258900   6.038   6.117  15.476 -0.7524 -0.2101 -0.1819
12470TIP3    H158901   6.124   6.077  15.488 -0.4048 -0.0723 -1.9021
12470TIP3    H258902   6.008   6.138  15.564  0.9933 -0.2079  0.4429
12471TIP3   OH258903   4.733   6.228   3.128  0.0734  0.1102  0.4314
12471TIP3    H158904   4.683   6.148   3.143  1.6034 -1.0858 -0.5222
12471TIP3    H258905   4.705   6.287   3.198 -4.3394  0.4209 -1.2896
12472TIP3   OH258906   4.317   5.809  14.543 -0.0781 -0.2447 -0.1667
12472TIP3    H158907   4.260   5.747  14.587  1.4623  0.3339  2.9173
12472TIP3    H258908   4.406   5.783  14.568  0.8701  0.8350 -2.1126
12473TIP3   OH258909   6.550   1.586  16.800  0.1429 -0.1653 -0.1417
12473TIP3    H158910   6.639   1.621  16.808 -0.5089  1.4045  1.0950
12473TIP3    H258911   6.533   1.547  16.886 -1.3450  2.2783  0.8042
12474TIP3   OH258912   4.314   0.394  12.953 -0.3908 -0.7537  0.2007
12474TIP3    H158913   4.299   0.326  12.887  0.6089 -1.1344  0.3433
12474TIP3    H258914   4.376   0.454  12.911  0.7369 -1.3255  0.9811
12475TIP3   OH258915   1.305   3.011  12.457 -0.0332 -0.0272  0.9554
12475TIP3    H158916   1.225   2.983  12.413 -0.6637 -0.2746  2.2195
12475TIP3    H258917   1.376   2.971  12.405 -0.7059  0.2811 -0.2326
12476TIP3   OH258918   3.376   0.960   2.065 -0.1332 -0.1678  0.3453
12476TIP3    H158919   3.302   0.991   2.117  0.5525 -1.4246  2.1686
12476TIP3    H258920   3.452   0.974   2.121  1.1159  1.2860 -1.5619
12477TIP3   OH258921   3.527   6.723   5.194  0.0840 -0.1432  0.6828
12477TIP3    H158922   3.478   6.794   5.153  1.0852  0.3874  0.3708
12477TIP3    H258923   3.461   6.657   5.215 -0.7429  0.5116  0.1953
12478TIP3   OH258924   2.155   5.651  13.688 -0.1212  0.2334 -0.1891
12478TIP3    H158925   2.138   5.743  13.669  1.7100  2.1254  5.4629
12478TIP3    H258926   2.093   5.627  13.757  0.5655 -2.2507 -0.3077
12479TIP3   OH258927   4.664   2.020  14.398 -0.1254  0.0996 -0.7548
12479TIP3    H158928   4.677   1.929  14.424  2.8490  0.0368 -2.1475
12479TIP3    H258929   4.586   2.018  14.343  0.6383 -1.8666 -1.8640
12480TIP3   OH258930   2.433   2.848  11.288  0.2066  0.2115 -0.6879
12480TIP3    H158931   2.385   2.869  11.208  0.8711 -0.5156 -1.2986
12480TIP3    H258932   2.525   2.863  11.265  0.3822  0.3063  0.0457
12481TIP3   OH258933   2.750   2.862   0.580 -0.2503 -0.3144 -0.0474
12481TIP3    H158934   2.706   2.877   0.663  0.8421  0.1758  0.4596
12481TIP3    H258935   2.698   2.909   0.516 -1.3130 -0.9994  0.2901
12482TIP3   OH258936   6.252   0.367  15.586  0.6288  0.0174  0.5686
12482TIP3    H158937   6.300   0.440  15.626  0.8049 -0.5600  1.4185
12482TIP3    H258938   6.160   0.395  15.588  0.8701  1.0978 -1.0013
12483TIP3   OH258939   1.088   4.326  13.194 -0.4573  0.1850  0.4969
12483TIP3    H158940   1.098   4.284  13.279  0.1731  1.0219  0.8560
12483TIP3    H258941   1.136   4.408  13.202  0.1354  0.0132 -0.8591
12484TIP3   OH258942   0.695   3.761  14.759 -0.1170  0.2392 -0.4463
12484TIP3    H158943   0.748   3.685  14.733  0.0479  0.7572 -1.6840
12484TIP3    H258944   0.728   3.833  14.705  0.8433  1.6318  1.8388
12485TIP3   OH258945   0.185   0.283  15.929  0.0714  0.9367 -0.3739
12485TIP3    H158946   0.178   0.200  15.884 -2.7839  0.4720  0.6940
12485TIP3    H258947   0.243   0.336  15.874  1.9932 -1.6699 -1.0764
12486TIP3   OH258948   3.716   6.733  17.025  0.1922  0.0257 -0.4227
12486TIP3    H158949   3.770   6.683  17.087  1.6005 -1.0315 -2.4036
12486TIP3    H258950   3.768   6.736  16.945 -0.3367  3.7483 -0.7826
12487TIP3   OH258951   0.214   6.455  14.713  0.1148  0.5934 -0.3668
12487TIP3    H158952   0.145   6.426  14.772  0.1374 -0.8751 -1.0156
12487TIP3    H258953   0.212   6.551  14.719 -0.8682  0.5239  0.8594
12488TIP3   OH258954   4.117   5.393   1.760  0.2309  0.3308 -0.3806
12488TIP3    H158955   4.194   5.439   1.796  0.3660  1.5874 -2.1217
12488TIP3    H258956   4.128   5.400   1.665 -1.0702 -1.1713 -0.6709
12489TIP3   OH258957   4.415   4.758  16.073  0.5914 -0.2042  0.0113
12489TIP3    H158958   4.443   4.835  16.123 -0.2457  0.8331 -1.0395
12489TIP3    H258959   4.471   4.687  16.103 -0.9052 -0.0549  3.5691
12490TIP3   OH258960   2.221   5.514   4.463  0.0604 -0.5054 -0.2725
12490TIP3    H158961   2.259   5.584   4.411  0.2476  0.0564  0.5944
12490TIP3    H258962   2.136   5.548   4.491  0.1267 -0.6366  0.0985
12491TIP3   OH258963   6.345   5.964  12.378  0.0834  0.1484 -0.1521
12491TIP3    H158964   6.267   5.919  12.409 -0.3797  0.8666 -0.2389
12491TIP3    H258965   6.416   5.902  12.392 -0.5132 -0.5381 -0.1359
12492TIP3   OH258966   4.279   3.566  14.444  0.2437 -0.1543  0.2726
12492TIP3    H158967   4.340   3.540  14.375  0.3054  0.4448  0.1010
12492TIP3    H258968   4.316   3.527  14.524 -0.6678 -2.2185 -0.2335
12493TIP3   OH258969   1.729   2.648  17.044 -0.2946 -0.1331 -0.1295
12493TIP3    H158970   1.642   2.675  17.015 -0.1032 -0.1636 -0.7578
12493TIP3    H258971   1.714   2.568  17.094 -0.7310  0.4248  0.6417
12494TIP3   OH258972   6.257   4.779  10.763  0.1011  0.2415 -0.2099
12494TIP3    H158973   6.186   4.760  10.701  0.5500  0.3667 -0.7725
12494TIP3    H258974   6.214   4.828  10.833 -0.4778 -0.1731 -0.2624
12495TIP3   OH258975   2.122   5.797   5.348  0.1040  0.6533  0.2715
12495TIP3    H158976   2.205   5.792   5.301  0.0428  1.0726  0.1126
12495TIP3    H258977   2.129   5.729   5.415  0.4307  0.4471  0.0361
12496TIP3   OH258978   6.365   1.222  15.794  0.1492 -0.5222 -0.6989
12496TIP3    H158979   6.317   1.298  15.827  1.6418  0.3511 -0.4431
12496TIP3    H258980   6.352   1.225  15.699  2.6696  1.9389 -1.0935
12497TIP3   OH258981   1.084   1.383  11.146 -0.6369 -0.2370 -0.3996
12497TIP3    H158982   1.062   1.383  11.052 -1.1279 -1.0316 -0.2947
12497TIP3    H258983   1.039   1.306  11.181 -0.6350  0.1736  0.5357
12498TIP3   OH258984   4.645   1.307  17.034 -0.3238 -0.1139 -0.9542
12498TIP3    H158985   4.629   1.398  17.007 -1.0020 -0.3745 -1.4394
12498TIP3    H258986   4.663   1.260  16.953 -0.5761 -0.5396 -0.7662
12499TIP3   OH258987   2.285   1.742  13.778 -0.0403 -0.0300  0.7779
12499TIP3    H158988   2.190   1.733  13.767 -0.0824 -0.6288  1.6059
12499TIP3    H258989   2.313   1.789  13.699 -0.5766 -2.6258 -1.0973
12500TIP3   OH258990   6.633   4.972   4.184  0.3273 -0.2641  0.0282
12500TIP3    H158991   6.636   5.058   4.143  0.6859  0.6077  1.8126
12500TIP3    H258992   6.724   4.951   4.204  0.0519  0.1081  1.8620
12501TIP3   OH258993   3.738   1.350   5.898 -0.0886  0.0740  0.0069
12501TIP3    H158994   3.705   1.306   5.820 -1.0504  1.2439 -0.2767
12501TIP3    H258995   3.675   1.329   5.967 -0.0597  0.2638  0.0927
12502TIP3   OH258996   5.553   1.192  16.202  0.6157 -0.5331  0.4555
12502TIP3    H158997   5.639   1.219  16.169 -0.5080 -0.5029 -2.8646
12502TIP3    H258998   5.558   1.096  16.203  0.2725 -0.6030 -1.2480
12503TIP3   OH258999   5.543   3.671  16.028 -0.1099  0.1619 -0.8645
12503TIP3    H159000   5.509   3.759  16.047  1.1780  0.8278 -1.5314
12503TIP3    H259001   5.628   3.669  16.072 -0.1069 -0.7438 -0.9030
12504TIP3   OH259002   5.027   4.725  16.929 -0.5380  0.0218  0.7229
12504TIP3    H159003   5.076   4.773  16.864 -1.9966 -0.5836 -0.8977
12504TIP3    H259004   5.030   4.780  17.008 -0.6069  1.8463 -0.5034
12505TIP3   OH259005   2.609   4.872  12.441 -0.5151  0.2361 -0.2869
12505TIP3    H159006   2.639   4.818  12.368  1.8693  1.6191 -0.4428
12505TIP3    H259007   2.656   4.839  12.517 -0.0489  1.2089 -0.1350
12506TIP3   OH259008   1.524   5.966  16.124 -0.7004  0.3913  0.0077
12506TIP3    H159009   1.588   5.918  16.177 -2.1838 -1.4001  0.2341
12506TIP3    H259010   1.471   6.013  16.188 -1.1688 -0.1011 -0.0168
12507TIP3   OH259011   1.823   5.344   0.581 -0.0898  0.1090 -0.4120
12507TIP3    H159012   1.785   5.385   0.659  0.5408  0.6399 -0.3783
12507TIP3    H259013   1.912   5.379   0.576 -0.2164  0.3123 -1.5357
12508TIP3   OH259014   1.076   5.391  13.398 -0.5822  0.7203  0.2386
12508TIP3    H159015   1.042   5.473  13.435 -0.8905  0.0413  1.5084
12508TIP3    H259016   1.165   5.412  13.371 -0.5434  1.3884  0.8571
12509TIP3   OH259017   3.759   1.535   0.736 -0.2048 -0.2509 -0.0821
12509TIP3    H159018   3.702   1.549   0.812 -0.9498 -1.9009 -0.2886
12509TIP3    H259019   3.844   1.511   0.773 -0.2799 -0.0216  0.2350
12510TIP3   OH259020   2.423   6.157   1.732  0.2931 -0.8158  0.1332
12510TIP3    H159021   2.393   6.169   1.642 -0.4959 -0.7390  0.4006
12510TIP3    H259022   2.470   6.238   1.753 -1.5949  0.2055  0.5942
12511TIP3   OH259023   0.541   4.605   5.700  0.2171 -0.5468  0.3836
12511TIP3    H159024   0.569   4.667   5.766 -0.8888  0.7719 -0.3245
12511TIP3    H259025   0.620   4.556   5.677  0.7894 -0.4395  2.0237
12512TIP3   OH259026   0.588   0.191  12.425 -0.5536  0.3327  0.1735
12512TIP3    H159027   0.608   0.266  12.480 -1.5936  1.5101 -0.9928
12512TIP3    H259028   0.557   0.124  12.486 -1.2974  1.4710  1.0755
12513TIP3   OH259029   2.078   4.619  15.273 -0.4773  0.0580  0.1051
12513TIP3    H159030   2.013   4.667  15.325  0.1208  3.3584 -1.8797
12513TIP3    H259031   2.026   4.572  15.208 -1.0695  2.7872 -1.5631
12514TIP3   OH259032   3.757   3.377   4.192 -0.0620  0.1895 -0.2107
12514TIP3    H159033   3.811   3.301   4.169  0.9731  1.1457 -1.0321
12514TIP3    H259034   3.677   3.366   4.141  0.2457 -0.1461 -0.6272
12515TIP3   OH259035   3.305   0.921  15.504 -0.5784 -0.5484 -0.6924
12515TIP3    H159036   3.336   0.845  15.455  0.8144  0.0315 -0.7611
12515TIP3    H259037   3.255   0.885  15.577 -0.8861 -1.4865 -1.3540
12516TIP3   OH259038   0.634   4.912  10.838  0.1405  0.9029  0.1448
12516TIP3    H159039   0.666   4.853  10.770  1.5464 -0.0845  1.5986
12516TIP3    H259040   0.582   4.856  10.895 -1.6826  1.8780 -0.4662
12517TIP3   OH259041   3.422   4.649   4.049  0.7248  0.1088 -0.2175
12517TIP3    H159042   3.475   4.720   4.014  0.0539  0.6029 -0.2398
12517TIP3    H259043   3.414   4.587   3.977  2.8335 -0.9057  0.3294
12518TIP3   OH259044   4.871   6.047  12.633  0.0210  0.1869  0.1011
12518TIP3    H159045   4.829   6.015  12.713 -1.1079  3.5302  0.9792
12518TIP3    H259046   4.799   6.067  12.574  0.7748 -0.5717 -1.1195
12519TIP3   OH259047   5.939   5.169   4.871 -0.0382  0.6090  0.1076
12519TIP3    H159048   5.912   5.251   4.828 -1.2559  0.4455  0.5423
12519TIP3    H259049   6.006   5.133   4.812 -0.8250  0.9824 -1.0581
12520TIP3   OH259050   6.050   2.399  12.713  0.5457  0.9078  0.5387
12520TIP3    H159051   6.106   2.471  12.684 -0.2156  2.5446  2.7970
12520TIP3    H259052   6.061   2.331  12.647  3.1520  2.1630 -0.4438
12521TIP3   OH259053   5.038   6.497   2.539  0.8729 -0.0057 -0.0406
12521TIP3    H159054   5.003   6.473   2.625  1.6750  1.0695  0.6204
12521TIP3    H259055   4.964   6.487   2.479  0.5222 -1.5754  0.6128
12522TIP3   OH259056   5.103   1.435   3.379  0.3580 -0.2292  0.1751
12522TIP3    H159057   5.087   1.346   3.347 -1.3232  0.0988 -0.0119
12522TIP3    H259058   5.172   1.425   3.443 -0.8620 -1.9556  1.3255
12523TIP3   OH259059   5.659   4.788   2.812  0.0127  0.2312  0.0210
12523TIP3    H159060   5.704   4.782   2.897  2.2679  3.4554 -0.7418
12523TIP3    H259061   5.573   4.825   2.833 -0.0228 -0.3735  1.0075
12524TIP3   OH259062   1.242   6.258   1.852 -0.1070 -0.1053 -0.4532
12524TIP3    H159063   1.333   6.262   1.882 -0.2111 -0.8917  0.0017
12524TIP3    H259064   1.200   6.334   1.893 -0.2581 -1.1765  1.5445
12525TIP3   OH259065   2.033   4.893  13.529 -0.5560  0.2318  0.1648
12525TIP3    H159066   1.980   4.970  13.546  0.6009  0.7509  1.6536
12525TIP3    H259067   2.112   4.927  13.486 -1.0078 -0.4165 -1.2269
12526TIP3   OH259068   2.184   5.252  16.526  0.3031 -0.5035  0.0013
12526TIP3    H159069   2.279   5.258  16.540  0.0930  2.5326  0.8739
12526TIP3    H259070   2.170   5.291  16.440 -0.0878 -1.9538 -0.6096
12527TIP3   OH259071   6.610   2.245   0.397  0.3038  0.5880 -0.5454
12527TIP3    H159072   6.561   2.327   0.391  0.6539  0.7731 -0.9064
12527TIP3    H259073   6.576   2.203   0.476  0.4230  1.2786 -0.1209
12528TIP3   OH259074   5.362   4.163  11.612  0.3058  0.5966 -0.1013
12528TIP3    H159075   5.301   4.151  11.685  0.9488  2.1286  0.7455
12528TIP3    H259076   5.438   4.110  11.634 -0.5956 -1.2141 -1.0950
12529TIP3   OH259077   0.164   5.914   1.643 -0.0192 -0.4064 -0.8274
12529TIP3    H159078   0.135   6.003   1.627 -1.9778 -1.0330 -1.0994
12529TIP3    H259079   0.162   5.904   1.738 -2.8082 -1.0038 -0.8700
12530TIP3   OH259080   4.004   4.894   4.323  0.6089  0.1124 -0.0407
12530TIP3    H159081   4.092   4.899   4.360  0.6985 -0.4908 -0.1556
12530TIP3    H259082   3.995   4.802   4.295 -0.0096  0.1974 -0.1368
12531TIP3   OH259083   1.613   5.264   0.404 -0.5604  0.7102 -0.2954
12531TIP3    H159084   1.656   5.247   0.320 -0.9364 -1.7847 -0.0457
12531TIP3    H259085   1.686   5.281   0.464  0.0762 -1.9264 -0.2163
12532TIP3   OH259086   6.747   5.859  14.306  0.1723 -0.0552  0.0945
12532TIP3    H159087   6.707   5.863  14.393  0.0433 -0.7944  0.0731
12532TIP3    H259088   6.841   5.846  14.323  0.2206  0.3252  0.1272
12533TIP3   OH259089   3.365   5.921  16.368 -0.5330 -0.2838 -0.0103
12533TIP3    H159090   3.427   5.992  16.348 -0.6818 -0.3925 -0.8980
12533TIP3    H259091   3.390   5.850  16.310 -0.5832 -0.8611  0.6607
12534TIP3   OH259092   2.737   1.799   4.904 -0.1072 -0.3992 -0.0265
12534TIP3    H159093   2.758   1.861   4.835  1.4211 -0.6341  0.2015
12534TIP3    H259094   2.821   1.779   4.945 -0.7340 -1.6605  0.7062
12535TIP3   OH259095   6.274   0.831   0.640  0.0435  0.1866 -0.3956
12535TIP3    H159096   6.357   0.878   0.652  0.8645 -1.3335  0.1985
12535TIP3    H259097   6.284   0.788   0.555 -0.4521  0.5771 -0.6569
12536TIP3   OH259098   0.523   0.658  15.661  0.6423  0.0952  0.2698
12536TIP3    H159099   0.442   0.662  15.712 -0.3193  0.0739 -1.1938
12536TIP3    H259100   0.514   0.726  15.596  1.8117  0.0701  0.0596
12537TIP3   OH259101   5.806   0.565  15.726  0.6195  0.4385 -0.3289
12537TIP3    H159102   5.738   0.499  15.741  1.8191 -0.1801  3.9858
12537TIP3    H259103   5.760   0.648  15.735 -0.2195  0.1708 -1.7962
12538TIP3   OH259104   0.064   1.475   2.546 -0.3027 -0.3011  0.1923
12538TIP3    H159105   0.108   1.558   2.566 -2.0524  0.6664  0.2284
12538TIP3    H259106   0.033   1.443   2.630  0.3519 -1.0079  0.1741
12539TIP3   OH259107   4.812   2.981  15.206  0.5214  0.4102 -0.1247
12539TIP3    H159108   4.752   2.912  15.179  1.3491 -0.4488  0.1605
12539TIP3    H259109   4.756   3.048  15.245 -0.2882 -0.1600 -0.2759
12540TIP3   OH259110   2.090   3.268   6.192 -0.1593  0.5634 -0.7290
12540TIP3    H159111   2.157   3.334   6.208 -0.9786  1.0934  0.6505
12540TIP3    H259112   2.007   3.315   6.200 -0.7516 -0.5150 -0.2956
12541TIP3   OH259113   3.544   4.283  11.680  0.8241  0.4282  0.0766
12541TIP3    H159114   3.525   4.250  11.592 -1.0885 -0.7811  0.8684
12541TIP3    H259115   3.499   4.367  11.684  0.2669  0.1398  0.1081
12542TIP3   OH259116   3.544   4.195  11.417 -0.0953  0.7531  0.3408
12542TIP3    H159117   3.482   4.124  11.428  0.4474  0.5564  2.7219
12542TIP3    H259118   3.510   4.246  11.343 -2.1564 -0.2555  0.5330
12543TIP3   OH259119   1.388   4.292  14.668  0.0714  0.6419  0.0195
12543TIP3    H159120   1.411   4.343  14.746 -2.0620  0.4315  0.8537
12543TIP3    H259121   1.438   4.211  14.677 -0.2914  0.5339  1.3132
12544TIP3   OH259122   0.370   0.319   2.893 -0.6562 -0.6217  0.5837
12544TIP3    H159123   0.369   0.227   2.865 -2.8560 -0.9258  1.4326
12544TIP3    H259124   0.356   0.314   2.988 -0.6519  0.5777  0.6529
12545TIP3   OH259125   4.999   5.078  14.043 -0.3772  0.2468  0.1338
12545TIP3    H159126   5.071   5.129  14.007 -0.0233 -0.9277 -0.9148
12545TIP3    H259127   5.040   4.998  14.076 -1.0001  0.2886  1.0499
12546TIP3   OH259128   1.270   3.342   4.891  0.0582  0.0553 -0.2708
12546TIP3    H159129   1.212   3.275   4.855  0.7189 -0.8892  0.3512
12546TIP3    H259130   1.338   3.353   4.824  0.0703 -0.0661 -0.2795
12547TIP3   OH259131   0.529   2.184  15.306  0.3503 -0.5290 -0.2473
12547TIP3    H159132   0.472   2.130  15.361  1.1722 -1.3081 -0.1292
12547TIP3    H259133   0.586   2.230  15.368  0.5840 -0.6070 -0.4019
12548TIP3   OH259134   2.779   6.121   4.460 -0.4371 -0.9105  0.8626
12548TIP3    H159135   2.845   6.190   4.461 -1.9236  0.6467 -0.7737
12548TIP3    H259136   2.797   6.069   4.538  2.3362 -0.2369  0.7636
12549TIP3   OH259137   0.618   3.306   5.505 -0.2198 -0.1643  0.2448
12549TIP3    H159138   0.554   3.296   5.576 -0.8329  0.9634 -0.1175
12549TIP3    H259139   0.703   3.296   5.548 -0.6085 -1.6555  0.7427
12550TIP3   OH259140   1.567   6.505  16.155 -0.4663 -0.2750 -0.4920
12550TIP3    H159141   1.487   6.474  16.112 -1.7240 -0.1456  1.6345
12550TIP3    H259142   1.549   6.597  16.174  0.1114 -0.2920  0.1752
12551TIP3   OH259143   2.390   2.624  14.478 -0.1305  0.7917 -0.2991
12551TIP3    H159144   2.347   2.676  14.546  1.6141 -0.7211  2.1030
12551TIP3    H259145   2.481   2.620  14.505  0.2983 -1.3148 -1.8255
12552TIP3   OH259146   4.205   6.482  15.675  0.6970 -0.4935  0.5120
12552TIP3    H159147   4.295   6.450  15.664  1.5475  1.3834  1.5310
12552TIP3    H259148   4.183   6.457  15.765  0.8563  0.5188  0.8413
12553TIP3   OH259149   6.770   1.327   2.708  0.0536 -0.0914  0.5299
12553TIP3    H159150   6.694   1.377   2.678 -0.8831  0.4006  3.3699
12553TIP3    H259151   6.734   1.244   2.739  0.8163 -0.2930  0.9060
12554TIP3   OH259152   3.813   1.471  13.919 -0.2777  0.4533 -0.1096
12554TIP3    H159153   3.859   1.391  13.894 -0.5483  0.5222 -0.8734
12554TIP3    H259154   3.815   1.526  13.840 -0.9078  0.8107  0.1078
12555TIP3   OH259155   1.981   5.242  14.563 -0.1928 -0.0114 -0.3171
12555TIP3    H159156   2.048   5.306  14.587 -0.9233  1.2369 -1.4834
12555TIP3    H259157   1.940   5.217  14.646  0.9492  0.0520  0.2853
12556TIP3   OH259158   5.003   0.834  14.788 -0.1895  0.2489  0.0667
12556TIP3    H159159   4.914   0.822  14.823  0.3014  0.4316  1.4295
12556TIP3    H259160   5.028   0.922  14.816  0.5120  0.1150 -0.1256
12557TIP3   OH259161   1.073   3.017  12.902 -0.3881 -0.4271 -0.1735
12557TIP3    H159162   1.001   3.080  12.895  0.4074  0.5595  0.3231
12557TIP3    H259163   1.052   2.949  12.837 -0.6018  1.0093 -1.6663
12558TIP3   OH259164   1.134   3.452  11.942 -0.4079  0.0878  0.6527
12558TIP3    H159165   1.100   3.515  12.006  1.3113  0.9626  0.7530
12558TIP3    H259166   1.177   3.506  11.876 -1.6073 -0.8464 -0.9515
12559TIP3   OH259167   6.513   3.499  12.276  0.0329  0.1456  0.6308
12559TIP3    H159168   6.490   3.408  12.257 -1.0496  0.7482 -1.2426
12559TIP3    H259169   6.429   3.545  12.282  0.5825  1.3350 -0.2678
12560TIP3   OH259170   1.419   1.088   4.082 -0.1740 -0.1548 -0.6382
12560TIP3    H159171   1.480   1.121   4.148 -0.6880  0.1786 -0.3220
12560TIP3    H259172   1.433   1.145   4.006 -0.8823  0.6574 -0.1796
12561TIP3   OH259173   4.369   2.777   5.640  0.1908  0.1331 -0.1009
12561TIP3    H159174   4.310   2.791   5.714 -0.1371  0.3399 -0.3952
12561TIP3    H259175   4.411   2.862   5.627  1.4127 -0.3108  0.8273
12562TIP3   OH259176   6.489   0.765   2.171  0.8243 -0.1972 -0.0858
12562TIP3    H159177   6.480   0.855   2.202 -0.9828 -0.2460 -0.4011
12562TIP3    H259178   6.584   0.753   2.160  1.1287  1.4641  0.5131
12563TIP3   OH259179   3.136   1.587   4.901  0.2193  0.0693 -0.3345
12563TIP3    H159180   3.154   1.613   4.810 -1.5183  3.5264  0.1496
12563TIP3    H259181   3.047   1.618   4.917  0.0843 -1.3930  2.2865
12564TIP3   OH259182   1.512   2.671  16.365 -0.3184 -0.0253 -0.3332
12564TIP3    H159183   1.526   2.577  16.358 -0.6980 -0.1619  0.5237
12564TIP3    H259184   1.544   2.693  16.452  0.2280  0.7363 -0.7179
12565TIP3   OH259185   1.412   0.970   4.467 -0.2620  0.3631 -0.5489
12565TIP3    H159186   1.420   1.052   4.516 -1.4616  2.2162 -3.2618
12565TIP3    H259187   1.486   0.971   4.407 -0.4250 -0.4402 -0.7699
12566TIP3   OH259188   5.317   3.407  13.983 -0.0578 -0.2671 -0.2157
12566TIP3    H159189   5.256   3.371  14.047 -0.1577 -1.1989 -0.8290
12566TIP3    H259190   5.382   3.338  13.970  0.1725  0.0654 -0.8426
12567TIP3   OH259191   0.037   2.764  14.920  0.2562 -0.7006 -0.2397
12567TIP3    H159192   0.026   2.859  14.920 -1.5004 -0.7810  2.6777
12567TIP3    H259193   0.131   2.750  14.910  0.5178  1.3121 -0.9077
12568TIP3   OH259194   1.059   5.613   4.283 -0.0471 -0.5598  0.2950
12568TIP3    H159195   1.008   5.692   4.265 -0.3502 -0.8288 -0.0314
12568TIP3    H259196   1.149   5.644   4.291  0.1868 -0.4582 -2.0951
12569TIP3   OH259197   1.328   4.897  11.635  0.0249  0.2750 -0.4565
12569TIP3    H159198   1.416   4.910  11.601  0.3511 -0.5929  0.0272
12569TIP3    H259199   1.337   4.908  11.730  0.3070 -2.9543  0.0157
12570TIP3   OH259200   4.449   1.337   5.616 -0.1627 -0.0024 -0.0213
12570TIP3    H159201   4.497   1.347   5.699  0.2390 -0.6871 -0.1593
12570TIP3    H259202   4.418   1.246   5.618 -0.5104  0.1084 -0.4369
12571TIP3   OH259203   3.697   1.882   3.490 -0.3603  0.0902  0.2136
12571TIP3    H159204   3.737   1.814   3.436 -0.0054  0.3805  0.1123
12571TIP3    H259205   3.648   1.936   3.428  3.5002  3.0390 -0.5726
12572TIP3   OH259206   6.716   2.753   5.673 -0.1137  0.6441  0.3866
12572TIP3    H159207   6.653   2.814   5.635 -0.2725  0.0682 -0.2972
12572TIP3    H259208   6.663   2.682   5.708  0.0603  0.9834  1.3555
12573TIP3   OH259209   0.092   4.053  12.156 -0.0667 -0.0202 -0.4092
12573TIP3    H159210   0.180   4.018  12.141 -0.2574 -1.3119  1.1512
12573TIP3    H259211   0.034   3.980  12.134 -0.5245 -0.5000  2.1310
12574TIP3   OH259212   2.592   1.684   5.842 -0.2210 -0.0315  0.1603
12574TIP3    H159213   2.639   1.603   5.866  1.4381  0.4869 -1.1205
12574TIP3    H259214   2.651   1.754   5.869  0.2618  0.6321 -2.3394
12575TIP3   OH259215   5.066   3.392  13.108  0.1794  0.2884  0.2962
12575TIP3    H159216   5.015   3.314  13.089 -1.6417  1.8887 -2.0694
12575TIP3    H259217   5.034   3.422  13.193 -0.2433 -0.6539  0.4794
12576TIP3   OH259218   1.486   6.699  14.739 -0.1038  0.2479  0.3701
12576TIP3    H159219   1.486   6.676  14.832 -0.5293  1.6232  0.7333
12576TIP3    H259220   1.394   6.719  14.720  0.3472  2.5710  0.3631
12577TIP3   OH259221   6.336   1.709   5.575 -0.5355 -0.1069  0.1891
12577TIP3    H159222   6.361   1.769   5.645  1.8220  0.0582 -0.7267
12577TIP3    H259223   6.294   1.636   5.620 -0.3272  0.6297  1.6341
12578TIP3   OH259224   6.713   6.406  13.725  0.4103 -0.1606 -0.2065
12578TIP3    H159225   6.774   6.332  13.730 -0.2182 -0.7146 -0.4473
12578TIP3    H259226   6.649   6.380  13.658  1.6916  1.7748 -2.3143
12579TIP3   OH259227   0.787   0.054  15.647  0.0921  0.1404  1.2426
12579TIP3    H159228   0.845   0.122  15.612 -1.4833  0.6006 -0.6441
12579TIP3    H259229   0.829  -0.028  15.624  0.0748  0.4631  0.0113
12580TIP3   OH259230   1.745   4.814   1.920  0.1347 -0.2730 -0.2684
12580TIP3    H159231   1.803   4.750   1.879  0.4936 -1.1487  1.5274
12580TIP3    H259232   1.677   4.830   1.854  2.6135  1.2224 -2.6571
12581TIP3   OH259233   0.114   1.923   1.303  0.5985 -0.0859 -1.1133
12581TIP3    H159234   0.105   1.999   1.361 -0.2340  2.1876 -3.9735
12581TIP3    H259235   0.055   1.857   1.341 -0.8240  1.7117 -0.0239
12582TIP3   OH259236   2.752   3.565  14.288  0.9536 -0.0933  0.3204
12582TIP3    H159237   2.680   3.565  14.351  0.9548 -1.4725  0.3504
12582TIP3    H259238   2.826   3.529  14.337  1.1063 -0.6344 -0.2964
12583TIP3   OH259239   1.511   6.576   3.612 -0.2211 -0.2215 -0.1663
12583TIP3    H159240   1.475   6.621   3.535 -3.0771 -1.2174  0.4830
12583TIP3    H259241   1.460   6.495   3.619  1.4625 -1.2225  1.5492
12584TIP3   OH259242   4.223   5.333  11.234  0.3797  0.0362 -0.2036
12584TIP3    H159243   4.207   5.370  11.147 -0.0062  1.2621  0.3661
12584TIP3    H259244   4.142   5.349  11.282  0.3616 -1.1866  0.2140
12585TIP3   OH259245   6.491   2.979   0.585  0.1796  0.3234 -0.3569
12585TIP3    H159246   6.456   2.915   0.523  1.2562  0.3720 -1.0525
12585TIP3    H259247   6.564   3.020   0.538  2.0390 -0.7083  1.4880
12586TIP3   OH259248   0.300   0.853  14.668 -0.2651 -0.7853 -0.1285
12586TIP3    H159249   0.265   0.767  14.646 -1.1133 -0.2873 -0.8119
12586TIP3    H259250   0.322   0.892  14.583 -0.0523 -0.2581  0.1642
12587TIP3   OH259251   1.392   0.634  14.236  0.1699 -0.3303  0.0437
12587TIP3    H159252   1.402   0.553  14.187  0.1317 -0.1706 -0.2306
12587TIP3    H259253   1.481   0.660  14.258  0.4160  0.8638 -2.0268
12588TIP3   OH259254   3.724   4.579   1.974 -0.2239 -0.0717  0.1891
12588TIP3    H159255   3.780   4.501   1.977 -0.8842 -0.6357 -1.1947
12588TIP3    H259256   3.708   4.594   1.881 -1.1540  0.9646  0.4872
12589TIP3   OH259257   2.352   6.554  13.911 -1.0407 -0.3378 -0.2740
12589TIP3    H159258   2.294   6.505  13.969  0.8051 -1.2966  0.8286
12589TIP3    H259259   2.387   6.624  13.966  0.2485 -0.8836 -0.3771
12590TIP3   OH259260   3.124   3.358  15.929  0.1489  0.5871  0.1974
12590TIP3    H159261   3.085   3.271  15.931  2.1371 -0.4407 -1.4718
12590TIP3    H259262   3.089   3.399  15.850  0.9127  0.3928 -0.2586
12591TIP3   OH259263   0.518   0.980  16.655 -0.6894 -0.1891  0.3418
12591TIP3    H159264   0.457   1.036  16.606 -0.3927 -0.6371 -0.5723
12591TIP3    H259265   0.471   0.957  16.735 -0.6163  1.7897  1.0059
12592TIP3   OH259266   1.637   0.560  15.273 -0.1265 -0.7566  0.1101
12592TIP3    H159267   1.688   0.626  15.321  0.0330 -1.8932  1.5841
12592TIP3    H259268   1.546   0.591  15.281  0.1956  1.1536 -2.3360
12593TIP3   OH259269   5.157   2.389  16.246 -0.0251  0.2658  0.3328
12593TIP3    H159270   5.116   2.475  16.238  0.4608  0.3707 -1.9299
12593TIP3    H259271   5.247   2.404  16.216  0.1684 -0.9431  0.2927
12594TIP3   OH259272   5.971   0.557  12.440  0.1806  0.1481 -0.7298
12594TIP3    H159273   5.984   0.577  12.347 -0.0982 -0.1558 -0.8354
12594TIP3    H259274   5.964   0.461  12.443  0.1246  0.1628 -0.4060
12595TIP3   OH259275   1.656   4.822   1.043  0.5095  0.7313 -0.1628
12595TIP3    H159276   1.708   4.827   0.962 -0.3605  1.0785 -0.7219
12595TIP3    H259277   1.653   4.913   1.074 -0.0342  0.7771 -0.3285
12596TIP3   OH259278   5.701   4.371   6.078  0.2019 -0.5646 -0.2872
12596TIP3    H159279   5.788   4.363   6.040 -0.1594  0.2849 -1.3472
12596TIP3    H259280   5.716   4.375   6.172  1.6153  2.4421 -0.5132
12597TIP3   OH259281   0.599   5.892  15.021  0.2391  0.8004 -0.0874
12597TIP3    H159282   0.525   5.900  15.082  0.9815  2.0919  0.6748
12597TIP3    H259283   0.655   5.825  15.061 -0.5379 -0.2559 -0.7183
12598TIP3   OH259284   2.741   5.436   3.773  0.4541 -0.0429  0.3930
12598TIP3    H159285   2.708   5.390   3.850 -0.0707 -0.7972 -0.2640
12598TIP3    H259286   2.831   5.404   3.763  0.7122  0.4755  1.0048
12599TIP3   OH259287   2.895   0.936  12.236 -0.5219 -0.1035 -0.8957
12599TIP3    H159288   2.904   0.962  12.144 -2.2722  0.4477 -0.9456
12599TIP3    H259289   2.823   0.873  12.236 -0.9615  0.3737  0.1752
12600TIP3   OH259290   0.948   4.910  15.230 -0.2013  0.0562 -0.3995
12600TIP3    H159291   1.035   4.906  15.269  0.6228  1.3392 -1.9705
12600TIP3    H259292   0.912   4.822  15.241  1.6865 -0.7701 -0.5411
12601TIP3   OH259293   6.641   0.608   3.750  0.3254  0.0468  0.5808
12601TIP3    H159294   6.711   0.598   3.685 -1.6424  0.1258 -1.6602
12601TIP3    H259295   6.649   0.699   3.779  0.7070  0.2670 -0.1823
12602TIP3   OH259296   1.657   0.344  11.960 -0.1597  0.2324 -0.4587
12602TIP3    H159297   1.730   0.358  12.021 -0.4575  0.3258 -0.1194
12602TIP3    H259298   1.591   0.407  11.988 -0.0443  0.7354 -1.2975
12603TIP3   OH259299   0.184   4.365  16.220 -0.0979 -0.1530 -0.9227
12603TIP3    H159300   0.090   4.385  16.221  0.1923  1.3429  0.4514
12603TIP3    H259301   0.219   4.418  16.148  0.1353  1.7520  0.5348
12604TIP3   OH259302   1.746   6.792  10.472 -0.6040  0.1460  0.2085
12604TIP3    H159303   1.783   6.704  10.479  0.0227  0.3840 -0.0216
12604TIP3    H259304   1.661   6.786  10.516 -1.0059 -0.8136 -0.6515
12605TIP3   OH259305   0.979   0.285  11.624  0.3736  0.1973  0.4399
12605TIP3    H159306   1.055   0.311  11.571 -0.7758  0.5852 -1.0906
12605TIP3    H259307   0.967   0.192  11.605 -0.0229  0.3296  0.0423
12606TIP3   OH259308   4.846   2.738  14.700 -0.2689  0.8560 -1.3302
12606TIP3    H159309   4.775   2.734  14.636 -0.6257 -2.7562 -0.8882
12606TIP3    H259310   4.803   2.753  14.783 -0.3423  0.4538 -1.2941
12607TIP3   OH259311   1.553   2.309   3.137  0.7927 -0.0856  0.0055
12607TIP3    H159312   1.516   2.243   3.078  0.7247  1.8061 -2.1723
12607TIP3    H259313   1.533   2.276   3.225 -2.5213 -1.1209 -1.0022
12608TIP3   OH259314   3.527   6.699  15.323  0.2128 -0.3837  0.0571
12608TIP3    H159315   3.488   6.634  15.381  0.6429 -1.1566 -0.4993
12608TIP3    H259316   3.554   6.649  15.246  0.6050  0.4481 -0.3580
12609TIP3   OH259317   5.384   0.161  14.790 -0.2957  0.3883  0.0834
12609TIP3    H159318   5.393   0.071  14.757 -2.9295  0.0402  0.0689
12609TIP3    H259319   5.421   0.216  14.721 -0.2169 -0.6165 -0.6983
12610TIP3   OH259320   4.813   2.956   3.428  0.0999 -0.4971  0.0416
12610TIP3    H159321   4.837   3.040   3.391  1.0092 -0.1881  1.2541
12610TIP3    H259322   4.804   2.898   3.353 -0.5803  0.6711 -0.8105
12611TIP3   OH259323   2.111   6.593  12.560 -0.1496 -0.5716 -0.2280
12611TIP3    H159324   2.157   6.579  12.477 -1.5818  0.4133 -1.2225
12611TIP3    H259325   2.165   6.547  12.625  2.3752  0.7464 -1.2681
12612TIP3   OH259326   3.535   0.548  10.220 -0.0465 -0.0401  0.5625
12612TIP3    H159327   3.553   0.458  10.192  0.8700  1.3202 -4.0211
12612TIP3    H259328   3.459   0.574  10.168 -0.0345  2.0281  1.4898
12613TIP3   OH259329   6.755   1.894   0.386 -0.5692 -0.1469  0.2856
12613TIP3    H159330   6.821   1.953   0.421  0.7843  0.2105 -2.6315
12613TIP3    H259331   6.673   1.923   0.426  0.5105  1.7251  1.2479
12614TIP3   OH259332   2.208   6.060   5.736  0.4577 -0.3905  0.1980
12614TIP3    H159333   2.218   6.017   5.651  1.8637 -1.3864  0.8359
12614TIP3    H259334   2.121   6.035   5.765  0.8479 -1.9931  0.0864
12615TIP3   OH259335   0.072   6.079   3.727  0.1911  0.2337  0.0799
12615TIP3    H159336   0.122   6.000   3.743  0.7084  0.5033 -0.1953
12615TIP3    H259337   0.090   6.135   3.802  0.0175  0.1913  0.1548
12616TIP3   OH259338   0.434   5.527  12.151 -0.3120 -0.8462  0.0906
12616TIP3    H159339   0.501   5.573  12.100 -0.3558  1.9466  2.3339
12616TIP3    H259340   0.484   5.472  12.211  0.1517  1.5428  2.0464
12617TIP3   OH259341   5.873   6.130   1.806  0.2317  0.3285  0.1965
12617TIP3    H159342   5.925   6.084   1.872 -0.8365 -0.2393  0.6705
12617TIP3    H259343   5.828   6.199   1.855 -0.6941 -0.1984  0.1052
12618TIP3   OH259344   4.816   2.038   1.984 -0.5317  0.0863 -0.4129
12618TIP3    H159345   4.844   2.053   1.894  1.2292  1.5537  0.3243
12618TIP3    H259346   4.895   2.008   2.029 -1.4760 -0.9884  0.5962
12619TIP3   OH259347   2.976   0.900  10.851  0.0047  0.2191  0.1582
12619TIP3    H159348   2.967   0.814  10.811 -0.8103  0.7721 -0.9323
12619TIP3    H259349   3.042   0.945  10.797 -2.8487  1.8339 -2.3098
12620TIP3   OH259350   3.937   0.523   4.681  0.5199  0.1794 -0.1566
12620TIP3    H159351   4.001   0.538   4.612 -0.5070 -0.2339 -1.2355
12620TIP3    H259352   3.900   0.436   4.662  0.1186  0.1118  0.8336
12621TIP3   OH259353   4.137   3.301  15.222  0.0803 -0.2527  0.0329
12621TIP3    H159354   4.123   3.230  15.160 -0.1202  1.3322 -1.8090
12621TIP3    H259355   4.232   3.310  15.227  0.0911  0.4013 -1.0289
12622TIP3   OH259356   6.513   3.835  15.414 -0.6982 -0.1387 -0.5585
12622TIP3    H159357   6.607   3.844  15.430 -0.3515 -1.8540 -1.3089
12622TIP3    H259358   6.502   3.860  15.322 -0.9949  0.1459 -0.4474
12623TIP3   OH259359   2.464   6.216  13.661  0.2319  0.2440 -0.2499
12623TIP3    H159360   2.473   6.173  13.746 -0.6970  1.3029  0.4124
12623TIP3    H259361   2.383   6.266  13.668  0.0956  0.2867 -1.7960
12624TIP3   OH259362   5.488   3.146  11.827  0.6723  0.3045 -0.5080
12624TIP3    H159363   5.397   3.173  11.813 -0.8105 -1.8013  3.3748
12624TIP3    H259364   5.504   3.079  11.761 -1.1428 -0.2748 -0.4051
12625TIP3   OH259365   6.784   2.343   4.663  0.3700 -0.6531 -0.0041
12625TIP3    H159366   6.855   2.407   4.661  0.0064  0.0095  3.1592
12625TIP3    H259367   6.825   2.262   4.690  0.2590 -0.8873 -0.5183
12626TIP3   OH259368   2.200   6.123   0.204  0.0215  0.1054  0.2783
12626TIP3    H159369   2.106   6.140   0.215  0.4149  1.5928  1.6668
12626TIP3    H259370   2.225   6.176   0.128 -0.1411  0.1672  0.2662
12627TIP3   OH259371   4.995   1.010   4.688  0.3770  0.1379 -0.4053
12627TIP3    H159372   4.910   0.989   4.649  0.7802  1.0462 -1.8475
12627TIP3    H259373   4.974   1.031   4.779 -0.6923 -1.3162 -0.2680
12628TIP3   OH259374   2.428   3.945   4.770 -0.0660  0.7431 -0.5550
12628TIP3    H159375   2.386   3.859   4.779 -0.2650  0.9269  0.4011
12628TIP3    H259376   2.521   3.925   4.763 -0.0491  0.4560  0.2705
12629TIP3   OH259377   0.261   5.980  14.136  0.2124 -0.4894  0.3310
12629TIP3    H159378   0.185   5.922  14.129 -0.4752  0.4493 -0.2319
12629TIP3    H259379   0.252   6.022  14.221 -0.8174  0.8086 -0.3666
12630TIP3   OH259380   1.223   5.785  13.859 -0.6683  0.0903  0.3740
12630TIP3    H159381   1.204   5.876  13.837  0.0645  0.4488  1.1706
12630TIP3    H259382   1.158   5.763  13.926  0.9562  1.0130  2.3901
12631TIP3   OH259383   3.765   1.997  14.612  0.5701 -0.2432 -0.1525
12631TIP3    H159384   3.746   1.959  14.698 -0.3342  0.7379  0.1031
12631TIP3    H259385   3.776   2.090  14.630  1.4124 -0.1820 -0.9575
12632TIP3   OH259386   0.622   2.204  11.918  0.0171  0.1502 -0.5928
12632TIP3    H159387   0.637   2.298  11.925  1.6571 -0.2041  1.5342
12632TIP3    H259388   0.532   2.192  11.949 -0.2100  1.0072 -0.8842
12633TIP3   OH259389   6.791   5.431   0.915  0.2840  0.2788 -0.2943
12633TIP3    H159390   6.764   5.517   0.946 -1.0438  0.6240 -2.1833
12633TIP3    H259391   6.789   5.439   0.819  2.1962 -1.2455 -0.5214
12634TIP3   OH259392   6.377   2.339  16.306  0.1150  0.0343  0.2014
12634TIP3    H159393   6.313   2.283  16.350 -0.7876  0.2437 -0.8275
12634TIP3    H259394   6.443   2.355  16.374 -0.9886 -0.0426  1.3472
12635TIP3   OH259395   1.712   6.666  14.598  0.1552  0.5922  0.1220
12635TIP3    H159396   1.627   6.678  14.640 -0.6313  0.8158 -1.4528
12635TIP3    H259397   1.772   6.646  14.670 -1.3229 -0.0982  1.2036
12636TIP3   OH259398   1.300   0.661  11.778 -0.1200 -0.0335 -0.0405
12636TIP3    H159399   1.388   0.626  11.795 -0.8073 -1.1630  1.3950
12636TIP3    H259400   1.241   0.599  11.820 -1.6934  0.1450 -1.8547
12637TIP3   OH259401   6.334   3.931   6.809 -0.1356  0.4139  0.3022
12637TIP3    H159402   6.371   3.843   6.819 -0.0137  0.4159 -0.1276
12637TIP3    H259403   6.394   3.988   6.857  0.0344  0.3234  0.1962
12638TIP3   OH259404   0.345   0.096   4.209 -0.2313  0.3022 -0.4385
12638TIP3    H159405   0.374   0.060   4.293  0.5920  0.6014 -0.5783
12638TIP3    H259406   0.393   0.179   4.202 -2.0405  1.4120 -0.1437
12639TIP3   OH259407   4.740   4.519  15.621  0.1254 -0.6310  0.1526
12639TIP3    H159408   4.827   4.507  15.582  0.0825  1.2726 -0.6227
12639TIP3    H259409   4.757   4.552  15.709  0.2257  0.6796 -0.3330
12640TIP3   OH259410   0.722   6.201   0.671  0.6324 -0.1840  0.3222
12640TIP3    H159411   0.685   6.284   0.641  0.1071 -0.4501  0.2216
12640TIP3    H259412   0.803   6.191   0.622  0.4991  0.0789  0.0477
12641TIP3   OH259413   3.513   2.361   5.553  0.2722 -0.2726  0.7961
12641TIP3    H159414   3.515   2.276   5.511  0.1655  1.1708 -2.4068
12641TIP3    H259415   3.591   2.406   5.520 -0.1059  1.1638  1.7683
12642TIP3   OH259416   2.226   4.760  14.962  0.5459 -0.0421  0.2718
12642TIP3    H159417   2.257   4.845  14.995 -1.5497  1.6195 -1.7083
12642TIP3    H259418   2.197   4.713  15.040 -0.4103  2.0364  1.2493
12643TIP3   OH259419   4.629   3.874   5.705 -0.1785  0.4092 -0.2400
12643TIP3    H159420   4.687   3.895   5.778 -1.7304  0.9153  0.8950
12643TIP3    H259421   4.654   3.785   5.679 -0.2292 -0.1557  1.5511
12644TIP3   OH259422   3.711   1.869   4.479 -0.4551 -0.1618 -0.1546
12644TIP3    H159423   3.797   1.904   4.457 -1.5412  2.6094 -0.4163
12644TIP3    H259424   3.695   1.899   4.569 -1.9765  1.2606 -0.8459
12645TIP3   OH259425   6.774   1.802  11.746 -0.2032  0.0420  0.7952
12645TIP3    H159426   6.864   1.834  11.754  0.3863 -1.4670  0.4777
12645TIP3    H259427   6.778   1.711  11.773 -1.2548 -0.6192 -1.0627
12646TIP3   OH259428   6.706   2.846  13.458 -0.1352 -0.7476 -0.8366
12646TIP3    H159429   6.732   2.929  13.497 -1.4320 -0.0058 -1.5168
12646TIP3    H259430   6.786   2.792  13.463  0.3716  0.0825  0.7279
12647TIP3   OH259431   6.849   2.635   3.480 -0.1651 -0.6315 -0.2079
12647TIP3    H159432   6.929   2.648   3.429 -0.4570 -1.1745 -0.8301
12647TIP3    H259433   6.876   2.580   3.553  0.0964 -0.5526 -0.2448
12648TIP3   OH259434   0.009   1.392  12.148  0.1341 -0.7889  0.2597
12648TIP3    H159435   0.035   1.480  12.176 -0.7563 -0.5446  0.3761
12648TIP3    H259436   0.026   1.337  12.225  1.9009 -0.9854 -0.2329
12649TIP3   OH259437   6.735   1.706   2.183 -0.1379  0.5326 -0.1225
12649TIP3    H159438   6.774   1.718   2.097 -0.3720 -3.6297 -1.0104
12649TIP3    H259439   6.803   1.734   2.244  2.1497 -1.3415 -1.6606
12650TIP3   OH259440   1.387   1.008  16.482 -0.1828  0.0223  0.4917
12650TIP3    H159441   1.304   0.968  16.507 -0.4174  0.8430  1.0547
12650TIP3    H259442   1.450   0.973  16.545 -0.4478  0.7559  1.1845
12651TIP3   OH259443   2.782   1.277   1.589  0.1168  0.6273 -0.1735
12651TIP3    H159444   2.718   1.304   1.523 -2.1152 -0.5351  1.3520
12651TIP3    H259445   2.830   1.357   1.611 -2.6599  2.2561  0.4532
12652TIP3   OH259446   3.501   4.278  13.600 -0.1399  0.0552 -0.2448
12652TIP3    H159447   3.508   4.184  13.584 -0.7727  0.2606 -1.9739
12652TIP3    H259448   3.588   4.312  13.583  0.1585 -0.2406  0.6520
12653TIP3   OH259449   5.360   6.480  12.635 -0.2639 -0.0215 -0.1329
12653TIP3    H159450   5.277   6.519  12.608 -0.8147 -0.2573  1.1490
12653TIP3    H259451   5.406   6.551  12.680  0.9357  0.5644 -2.1411
12654TIP3   OH259452   4.804   4.997  12.674  0.0570 -0.2168 -0.6709
12654TIP3    H159453   4.732   5.041  12.628 -0.1587 -0.4782 -0.5825
12654TIP3    H259454   4.881   5.014  12.619 -0.3981 -1.4968 -1.7606
12655TIP3   OH259455   1.622   3.032   0.173  0.0788 -0.1499 -0.0308
12655TIP3    H159456   1.568   3.105   0.144  0.9502  1.7424  2.7389
12655TIP3    H259457   1.689   3.024   0.105 -0.7957  0.7499 -1.0353
12656TIP3   OH259458   0.592   1.647   4.451  0.6617 -0.0634 -0.0640
12656TIP3    H159459   0.515   1.690   4.415  1.2934 -0.9323 -2.7534
12656TIP3    H259460   0.563   1.557   4.469  1.2698 -0.8182 -2.4466
12657TIP3   OH259461   3.389   5.781  12.123 -0.2885  0.2370  0.3118
12657TIP3    H159462   3.451   5.832  12.071 -0.9704  0.3193 -0.4304
12657TIP3    H259463   3.336   5.847  12.169 -1.6101  0.2620 -1.1577
12658TIP3   OH259464   3.057   4.311   1.720 -0.1268  0.2499 -0.1910
12658TIP3    H159465   3.078   4.393   1.676 -0.9852  0.3536 -0.4323
12658TIP3    H259466   3.093   4.243   1.663  1.3290  0.4656  0.4292
12659TIP3   OH259467   0.114   5.522  16.999 -0.0786 -0.3799 -0.1757
12659TIP3    H159468   0.059   5.445  16.984 -0.5393 -0.2375  0.7122
12659TIP3    H259469   0.168   5.497  17.075  3.2592 -1.6844 -2.6859
12660TIP3   OH259470   0.563   0.221   0.080 -0.0475  0.3562 -0.2045
12660TIP3    H159471   0.533   0.259  -0.003 -0.3571  0.7579  0.0878
12660TIP3    H259472   0.647   0.265   0.097 -0.2826  0.7320  0.0040
12661TIP3   OH259473   4.428   3.670   0.124  0.1055  0.1721  0.0550
12661TIP3    H159474   4.473   3.731   0.183  0.9257 -0.6387  0.2916
12661TIP3    H259475   4.499   3.621   0.082 -0.5351 -0.6561 -0.0841
12662TIP3   OH259476   0.491   3.036  11.927 -0.2999  0.2542 -0.2945
12662TIP3    H159477   0.580   3.012  11.950 -0.6233 -1.5493 -0.7907
12662TIP3    H259478   0.441   3.026  12.008 -0.3243 -0.2350 -0.3665
12663TIP3   OH259479   2.502   3.153  12.696  0.0567  0.1957  0.1630
12663TIP3    H159480   2.548   3.220  12.645 -0.4997  0.2844 -0.2324
12663TIP3    H259481   2.511   3.073  12.645 -1.3133  0.4835 -0.5880
12664TIP3   OH259482   3.100   1.941  16.187 -0.4625 -0.2566  0.0737
12664TIP3    H159483   3.025   1.985  16.146 -0.8449 -0.6640  0.3320
12664TIP3    H259484   3.149   2.011  16.230  0.4371  0.3355 -1.7985
12665TIP3   OH259485   2.120   6.128   1.799 -0.0931 -0.1212  0.2359
12665TIP3    H159486   2.169   6.194   1.752 -0.3580 -1.0664 -1.4369
12665TIP3    H259487   2.083   6.072   1.731 -2.4108 -0.2191  1.4604
12666TIP3   OH259488   5.682   6.547   2.285 -0.0324 -0.3548 -0.0986
12666TIP3    H159489   5.602   6.582   2.246  0.9590  0.8036 -1.1759
12666TIP3    H259490   5.668   6.452   2.285 -1.2770 -0.1973 -0.5289
12667TIP3   OH259491   0.807   0.757   4.922  0.1380 -0.3475  0.3879
12667TIP3    H159492   0.891   0.747   4.876 -0.1231  0.2412 -0.2324
12667TIP3    H259493   0.801   0.851   4.941 -0.4260 -0.3707  0.3395
12668TIP3   OH259494   5.430   2.625  17.024 -0.1175 -0.6131  0.1974
12668TIP3    H159495   5.448   2.655  16.935  0.6990 -0.1738  0.5023
12668TIP3    H259496   5.408   2.533  17.015 -2.8083  0.0335 -0.7792
12669TIP3   OH259497   6.744   6.405   2.345  0.8476 -0.0366  0.4433
12669TIP3    H159498   6.696   6.333   2.305  1.5248 -0.1887 -0.1106
12669TIP3    H259499   6.685   6.438   2.413  0.9068 -1.7462  1.3902
12670TIP3   OH259500   0.112   1.788  13.541 -0.5772 -0.0220 -0.1700
12670TIP3    H159501   0.024   1.753  13.553 -0.7985  0.0128 -1.5722
12670TIP3    H259502   0.130   1.836  13.622 -1.9330  0.1722  0.0307
12671TIP3   OH259503   1.077   0.246   5.783 -0.1378  0.2062  0.2551
12671TIP3    H159504   1.071   0.295   5.865  0.4800 -0.6716  0.8432
12671TIP3    H259505   1.148   0.184   5.797  0.3866  0.4455 -1.1719
12672TIP3   OH259506   5.150   2.733  12.418 -0.6739 -0.0565  0.5531
12672TIP3    H159507   5.212   2.805  12.408 -1.1124  0.5936  2.2291
12672TIP3    H259508   5.193   2.672  12.478 -1.1184 -0.2437  0.6899
12673TIP3   OH259509   3.471   3.799   2.436 -0.4621 -0.6596  0.0554
12673TIP3    H159510   3.483   3.772   2.526  1.0656 -0.6315 -0.1151
12673TIP3    H259511   3.376   3.804   2.425 -0.6973  1.1303  2.1829
12674TIP3   OH259512   1.984   6.717   1.562 -0.1611 -0.0262  0.2703
12674TIP3    H159513   2.064   6.766   1.541 -0.8562  1.0249  0.0171
12674TIP3    H259514   1.979   6.720   1.658 -0.8944  1.5922  0.2190
12675TIP3   OH259515   5.592   4.793  13.569 -0.5088 -0.5545 -0.0598
12675TIP3    H159516   5.648   4.807  13.646 -0.4224 -0.7871 -0.0800
12675TIP3    H259517   5.579   4.881  13.533  0.0753 -0.5241 -0.2147
12676TIP3   OH259518   0.163   1.879   3.529  0.5476  0.0367  0.1341
12676TIP3    H159519   0.241   1.896   3.476 -0.0998  1.7325 -0.3404
12676TIP3    H259520   0.126   1.799   3.491  1.0942  0.1986 -0.7744
12677TIP3   OH259521   2.737   1.874   0.256 -0.2336  0.0831  0.3192
12677TIP3    H159522   2.812   1.927   0.232 -0.7150  0.3767 -0.5951
12677TIP3    H259523   2.749   1.854   0.349  0.0309  1.6758  0.6447
12678TIP3   OH259524   1.496   1.061  11.499 -0.4471  0.0882 -0.6358
12678TIP3    H159525   1.549   1.074  11.420  1.7816  0.4829  0.8528
12678TIP3    H259526   1.481   1.149  11.533  1.4429 -0.2018  1.1116
12679TIP3   OH259527   6.118   5.041  16.448  0.1823  0.0145  0.0873
12679TIP3    H159528   6.131   5.135  16.454  0.1731  0.2185 -2.1907
12679TIP3    H259529   6.024   5.028  16.461  0.1505  0.3336  0.1780
12680TIP3   OH259530   2.809   6.340  16.697  0.5918  0.2442  0.3708
12680TIP3    H159531   2.830   6.246  16.701 -2.4368 -0.4708  1.6162
12680TIP3    H259532   2.877   6.382  16.751  1.7312 -1.2457  0.1644
12681TIP3   OH259533   2.334   0.483  16.013 -0.2805 -0.4053  0.1863
12681TIP3    H159534   2.409   0.432  16.046  1.1646  1.5319  0.0809
12681TIP3    H259535   2.349   0.489  15.919  0.3809  1.3760  0.3756
12682TIP3   OH259536   2.529   0.502  11.604 -0.0093  0.0788  0.6087
12682TIP3    H159537   2.514   0.409  11.620  0.9559 -0.0383  0.8656
12682TIP3    H259538   2.573   0.505  11.519 -0.5658  0.3477  0.3222
12683TIP3   OH259539   1.021   3.421   1.378  0.3298  0.0801  0.2928
12683TIP3    H159540   1.093   3.357   1.385 -0.3563 -0.7631 -0.1705
12683TIP3    H259541   0.942   3.368   1.377 -0.2460  0.9283 -0.3847
12684TIP3   OH259542   4.232   4.408  14.046  0.5123 -0.2441 -0.3524
12684TIP3    H159543   4.320   4.442  14.030  0.6602  0.1425  1.1069
12684TIP3    H259544   4.201   4.457  14.122  0.2671 -2.4808  1.0917
12685TIP3   OH259545   5.408   2.052  14.523 -0.1899  0.0880 -0.2960
12685TIP3    H159546   5.500   2.057  14.549 -0.6220 -0.7512  1.5345
12685TIP3    H259547   5.380   2.143  14.512  0.2872  0.4565  1.3406
12686TIP3   OH259548   1.487   3.476  15.241 -0.5852 -0.1863 -0.2884
12686TIP3    H159549   1.450   3.431  15.165 -0.5163  0.4806 -0.7266
12686TIP3    H259550   1.515   3.561  15.207  0.9830 -0.5065  0.1190
12687TIP3   OH259551   0.688   0.163   2.434 -0.3199  0.0243  0.6252
12687TIP3    H159552   0.640   0.244   2.414 -1.2921 -0.3707  1.2903
12687TIP3    H259553   0.670   0.105   2.360  0.7439  0.5478 -0.0746
12688TIP3   OH259554   5.611   0.109  11.047  0.1411  0.1057  0.0162
12688TIP3    H159555   5.540   0.169  11.070  1.7099  1.6589  1.0739
12688TIP3    H259556   5.631   0.063  11.129  2.2807  1.8755  0.6004
12689TIP3   OH259557   5.184   0.893   4.045 -0.3978 -0.4324 -0.2839
12689TIP3    H159558   5.174   0.846   3.962 -0.1617 -0.4063 -0.3274
12689TIP3    H259559   5.269   0.937   4.038 -0.9028  0.5255 -0.5079
12690TIP3   OH259560   0.191   5.547   4.172 -0.4705 -0.3434 -0.4461
12690TIP3    H159561   0.183   5.642   4.160  0.0754 -0.5266 -2.7661
12690TIP3    H259562   0.228   5.516   4.089 -0.2853 -2.5459  0.4114
12691TIP3   OH259563   6.388   1.711   4.162  0.0094 -0.3721  0.8368
12691TIP3    H159564   6.403   1.803   4.141 -2.7841 -0.1969 -0.9784
12691TIP3    H259565   6.370   1.711   4.256 -2.2848  1.4313  0.5171
12692TIP3   OH259566   6.460   3.378   0.510  0.1520  0.8786  0.0074
12692TIP3    H159567   6.543   3.424   0.523  1.2700 -1.0125  0.0251
12692TIP3    H259568   6.485   3.296   0.467 -1.4724 -0.5625  1.6352
12693TIP3   OH259569   3.702   0.639   4.799 -0.2889  0.3291  0.6954
12693TIP3    H159570   3.648   0.622   4.723 -0.6352  1.4225  0.6763
12693TIP3    H259571   3.792   0.625   4.769 -0.3294  1.8965 -0.2777
12694TIP3   OH259572   5.118   0.344   1.798  0.2749  0.0270  0.7706
12694TIP3    H159573   5.089   0.408   1.862  0.2114 -0.0461  0.8146
12694TIP3    H259574   5.213   0.354   1.796  0.2447  0.3118  0.5784
12695TIP3   OH259575   4.330   6.591  12.502  0.2261 -0.3142  0.7193
12695TIP3    H159576   4.295   6.563  12.417  0.5284 -2.6472  1.2915
12695TIP3    H259577   4.288   6.675  12.519  0.6072  0.5407 -1.9972
12696TIP3   OH259578   1.835   3.079   5.673 -0.2231  0.7771  0.0945
12696TIP3    H159579   1.800   2.992   5.650 -0.4525  0.7806  0.4333
12696TIP3    H259580   1.776   3.140   5.629  0.0183  0.7601 -0.2556
12697TIP3   OH259581   3.058   5.569  15.651 -0.0656  0.1218 -0.0313
12697TIP3    H159582   3.041   5.663  15.642 -0.7172  0.0159  0.0677
12697TIP3    H259583   3.105   5.546  15.571 -2.1850  0.0108 -1.3186
12698TIP3   OH259584   6.455   5.003   2.057 -0.1895 -0.2544  0.3516
12698TIP3    H159585   6.543   4.984   2.088 -0.0686  2.3298  1.8832
12698TIP3    H259586   6.409   4.919   2.061  1.7940 -1.3701  0.8893
12699TIP3   OH259587   5.486   4.307   0.449 -0.2937  0.7976  0.3596
12699TIP3    H159588   5.581   4.296   0.457 -0.6314 -3.3857  0.6033
12699TIP3    H259589   5.469   4.300   0.355 -0.4358  1.3667  0.3355
12700TIP3   OH259590   5.907   5.532   2.836 -0.0753 -0.1847 -0.1892
12700TIP3    H159591   5.896   5.460   2.897  0.0921  1.0872  1.4105
12700TIP3    H259592   5.991   5.516   2.793 -0.2943 -1.1939 -0.2608
12701TIP3   OH259593   2.469   3.316   3.894  0.4165  0.0089 -0.2886
12701TIP3    H159594   2.467   3.310   3.799  0.5666  0.9571 -0.3688
12701TIP3    H259595   2.420   3.396   3.914  1.3366  0.4302  0.3528
12702TIP3   OH259596   0.932   4.998  17.100 -0.1055  0.5282  0.0343
12702TIP3    H159597   0.880   5.076  17.118  0.6868  0.8834  0.8288
12702TIP3    H259598   0.961   4.968  17.186  0.4812 -0.0261 -0.3472
12703TIP3   OH259599   6.304   3.395  16.508 -0.2880 -0.7059  0.0177
12703TIP3    H159600   6.309   3.460  16.578 -1.1780 -0.5343 -0.0665
12703TIP3    H259601   6.250   3.437  16.441  1.7888 -0.2292 -1.4741
12704TIP3   OH259602   4.058   1.665  12.249  0.0134  0.4539 -0.0024
12704TIP3    H159603   4.010   1.612  12.185 -1.0274  0.5903  0.6346
12704TIP3    H259604   4.146   1.627  12.251 -0.3586 -0.4556 -0.4548
12705TIP3   OH259605   0.586   4.748   9.998 -0.0592 -0.6108  0.3028
12705TIP3    H159606   0.617   4.663  10.029  0.5226 -0.3306  0.5000
12705TIP3    H259607   0.647   4.812  10.036  0.3410 -0.2084 -0.9468
12706TIP3   OH259608   1.135   6.092   1.612 -0.5566 -0.4627 -0.7235
12706TIP3    H159609   1.171   6.018   1.660  0.7916  0.0010 -0.9502
12706TIP3    H259610   1.161   6.169   1.664 -3.6608 -0.1722  0.6222
12707TIP3   OH259611   1.831   4.548   3.240 -0.5691  0.5732 -0.3866
12707TIP3    H159612   1.748   4.504   3.257  0.0788 -0.6249 -0.2081
12707TIP3    H259613   1.894   4.503   3.297 -0.0235  2.2877  0.4284
12708TIP3   OH259614   2.496   5.600  16.670  0.0433  0.0311 -0.3584
12708TIP3    H159615   2.412   5.601  16.715 -1.1582  1.6915 -2.4268
12708TIP3    H259616   2.510   5.508  16.646 -1.8591 -0.1118 -1.0767
12709TIP3   OH259617   0.019   5.858   5.678  0.5668 -0.0911 -0.5232
12709TIP3    H159618   0.032   5.893   5.766  0.4132 -1.4481  0.0518
12709TIP3    H259619  -0.039   5.783   5.690 -1.3900  1.0699 -2.0571
12710TIP3   OH259620   3.445   1.596   0.784  0.3953 -0.0683  0.2295
12710TIP3    H159621   3.477   1.652   0.713  0.5539 -1.4146 -0.7917
12710TIP3    H259622   3.452   1.507   0.750  1.2036 -0.8193  2.2193
12711TIP3   OH259623   6.100   2.533   1.419 -0.8020  0.4712  0.4191
12711TIP3    H159624   6.060   2.510   1.503 -1.4623 -1.3494 -0.3411
12711TIP3    H259625   6.026   2.564   1.366 -0.2712  2.3799  0.6966
12712TIP3   OH259626   5.410   4.158  13.802 -0.4660 -0.7802 -0.1444
12712TIP3    H159627   5.502   4.184  13.813 -1.0789  1.2046  0.6043
12712TIP3    H259628   5.412   4.098  13.727  1.0765  1.4456 -2.0225
12713TIP3   OH259629   2.270   5.195   1.068 -0.6188  0.2959 -0.2437
12713TIP3    H159630   2.222   5.177   1.148  0.8315  1.4531  0.9586
12713TIP3    H259631   2.243   5.283   1.042  0.4289  0.7732  0.1896
12714TIP3   OH259632   4.486   5.760  15.378  0.9637  0.1734 -0.2811
12714TIP3    H159633   4.522   5.798  15.459  2.0484 -1.3101 -0.0271
12714TIP3    H259634   4.563   5.743  15.324  0.3202  0.2225 -1.2382
12715TIP3   OH259635   4.667   0.395  15.109 -0.0609 -0.0114  0.3235
12715TIP3    H159636   4.694   0.334  15.041 -1.8398  0.8560 -1.2512
12715TIP3    H259637   4.599   0.347  15.158  0.1290 -0.0858  0.5153
12716TIP3   OH259638   2.777   1.920   6.496 -0.2817  0.1667  0.0783
12716TIP3    H159639   2.767   2.014   6.510 -0.6035  0.4906 -2.0469
12716TIP3    H259640   2.861   1.899   6.538  1.3900  2.0710 -2.0593
12717TIP3   OH259641   3.427   1.256   5.510  0.6656 -0.6713 -0.3241
12717TIP3    H159642   3.382   1.313   5.448  2.6805  1.7328  0.2380
12717TIP3    H259643   3.400   1.288   5.596  1.2005 -1.1311  0.0226
12718TIP3   OH259644   2.069   1.032  14.764  0.0011 -0.4169  0.0917
12718TIP3    H159645   1.980   1.006  14.741 -0.3133  1.8069 -1.5778
12718TIP3    H259646   2.058   1.083  14.845 -0.3281  0.2157 -0.3418
12719TIP3   OH259647   0.552   4.797   4.189  0.3689  0.2810  0.3290
12719TIP3    H159648   0.510   4.861   4.132  1.2932  0.5297 -0.1002
12719TIP3    H259649   0.489   4.725   4.195  0.7108 -0.3320 -2.0757
12720TIP3   OH259650   3.398   4.325   3.425 -0.0809  0.0731 -0.3608
12720TIP3    H159651   3.304   4.309   3.420  0.3397 -2.6222 -0.9889
12720TIP3    H259652   3.435   4.278   3.351  2.1764 -3.2877  2.5686
12721TIP3   OH259653   6.022   0.019   2.947 -0.4977 -0.0346 -0.4855
12721TIP3    H159654   6.002  -0.075   2.942 -0.6512  0.0040 -0.5973
12721TIP3    H259655   6.084   0.034   2.876  0.8489 -0.3847  0.5686
12722TIP3   OH259656   2.069   1.805   3.611  0.0585  0.0371 -0.1030
12722TIP3    H159657   2.104   1.848   3.532  0.4477 -0.2891 -0.1096
12722TIP3    H259658   2.104   1.716   3.607 -0.8286 -0.3198 -0.1410
12723TIP3   OH259659   4.667   1.990  14.720 -0.1757 -0.0620  0.0650
12723TIP3    H159660   4.623   1.954  14.797 -0.3779  1.6129  0.7645
12723TIP3    H259661   4.608   1.970  14.647 -0.1399 -1.3724  0.3645
12724TIP3   OH259662   2.841   6.693   3.806 -0.2678 -0.2129 -0.9408
12724TIP3    H159663   2.842   6.729   3.894 -0.0345  0.2713 -1.1378
12724TIP3    H259664   2.803   6.762   3.752  0.3047 -0.2112 -1.3450
12725TIP3   OH259665   3.395   4.997   4.932 -0.2490 -0.3442  0.1438
12725TIP3    H159666   3.466   5.047   4.972 -0.2604 -1.6825  1.9437
12725TIP3    H259667   3.324   5.060   4.922  0.4304  0.4839  0.3983
12726TIP3   OH259668   3.628   2.316  15.783 -0.4478 -0.5140 -0.6326
12726TIP3    H159669   3.713   2.275  15.799 -0.7267 -0.5081  1.1617
12726TIP3    H259670   3.593   2.330  15.871 -2.3131 -0.5316 -1.3448
12727TIP3   OH259671   1.541   3.921  16.895 -0.6146 -0.6323 -0.0550
12727TIP3    H159672   1.570   3.984  16.961 -3.1413  1.1393 -0.4643
12727TIP3    H259673   1.466   3.877  16.934 -0.9562 -0.9454 -1.0221
12728TIP3   OH259674   2.333   5.799  15.937  0.0214  0.4618 -0.2904
12728TIP3    H159675   2.312   5.874  15.882 -0.0867 -0.4396 -1.5222
12728TIP3    H259676   2.282   5.813  16.017 -0.4911  1.3832 -0.7589
12729TIP3   OH259677   4.620   1.324  11.712  0.5270 -0.6212  0.8162
12729TIP3    H159678   4.632   1.330  11.617  1.8710  1.3683  1.0487
12729TIP3    H259679   4.525   1.314  11.724  0.2032  0.2490 -0.7171
12730TIP3   OH259680   3.126   5.920  14.608 -0.2265  0.0853  0.6716
12730TIP3    H159681   3.147   5.997  14.661 -1.7973  2.1195 -1.4575
12730TIP3    H259682   3.192   5.919  14.539 -0.3595 -0.3103  0.5467
12731TIP3   OH259683   1.051   1.871  15.423 -0.0273 -0.5289  0.0398
12731TIP3    H159684   1.015   1.943  15.371  1.4795 -0.6398 -1.2300
12731TIP3    H259685   0.995   1.867  15.501 -0.1523  2.0405  0.1615
12732TIP3   OH259686   0.193   0.078   4.794  0.5416 -0.2681 -0.4132
12732TIP3    H159687   0.180   0.119   4.708  0.2809 -1.0307 -0.7423
12732TIP3    H259688   0.202  -0.015   4.775 -1.3795 -0.6988  0.5246
12733TIP3   OH259689   2.639   4.147  16.782  0.6570  0.3556 -0.1079
12733TIP3    H159690   2.665   4.157  16.874 -0.9386  1.3097  0.2891
12733TIP3    H259691   2.713   4.103  16.740  1.1339 -0.7399  1.7730
12734TIP3   OH259692   0.200   5.220  11.702 -0.2605  0.1321 -0.4940
12734TIP3    H159693   0.244   5.153  11.754 -3.8306 -1.2354  1.0537
12734TIP3    H259694   0.162   5.172  11.629  0.4723  1.2268 -1.6429
12735TIP3   OH259695   4.670   2.679  11.137  0.5830  0.7405 -0.1489
12735TIP3    H159696   4.718   2.620  11.196  2.1529  1.4281 -0.6810
12735TIP3    H259697   4.673   2.764  11.181 -0.8176  0.6617  0.1465
12736TIP3   OH259698   5.355   2.203   1.134  0.1851  0.2816 -0.2325
12736TIP3    H159699   5.354   2.141   1.207  1.5442 -0.7322 -1.0130
12736TIP3    H259700   5.282   2.176   1.078 -1.2526  1.4581  1.0345
12737TIP3   OH259701   3.620   3.414   2.146  0.4742  0.0696  1.0137
12737TIP3    H159702   3.555   3.364   2.196 -1.7635 -0.4342 -2.0671
12737TIP3    H259703   3.569   3.487   2.109  2.4586  1.5314  1.0185
12738TIP3   OH259704   3.767   0.882   1.941  0.5477  0.4210 -0.1286
12738TIP3    H159705   3.686   0.876   1.992 -0.5673  1.2964 -1.6925
12738TIP3    H259706   3.737   0.883   1.850  2.3969 -0.0885 -0.7851
12739TIP3   OH259707   1.964   6.238   0.267  0.5334  0.2799 -0.2277
12739TIP3    H159708   1.986   6.326   0.297  2.3220  0.1417 -1.0089
12739TIP3    H259709   1.875   6.246   0.232  0.2160  1.4877  0.7956
12740TIP3   OH259710   4.139   5.732   1.879 -0.1361  0.3508 -0.1986
12740TIP3    H159711   4.064   5.789   1.861  0.4927  1.0310 -0.7666
12740TIP3    H259712   4.146   5.676   1.801 -0.0370  0.3164 -0.1653
12741TIP3   OH259713   5.225   5.750   5.763 -0.0851 -0.2811 -0.5900
12741TIP3    H159714   5.266   5.821   5.714 -0.3015  0.4675  0.2932
12741TIP3    H259715   5.133   5.775   5.768 -0.1880 -0.7002 -0.4013
12742TIP3   OH259716   4.574   5.749   1.348 -0.0502  0.0499 -0.5988
12742TIP3    H159717   4.488   5.717   1.377  0.4225 -0.4399  0.3093
12742TIP3    H259718   4.623   5.669   1.327  0.1659  0.3312 -1.2000
12743TIP3   OH259719   2.541   1.334  10.465  0.3717  0.5200 -0.1453
12743TIP3    H159720   2.626   1.341  10.421  0.4545 -0.2540 -0.1120
12743TIP3    H259721   2.527   1.240  10.476  0.3832  0.6909  1.5326
12744TIP3   OH259722   2.709   6.746   2.541 -0.5029 -0.3164  0.4488
12744TIP3    H159723   2.751   6.758   2.456  0.8407 -0.5790  1.0535
12744TIP3    H259724   2.640   6.812   2.544 -0.4796 -0.2161 -0.7780
12745TIP3   OH259725   6.689   2.196  15.689  0.4821  0.3582 -0.1626
12745TIP3    H159726   6.742   2.121  15.716 -0.5459 -0.7727 -1.1328
12745TIP3    H259727   6.720   2.269  15.743  4.2081  0.2295 -1.8115
12746TIP3   OH259728   5.538   2.826   0.887  0.5391  0.1078  0.3881
12746TIP3    H159729   5.485   2.858   0.814 -0.1953  1.4376  1.4699
12746TIP3    H259730   5.621   2.873   0.879  0.5154  0.1377  0.3181
12747TIP3   OH259731   3.844   4.199   1.703 -0.6402  0.5723 -0.2921
12747TIP3    H159732   3.801   4.175   1.785  1.4235 -0.7610  0.4967
12747TIP3    H259733   3.895   4.277   1.725  1.1991 -0.7089  0.2315
12748TIP3   OH259734   6.539   3.132   5.251 -0.2659 -0.4198  0.8501
12748TIP3    H159735   6.445   3.133   5.266 -0.2336 -0.1119  1.0480
12748TIP3    H259736   6.549   3.128   5.156 -0.4765 -0.4919  0.8320
12749TIP3   OH259737   6.696   5.666  13.543  0.4287  0.0686  0.0749
12749TIP3    H159738   6.737   5.752  13.543  1.0610 -0.2281  0.1853
12749TIP3    H259739   6.735   5.620  13.617  1.6952 -1.0574 -1.2282
12750TIP3   OH259740   1.716   0.278  14.426  0.1255  0.7015  0.9328
12750TIP3    H159741   1.639   0.333  14.437 -0.6060 -0.4728  1.7967
12750TIP3    H259742   1.743   0.293  14.335 -1.2226  0.9874  0.5661
12751TIP3   OH259743   0.842   5.593   0.445  0.3873 -0.2364 -0.4052
12751TIP3    H159744   0.876   5.564   0.530  0.6528 -1.2474 -0.8424
12751TIP3    H259745   0.862   5.686   0.442 -0.1966 -0.0510  0.9083
12752TIP3   OH259746   3.192   1.855   4.401  0.0852 -0.2625 -0.1973
12752TIP3    H159747   3.165   1.946   4.415  0.5938 -0.3306  1.4329
12752TIP3    H259748   3.113   1.811   4.371 -0.1364  0.7286 -1.1285
12753TIP3   OH259749   4.572   2.284   4.137  0.4618  0.3570  0.5865
12753TIP3    H159750   4.658   2.324   4.148 -0.0457  1.7345 -0.1174
12753TIP3    H259751   4.512   2.343   4.183 -0.4469  1.0351 -1.3561
12754TIP3   OH259752   2.211   0.146  11.866 -0.2943  0.1682 -0.0074
12754TIP3    H159753   2.232   0.215  11.803  0.4453  0.9114  1.0218
12754TIP3    H259754   2.182   0.192  11.944 -0.7909 -0.7279  0.3604
12755TIP3   OH259755   5.816   6.323  15.336  0.3672  0.0343 -0.9596
12755TIP3    H159756   5.760   6.398  15.314  1.1247  0.9395  0.0928
12755TIP3    H259757   5.845   6.340  15.425  2.9742  0.0255 -1.7318
12756TIP3   OH259758   2.404   6.791  11.795 -0.0940 -0.3497  0.1030
12756TIP3    H159759   2.442   6.870  11.758 -0.4933 -0.2711 -0.1482
12756TIP3    H259760   2.327   6.822  11.844 -1.7516 -0.7870 -2.0474
12757TIP3   OH259761   6.609   1.672   5.413 -0.0292 -0.0011  0.4766
12757TIP3    H159762   6.656   1.633   5.487 -0.2865  0.8688  1.1167
12757TIP3    H259763   6.521   1.637   5.419  0.0544 -0.2356  0.3460
12758TIP3   OH259764   2.822   1.531   5.871 -0.0080  0.2125 -0.1284
12758TIP3    H159765   2.860   1.552   5.785 -0.7786  1.2833 -0.2228
12758TIP3    H259766   2.895   1.543   5.932 -0.1669  2.4737 -0.2741
12759TIP3   OH259767   3.558   5.996   5.345 -0.0023 -0.1341 -0.0642
12759TIP3    H159768   3.562   6.043   5.262 -1.6321 -0.0851 -0.1354
12759TIP3    H259769   3.626   6.038   5.399  2.8811 -1.8117 -2.1248
12760TIP3   OH259770   4.507   1.014  11.848 -0.1669  0.0448 -0.2798
12760TIP3    H159771   4.552   0.955  11.908 -0.6070  0.7489  0.7771
12760TIP3    H259772   4.445   1.062  11.904 -0.5013  0.8046 -1.2772
12761TIP3   OH259773   5.392   4.072   4.569 -0.2352  0.2008 -0.2098
12761TIP3    H159774   5.428   4.012   4.635 -0.3743 -2.3702 -2.2996
12761TIP3    H259775   5.304   4.038   4.552  0.4008 -0.3158 -2.8679
12762TIP3   OH259776   0.323   1.763   1.794 -0.1916  0.4891 -0.3494
12762TIP3    H159777   0.270   1.708   1.736 -1.4775 -0.4143  1.5885
12762TIP3    H259778   0.355   1.703   1.861 -0.7420  1.9035  1.2394
12763TIP3   OH259779   1.921   5.082   0.793  0.5873  0.0382 -0.2083
12763TIP3    H159780   2.016   5.071   0.790  0.4718 -1.2817  0.1706
12763TIP3    H259781   1.904   5.161   0.742  1.9615  0.8386  0.5208
12764TIP3   OH259782   1.448   6.369  12.217  0.6532  0.1543  0.7390
12764TIP3    H159783   1.464   6.277  12.241  1.4422 -0.2842 -1.2059
12764TIP3    H259784   1.494   6.379  12.133  0.1179  2.1894  0.6482
12765TIP3   OH259785   6.513   2.633   6.269 -0.4328 -1.0433 -0.0038
12765TIP3    H159786   6.471   2.561   6.316 -1.1453 -0.6586 -0.0485
12765TIP3    H259787   6.606   2.624   6.290 -0.4276 -2.3476 -0.4958
12766TIP3   OH259788   2.210   1.534  14.850 -0.3180  0.5262  0.6477
12766TIP3    H159789   2.127   1.487  14.848 -0.0804  0.0611 -2.4779
12766TIP3    H259790   2.273   1.469  14.881 -0.8774  0.5848  2.0171
12767TIP3   OH259791   5.453   3.540   3.660 -0.4948  0.2641 -0.1984
12767TIP3    H159792   5.409   3.621   3.634  1.4436  0.6907 -2.4345
12767TIP3    H259793   5.398   3.505   3.731 -2.7014  2.2687 -0.7858
12768TIP3   OH259794   5.422   1.682  13.171  0.3518  0.2505 -0.1636
12768TIP3    H159795   5.399   1.599  13.213 -0.0431  0.1477 -0.5755
12768TIP3    H259796   5.489   1.658  13.107 -1.0525 -0.0743 -1.5755
12769TIP3   OH259797   1.095   1.275  13.748  0.1752  0.4065  0.0275
12769TIP3    H159798   1.086   1.187  13.710  1.8690 -0.1745  0.8892
12769TIP3    H259799   1.015   1.286  13.801 -0.3512 -0.3435 -0.5909
12770TIP3   OH259800   2.426   6.752   3.347 -0.3876  0.0301  0.1439
12770TIP3    H159801   2.437   6.805   3.268  1.2826  0.8633  0.8753
12770TIP3    H259802   2.347   6.785   3.388 -0.9837 -0.0542 -0.9102
12771TIP3   OH259803   1.823   3.497   2.054  0.5706 -0.0495  0.2680
12771TIP3    H159804   1.902   3.522   2.103  2.2458 -2.3691 -1.0314
12771TIP3    H259805   1.844   3.518   1.963 -0.5637 -0.1342 -0.0265
12772TIP3   OH259806   3.750   3.822  12.238  0.3308 -0.3134  0.1727
12772TIP3    H159807   3.692   3.898  12.236 -0.4405 -0.9078 -0.7842
12772TIP3    H259808   3.837   3.857  12.219 -0.0152  0.3349 -0.2468
12773TIP3   OH259809   2.327   3.560   2.554  0.4248  0.0073 -0.7411
12773TIP3    H159810   2.371   3.602   2.480 -0.9251  0.7323 -1.1616
12773TIP3    H259811   2.267   3.627   2.587 -0.8733 -1.1564 -0.6388
12774TIP3   OH259812   0.477   6.399  14.088 -0.7199  0.0319 -0.2655
12774TIP3    H159813   0.563   6.422  14.125 -0.8059  0.2597 -0.2035
12774TIP3    H259814   0.471   6.451  14.008 -1.2396  0.8235  0.2729
12775TIP3   OH259815   3.301   4.585  12.435  0.0796 -0.3636  0.0061
12775TIP3    H159816   3.255   4.527  12.375  0.8909 -0.9297 -0.0764
12775TIP3    H259817   3.350   4.645  12.378 -1.6763  1.2318  0.0484
12776TIP3   OH259818   3.424   0.420  14.579  0.1119  0.0451  0.0248
12776TIP3    H159819   3.386   0.351  14.633 -0.1712  1.7740  2.2218
12776TIP3    H259820   3.498   0.452  14.631  0.9474  0.6146 -1.4675
12777TIP3   OH259821   0.120   1.876  13.812 -0.1344  0.1002  0.0262
12777TIP3    H159822   0.119   1.780  13.805  1.7585  0.1413 -2.6686
12777TIP3    H259823   0.031   1.899  13.838 -0.8929 -2.3549 -0.1195
12778TIP3   OH259824   6.024   1.450   5.889 -0.2066  0.1238  0.1228
12778TIP3    H159825   5.993   1.497   5.965 -0.6612  0.0968 -0.0445
12778TIP3    H259826   5.990   1.361   5.899  0.6707 -0.1928  0.4526
12779TIP3   OH259827   6.547   0.573  13.920  0.1766  0.1422  0.0486
12779TIP3    H159828   6.603   0.512  13.872  2.3382  1.0135  1.3386
12779TIP3    H259829   6.539   0.535  14.007  0.2359  0.8908  0.3919
12780TIP3   OH259830   5.699   6.829   2.543 -0.0453 -0.8724  0.1677
12780TIP3    H159831   5.751   6.832   2.462  0.2728 -2.5758  0.2817
12780TIP3    H259832   5.755   6.870   2.609  0.0837 -0.3516 -0.2531
12781TIP3   OH259833   3.073   4.163  15.934  0.6969 -0.0396  0.4345
12781TIP3    H159834   3.069   4.172  15.839 -1.2727 -0.4368  0.4329
12781TIP3    H259835   3.148   4.107  15.950  0.4148 -0.8578 -0.9739
12782TIP3   OH259836   2.098   2.407  13.102 -0.6667  0.1175  0.4829
12782TIP3    H159837   2.026   2.470  13.113 -2.2529 -1.5597  0.1784
12782TIP3    H259838   2.107   2.398  13.008 -0.3644 -0.0391  0.5277
12783TIP3   OH259839   3.999   1.075  16.688  0.2675 -0.2203 -0.2751
12783TIP3    H159840   4.083   1.117  16.708  0.5840  0.2652 -2.3762
12783TIP3    H259841   3.934   1.134  16.726  0.8357  0.0406  0.3146
12784TIP3   OH259842   6.635   3.189  12.885 -0.8809 -0.0208  0.6174
12784TIP3    H159843   6.636   3.179  12.980  0.0489 -3.2381  0.4101
12784TIP3    H259844   6.685   3.269  12.868 -0.7285  0.4032  2.8002
12785TIP3   OH259845   1.567   6.540  16.595 -0.2785 -0.5089  0.7995
12785TIP3    H159846   1.515   6.601  16.541 -0.9088 -0.2343  1.7001
12785TIP3    H259847   1.617   6.597  16.653  0.3482 -0.8089  0.5569
12786TIP3   OH259848   2.498   3.402  13.539 -0.4921 -0.1615 -0.3823
12786TIP3    H159849   2.419   3.349  13.537 -0.4630 -0.2850  1.2072
12786TIP3    H259850   2.570   3.339  13.527 -0.5545 -0.2328 -0.3771
12787TIP3   OH259851   2.204   4.599   2.399  0.2802 -0.2934  0.0986
12787TIP3    H159852   2.233   4.666   2.338  1.1816  1.1079  1.9779
12787TIP3    H259853   2.151   4.647   2.463 -1.4570 -1.8753 -0.0638
12788TIP3   OH259854   4.286   0.067   3.994  0.3231 -0.1994 -0.0844
12788TIP3    H159855   4.365   0.087   4.044 -0.0073  3.5042 -0.7196
12788TIP3    H259856   4.311   0.078   3.903 -0.5610 -0.4881 -0.3758
12789TIP3   OH259857   2.358   5.102   5.968 -0.2265 -0.4989 -0.2122
12789TIP3    H159858   2.424   5.171   5.962 -1.3914  0.5255 -1.5903
12789TIP3    H259859   2.333   5.083   5.878 -0.7265 -1.9752  0.1919
12790TIP3   OH259860   1.872   0.226   3.366 -0.0461  0.6149 -0.4925
12790TIP3    H159861   1.800   0.257   3.312  1.7450  1.0691 -2.7736
12790TIP3    H259862   1.935   0.297   3.366  0.0523  0.6603  2.3343
12791TIP3   OH259863   5.701   0.371   5.420  1.1688  0.0776 -0.6971
12791TIP3    H159864   5.680   0.301   5.358 -2.1187  1.3803 -1.2837
12791TIP3    H259865   5.701   0.451   5.366  1.3418  0.9003  0.4826
12792TIP3   OH259866   5.481   0.664  11.688 -0.2971 -0.4315 -1.0091
12792TIP3    H159867   5.403   0.675  11.742 -1.0818 -0.8326 -2.0277
12792TIP3    H259868   5.506   0.754  11.663  0.2084 -0.2289  0.1752
12793TIP3   OH259869   0.455   0.688  11.202  0.4592  0.2670  0.3628
12793TIP3    H159870   0.416   0.773  11.180 -0.4480 -0.1831  0.2052
12793TIP3    H259871   0.396   0.624  11.163  1.4685 -0.4311 -0.0563
12794TIP3   OH259872   3.199   2.880   1.681  0.3512  0.1712 -0.2008
12794TIP3    H159873   3.183   2.789   1.707  1.5244 -0.0105 -0.0553
12794TIP3    H259874   3.292   2.895   1.701 -0.1911  1.8922  1.2063
12795TIP3   OH259875   3.525   4.972   2.931  0.4108 -0.3523 -0.4108
12795TIP3    H159876   3.579   4.912   2.983 -0.5613 -1.0793 -0.2105
12795TIP3    H259877   3.503   5.043   2.991  0.4705 -0.4690 -0.2490
12796TIP3   OH259878   4.074   5.587   3.132 -0.0881  0.0996 -0.0525
12796TIP3    H159879   4.056   5.632   3.049 -0.8591  1.8179  1.0049
12796TIP3    H259880   4.090   5.657   3.195 -0.5849 -1.1245  1.5103
12797TIP3   OH259881   4.316   4.738  12.445 -0.5734  0.0027  0.4203
12797TIP3    H159882   4.323   4.657  12.495  1.9016 -0.2202 -0.1592
12797TIP3    H259883   4.231   4.732  12.401 -1.7013 -0.9316  2.5804
12798TIP3   OH259884   5.619   5.795   1.278 -0.3775  0.5583 -0.0178
12798TIP3    H159885   5.708   5.829   1.273  0.1792 -0.7865  0.2306
12798TIP3    H259886   5.604   5.779   1.372 -1.1656  1.4640  0.0265
12799TIP3   OH259887   2.449   3.805   4.073  0.4025  0.3191  0.5696
12799TIP3    H159888   2.536   3.772   4.095  0.6031 -0.5602 -1.3012
12799TIP3    H259889   2.464   3.863   3.998 -0.6088  0.2410  0.2972
12800TIP3   OH259890   5.032   5.065  12.997 -0.4277  0.3967  0.0330
12800TIP3    H159891   4.949   5.032  13.031  0.4082  0.5991  2.4777
12800TIP3    H259892   5.021   5.160  12.993  0.2682  0.6459  2.3696
12801TIP3   OH259893   0.147   4.530   2.554 -0.3525  0.1446  0.1769
12801TIP3    H159894   0.171   4.438   2.541 -1.6131 -0.1954  0.1914
12801TIP3    H259895   0.227   4.578   2.532  0.1374 -0.9081 -0.4528
12802TIP3   OH259896   0.824   4.927   4.128 -0.1026  0.6055 -0.6898
12802TIP3    H159897   0.780   4.856   4.175 -1.7161  1.2533 -1.1538
12802TIP3    H259898   0.835   4.894   4.039  2.6174 -0.4788 -0.0406
12803TIP3   OH259899   4.771   6.434   3.336  0.4145 -0.7492 -0.4123
12803TIP3    H159900   4.760   6.496   3.408 -0.3477  0.4498 -1.5289
12803TIP3    H259901   4.865   6.417   3.333  0.8203  1.2938 -0.8170
12804TIP3   OH259902   4.483   0.471  12.321  0.3991 -0.1030 -0.2413
12804TIP3    H159903   4.423   0.524  12.373  2.4051  0.6120  1.4980
12804TIP3    H259904   4.567   0.516  12.328  1.3300 -1.4378 -1.9727
12805TIP3   OH259905   5.196   0.912  12.835 -0.0695 -0.7546  0.1932
12805TIP3    H159906   5.217   0.827  12.874  0.6934 -0.6010  0.1357
12805TIP3    H259907   5.248   0.914  12.754 -0.6128 -0.5172 -0.1514
12806TIP3   OH259908   6.403   2.064  11.406  0.0438 -0.5760  0.0210
12806TIP3    H159909   6.359   2.129  11.351 -0.8631 -1.9236 -0.8788
12806TIP3    H259910   6.381   2.089  11.496  0.2578  0.7280 -0.2646
12807TIP3   OH259911   1.749   2.581   4.982  0.3342  0.4974 -0.4158
12807TIP3    H159912   1.671   2.628   4.955  1.0757  1.5242 -0.8154
12807TIP3    H259913   1.721   2.489   4.988 -0.7770  0.7876 -0.9928
12808TIP3   OH259914   4.665   6.269   5.170 -0.6641  0.4085  0.1820
12808TIP3    H159915   4.579   6.237   5.142 -0.3628 -0.5994  0.3776
12808TIP3    H259916   4.687   6.338   5.107 -0.0378 -1.7232 -2.0735
12809TIP3   OH259917   3.570   6.132   0.154  0.1832 -0.4956  0.4033
12809TIP3    H159918   3.495   6.102   0.206  1.7010 -2.9046  1.3688
12809TIP3    H259919   3.531   6.169   0.075 -2.2429  3.0658  2.9566
12810TIP3   OH259920   4.755   6.467  16.978  0.4172 -0.8189 -0.0744
12810TIP3    H159921   4.677   6.452  16.923  2.1327 -0.7730 -2.7113
12810TIP3    H259922   4.797   6.381  16.982  0.7234 -0.6410  0.5224
12811TIP3   OH259923   5.801   1.262  12.144 -0.8684 -0.2303 -0.8159
12811TIP3    H159924   5.752   1.327  12.195  2.4637  0.1902  2.1621
12811TIP3    H259925   5.814   1.305  12.059  0.3563  2.7244  0.7182
12812TIP3   OH259926   5.827   3.362  13.177  0.1037  0.5679 -0.2881
12812TIP3    H159927   5.900   3.413  13.212 -0.4496  1.5742 -0.5427
12812TIP3    H259928   5.865   3.308  13.108  0.5672  1.2763 -0.5942
12813TIP3   OH259929   1.587   2.989  15.126  0.1208  0.3106 -0.3140
12813TIP3    H159930   1.559   2.903  15.096  0.9098 -0.2904  0.6094
12813TIP3    H259931   1.571   2.987  15.221 -1.0762  1.6625 -0.4373
12814TIP3   OH259932   2.580   3.369   2.455 -0.3178  0.1924 -0.3266
12814TIP3    H159933   2.559   3.332   2.541  0.3824 -0.0526 -0.2561
12814TIP3    H259934   2.500   3.415   2.429 -1.6011 -2.2071 -0.8871
12815TIP3   OH259935   3.118   1.628   0.606  0.6152 -0.0056  0.2666
12815TIP3    H159936   3.197   1.624   0.552  1.2974  0.3627  1.2097
12815TIP3    H259937   3.099   1.721   0.614  0.5091 -0.0568  0.6380
12816TIP3   OH259938   4.410   1.419   4.535 -0.9119  0.1111  0.1692
12816TIP3    H159939   4.421   1.509   4.564  1.3385 -0.5730  1.7355
12816TIP3    H259940   4.321   1.416   4.499 -1.5913  2.5705  1.4069
12817TIP3   OH259941   0.353   0.289  10.818 -0.3193 -0.1442  0.0177
12817TIP3    H159942   0.338   0.209  10.869 -2.0685  0.6474  0.8265
12817TIP3    H259943   0.287   0.284  10.748 -0.1282  0.3705 -0.1981
12818TIP3   OH259944   2.039   3.694  13.269  0.1250 -0.3900  0.2361
12818TIP3    H159945   2.118   3.713  13.319  0.8999 -0.2824 -0.9904
12818TIP3    H259946   2.003   3.781  13.247 -0.1460 -0.4343  0.5021
12819TIP3   OH259947   0.050   5.083   0.715  0.0320 -0.1673 -0.6473
12819TIP3    H159948   0.070   5.121   0.800 -2.2908  0.9945 -0.5300
12819TIP3    H259949   0.135   5.066   0.675  1.4096 -3.8850  3.1169
12820TIP3   OH259950   3.659   0.495  14.706  0.1736 -0.2450  0.2082
12820TIP3    H159951   3.736   0.544  14.735 -0.1187  1.2163 -1.3553
12820TIP3    H259952   3.677   0.405  14.734  1.8117  0.3038  1.0666
12821TIP3   OH259953   3.548   1.938   2.364 -0.0370  0.1618  0.3622
12821TIP3    H159954   3.499   1.893   2.295  0.5958 -0.6048  0.3943
12821TIP3    H259955   3.486   1.947   2.436 -0.3559 -0.1054  0.1203
12822TIP3   OH259956   5.893   1.417  15.094 -0.4254  0.0217  0.4217
12822TIP3    H159957   5.856   1.383  15.175 -2.4901  2.0399  0.4413
12822TIP3    H259958   5.897   1.341  15.036 -1.5642 -0.9260  1.5143
12823TIP3   OH259959   6.055   4.905  13.566 -0.0252  0.5429  0.5045
12823TIP3    H159960   5.973   4.954  13.556  0.1176  0.6483 -0.2470
12823TIP3    H259961   6.124   4.970  13.549  0.3038  0.9214  2.9952
12824TIP3   OH259962   6.464   6.508   0.235  0.0674  0.1648 -0.1377
12824TIP3    H159963   6.374   6.479   0.250  0.5951 -1.1873  0.6560
12824TIP3    H259964   6.474   6.507   0.139 -0.1254 -1.9187 -0.1953
12825TIP3   OH259965   5.846   6.449  15.909  0.4138  0.3346  0.2338
12825TIP3    H159966   5.902   6.522  15.883  1.0179  0.1385  0.9498
12825TIP3    H259967   5.900   6.371  15.896 -0.1672  0.0213 -0.3557
12826TIP3   OH259968   5.585   1.886  15.618  0.5917 -0.1028 -0.0750
12826TIP3    H159969   5.535   1.834  15.555 -0.1733 -1.5000  1.6238
12826TIP3    H259970   5.675   1.882  15.587 -0.0500  1.1446 -2.3155
12827TIP3   OH259971   1.197   1.085   3.753 -0.4328  0.3241 -0.1723
12827TIP3    H159972   1.183   1.055   3.663 -2.3055  1.8656 -0.4561
12827TIP3    H259973   1.199   1.181   3.747 -0.6213  0.4610  1.4349
12828TIP3   OH259974   5.282   0.794  13.225  0.4198  0.0558  0.5750
12828TIP3    H159975   5.263   0.733  13.153 -2.0319  0.5060  0.7639
12828TIP3    H259976   5.314   0.873  13.182  0.4074 -0.2070  0.0790
12829TIP3   OH259977   2.292   6.215  13.322 -0.5538  0.2933 -0.7570
12829TIP3    H159978   2.261   6.174  13.403  0.5784 -0.2851 -0.6025
12829TIP3    H259979   2.380   6.247  13.343  0.1034 -0.6207 -1.9857
12830TIP3   OH259980   1.907   2.584  11.040  0.2192  0.0878  0.5978
12830TIP3    H159981   1.961   2.661  11.058 -0.5148  0.1220  3.0543
12830TIP3    H259982   1.863   2.604  10.958  2.8732  0.6188 -0.7793
12831TIP3   OH259983   4.465   6.757  14.199 -0.0866  0.2390 -0.0951
12831TIP3    H159984   4.381   6.781  14.159 -0.2591  0.3421  0.3255
12831TIP3    H259985   4.528   6.817  14.159  0.2377 -1.4376 -2.2650
12832TIP3   OH259986   1.507   6.024  14.739 -0.3732  0.0761 -0.3816
12832TIP3    H159987   1.464   6.091  14.687 -1.9877 -1.0749 -0.6326
12832TIP3    H259988   1.465   6.030  14.825  2.4503  2.1416  0.9969
12833TIP3   OH259989   2.711   2.249  12.155 -0.2779  0.1588  0.7444
12833TIP3    H159990   2.777   2.264  12.088 -0.1213 -1.4407  0.4912
12833TIP3    H259991   2.708   2.331  12.205 -1.2253  1.8551 -1.8633
12834TIP3   OH259992   4.952   4.820   3.051  0.0917 -0.0544  0.3557
12834TIP3    H159993   4.909   4.900   3.081  0.2893  0.9699 -1.8901
12834TIP3    H259994   4.880   4.761   3.030 -0.0953  0.0807  0.6028
12835TIP3   OH259995   4.817   6.791  15.390  0.6605 -0.0193  1.0817
12835TIP3    H159996   4.765   6.834  15.321  2.5059  0.0760 -0.3281
12835TIP3    H259997   4.827   6.701  15.360  3.7899  0.6663 -0.3010
12836TIP3   OH259998   5.152   4.730   3.531 -0.4528  0.4830  0.0557
12836TIP3    H159999   5.191   4.645   3.511 -0.0262 -0.1343  3.0202
12836TIP3    H260000   5.076   4.709   3.585  0.2754  1.9560  1.7673
12837TIP3   OH260001   2.650   6.266  14.042 -0.0396  0.4654 -0.0549
12837TIP3    H160002   2.718   6.202  14.021 -0.5223 -0.7043  1.7482
12837TIP3    H260003   2.686   6.350  14.012  0.8828 -0.5147 -1.8694
12838TIP3   OH260004   4.774   5.336  15.834 -0.0499  0.1567  0.6690
12838TIP3    H160005   4.858   5.296  15.811 -0.2354 -1.0994  2.0003
12838TIP3    H260006   4.718   5.318  15.759 -0.0499 -1.9712  1.1016
12839TIP3   OH260007   4.716   0.160   3.322  0.6119  0.3219 -0.6386
12839TIP3    H160008   4.805   0.188   3.345  0.4396 -0.1516  0.6783
12839TIP3    H260009   4.660   0.230   3.355  0.4944  0.8165 -1.8218
12840TIP3   OH260010   0.879   0.215  15.180 -0.2012 -0.1860 -0.1612
12840TIP3    H160011   0.843   0.193  15.094  0.9671 -1.6883 -0.3188
12840TIP3    H260012   0.901   0.130  15.219  1.8598  0.5534  0.4399
12841TIP3   OH260013   0.584   0.026  15.117  0.2367  0.3188  0.6465
12841TIP3    H160014   0.615   0.001  15.030  1.9590  0.1181  1.2836
12841TIP3    H260015   0.554   0.116  15.106  1.5232  0.7058  0.0742
12842TIP3   OH260016   3.878   6.673  16.351  0.0865 -0.6221  0.8134
12842TIP3    H160017   3.792   6.661  16.310  0.3373  1.4417 -0.4223
12842TIP3    H260018   3.920   6.587  16.342 -1.2764 -1.2522  0.0703
12843TIP3   OH260019   0.086   3.623   1.290 -0.0385  0.0280  0.0379
12843TIP3    H160020   0.019   3.554   1.287 -0.1367  0.0090  1.6370
12843TIP3    H260021   0.169   3.576   1.281 -0.1148 -0.3015  0.9368
12844TIP3   OH260022   6.446   2.926  16.015  0.4432  0.2996  0.3931
12844TIP3    H160023   6.527   2.888  16.049  0.1170  0.1678  1.0527
12844TIP3    H260024   6.472   2.973  15.936  1.1491  0.1994  0.5599
12845TIP3   OH260025   0.442   6.459   1.245  0.0913  0.5429  0.3987
12845TIP3    H160026   0.531   6.493   1.256 -0.2577  1.4995  0.4093
12845TIP3    H260027   0.431   6.449   1.150  0.2955  0.1693  0.4125
12846TIP3   OH260028   0.615   6.621   1.839 -0.4944  0.5721 -0.1944
12846TIP3    H160029   0.663   6.642   1.919 -0.9001 -0.7219  0.4201
12846TIP3    H260030   0.656   6.541   1.807 -0.6668  0.8017 -1.0074
12847TIP3   OH260031   1.636   2.218   1.925 -0.0137  0.0043 -0.4472
12847TIP3    H160032   1.569   2.156   1.953  0.5424 -0.5944 -0.4161
12847TIP3    H260033   1.669   2.183   1.843  0.1527  0.3810 -0.5442
12848TIP3   OH260034   0.514   5.389  14.108 -0.6475 -0.5089 -0.1586
12848TIP3    H160035   0.495   5.298  14.131  1.2791 -0.4055  2.3793
12848TIP3    H260036   0.595   5.384  14.057 -0.2522 -0.2113  0.4283
12849TIP3   OH260037   2.691   0.510   6.683  0.7065 -0.7824 -0.0768
12849TIP3    H160038   2.749   0.450   6.730  1.4990 -0.3614 -0.4927
12849TIP3    H260039   2.747   0.550   6.617  0.1738  0.3543  0.1402
12850TIP3   OH260040   0.916   1.935   4.572  0.0665 -0.4408 -0.2708
12850TIP3    H160041   0.873   1.858   4.609  0.2964 -0.9529 -1.0452
12850TIP3    H260042   0.854   1.967   4.506 -0.9454  1.2447  1.3826
12851TIP3   OH260043   4.448   2.513   1.360  0.0666 -0.0687 -0.1508
12851TIP3    H160044   4.365   2.467   1.370 -0.0178  0.1447  0.1250
12851TIP3    H260045   4.470   2.543   1.448 -0.1071  0.8177 -0.3977
12852TIP3   OH260046   3.995   3.702  16.957  0.1136  0.1715 -0.0104
12852TIP3    H160047   3.917   3.677  16.907  0.5505 -0.7508 -0.2380
12852TIP3    H260048   3.966   3.698  17.049  0.6979 -3.3413  0.1539
12853TIP3   OH260049   1.808   2.696  12.463  0.5112  0.0806 -0.0288
12853TIP3    H160050   1.805   2.786  12.432  0.0946  0.1772  0.2820
12853TIP3    H260051   1.722   2.681  12.503  0.3677 -0.6424 -0.5887
12854TIP3   OH260052   5.827   4.957  13.834  0.2462  0.4184 -0.8151
12854TIP3    H160053   5.866   4.897  13.897 -0.6916  1.6476  1.0191
12854TIP3    H260054   5.899   5.016  13.810  0.2961  0.7861  0.1861
12855TIP3   OH260055   1.073   3.884  13.226 -0.3414  0.1600 -0.7760
12855TIP3    H160056   0.996   3.887  13.282 -0.4457 -1.6960 -0.7801
12855TIP3    H260057   1.070   3.967  13.177 -1.0158  1.1695  0.8937
12856TIP3   OH260058   5.848   3.274   2.406 -0.4121 -0.1229 -0.1597
12856TIP3    H160059   5.916   3.208   2.421 -0.1360 -0.1525 -1.4444
12856TIP3    H260060   5.894   3.358   2.414 -0.4793 -0.1082  0.1065
12857TIP3   OH260061   4.477   3.028  13.641 -0.0093  0.8688 -0.0721
12857TIP3    H160062   4.420   2.963  13.600  2.1531 -1.0789 -0.2081
12857TIP3    H260063   4.548   3.041  13.577 -0.9697  4.4150 -0.6370
12858TIP3   OH260064   3.584   4.960  11.138  0.5203  0.7577 -0.3703
12858TIP3    H160065   3.678   4.976  11.147  0.8326 -1.5654  1.0962
12858TIP3    H260066   3.570   4.955  11.043  2.1437 -0.1591 -0.6017
12859TIP3   OH260067   4.601   4.217   4.876  0.2037  0.1270 -0.3974
12859TIP3    H160068   4.549   4.180   4.947 -2.8391 -0.1996 -2.5778
12859TIP3    H260069   4.683   4.167   4.877 -1.0812 -2.1080  0.8751
12860TIP3   OH260070   0.619   0.319   5.547 -0.7302 -0.2443  0.3114
12860TIP3    H160071   0.541   0.363   5.514 -1.1041 -0.8399  0.4009
12860TIP3    H260072   0.641   0.367   5.627 -1.6348 -0.7366  0.8748
12861TIP3   OH260073   3.543   5.063  10.562  0.6245  0.1125 -0.1528
12861TIP3    H160074   3.451   5.052  10.584  0.7780 -0.3217  0.2869
12861TIP3    H260075   3.549   5.153  10.529  0.0567  0.1610 -0.1347
12862TIP3   OH260076   4.568   6.365  15.761 -0.2075  0.1751 -0.0173
12862TIP3    H160077   4.612   6.449  15.744  2.1420 -1.3591 -2.2162
12862TIP3    H260078   4.590   6.344  15.851 -0.8260  1.8878  0.5694
12863TIP3   OH260079   4.806   0.635  11.221  0.7174 -0.2296  0.2352
12863TIP3    H160080   4.736   0.665  11.163 -0.8542  0.7714  2.4861
12863TIP3    H260081   4.884   0.680  11.190 -0.3336  1.2677 -0.3616
12864TIP3   OH260082   1.194   5.770   6.258  0.0641 -0.1151 -0.0317
12864TIP3    H160083   1.170   5.835   6.324  1.5033 -0.1077  0.5330
12864TIP3    H260084   1.187   5.686   6.304 -6.3100 -1.1307 -1.9331
12865TIP3   OH260085   2.707   0.033  11.865 -0.0895  0.3181 -0.0292
12865TIP3    H160086   2.644   0.071  11.803  0.6837  2.0278  0.1621
12865TIP3    H260087   2.769  -0.014  11.810  0.1414  1.1467 -0.4921
12866TIP3   OH260088   0.573   2.276  16.570 -0.0038  0.4914 -0.2151
12866TIP3    H160089   0.494   2.315  16.607  0.5910  0.4915  1.0913
12866TIP3    H260090   0.645   2.314  16.620  0.8121  0.2834 -1.2008
12867TIP3   OH260091   2.940   6.634  13.196 -0.0427 -0.3961  0.2616
12867TIP3    H160092   2.941   6.706  13.134 -0.7940  0.5751  1.3349
12867TIP3    H260093   3.019   6.583  13.175  1.8798  2.0893  0.9964
12868TIP3   OH260094   5.772   4.998  10.905  0.3497  0.5421 -0.3168
12868TIP3    H160095   5.767   4.907  10.935 -0.7559  0.7998  0.3390
12868TIP3    H260096   5.701   5.042  10.951  1.3963  1.9377  0.0230
12869TIP3   OH260097   3.017   3.817  16.476 -0.3013 -0.2274  0.0545
12869TIP3    H160098   3.073   3.846  16.404  1.4003 -1.8843  0.6038
12869TIP3    H260099   3.052   3.863  16.553 -0.1335 -0.7477  0.2927
12870TIP3   OH260100   0.908   4.642  14.936  0.3865 -0.1243  0.1272
12870TIP3    H160101   0.982   4.685  14.892  0.1773  0.9761  0.8036
12870TIP3    H260102   0.872   4.583  14.870 -0.2800  1.8821 -1.4223
12871TIP3   OH260103   6.191   0.023  12.442 -0.1292 -0.0244  0.1715
12871TIP3    H160104   6.238   0.054  12.365 -0.0268  1.2415  0.7208
12871TIP3    H260105   6.257  -0.023  12.494  0.1092  0.2680  0.1285
12872TIP3   OH260106   5.240   6.200   3.607  0.2321  0.7395 -0.2278
12872TIP3    H160107   5.214   6.176   3.518 -0.0372  1.4299 -0.3460
12872TIP3    H260108   5.231   6.119   3.657  1.2864  0.1108 -1.0124
12873TIP3   OH260109   1.752   1.639   3.474 -0.1396  0.2126  0.0885
12873TIP3    H160110   1.762   1.694   3.552 -0.7583 -1.0226  1.0842
12873TIP3    H260111   1.840   1.636   3.435  0.0088  1.4701  0.2856
12874TIP3   OH260112   1.064   4.747   6.305  0.6498  0.1981  0.8582
12874TIP3    H160113   0.976   4.783   6.302  0.7191  0.2972 -0.7525
12874TIP3    H260114   1.058   4.673   6.366 -0.4610  0.4080  1.0087
12875TIP3   OH260115   0.857   0.917  14.037  0.0292  0.0165 -0.2706
12875TIP3    H160116   0.904   0.853  14.091 -1.9624 -2.5021 -1.3750
12875TIP3    H260117   0.863   0.883  13.948 -0.3862  1.8448 -1.0478
12876TIP3   OH260118   0.942   1.052   4.408  0.4642 -0.2567 -0.6349
12876TIP3    H160119   0.906   0.972   4.371  0.2596  0.6042 -2.4317
12876TIP3    H260120   1.019   1.071   4.354  0.1916  1.0295 -0.6113
12877TIP3   OH260121   3.021   2.852   0.219 -0.0727  0.2465 -0.2994
12877TIP3    H160122   3.025   2.861   0.314  1.8678 -1.3755 -0.1550
12877TIP3    H260123   3.024   2.942   0.187 -1.3422  0.8514  1.1599
12878TIP3   OH260124   5.518   4.088   0.092 -0.3463  0.0320  0.3280
12878TIP3    H160125   5.535   4.068   0.184  0.4796  2.0722  0.6624
12878TIP3    H260126   5.603   4.079   0.049 -0.9324 -2.0759 -0.5385
12879TIP3   OH260127   3.585   5.634  12.682  0.0357 -0.6232  0.2937
12879TIP3    H160128   3.535   5.703  12.726  1.6528  1.2250 -0.6137
12879TIP3    H260129   3.540   5.553  12.706 -2.2319  0.7521  1.0506
12880TIP3   OH260130   1.458   6.142  12.410  0.1055 -0.5364  0.0356
12880TIP3    H160131   1.459   6.047  12.413 -0.5126 -0.5693 -0.5662
12880TIP3    H260132   1.531   6.169  12.467  1.8012 -1.4025 -1.6388
12881TIP3   OH260133   6.300   6.561   5.004  0.1954  0.1742  0.5555
12881TIP3    H160134   6.251   6.588   5.082 -0.9769 -0.3569  0.0223
12881TIP3    H260135   6.345   6.481   5.031 -2.7889 -1.9267 -0.1664
12882TIP3   OH260136   1.353   6.811   1.750 -0.7402  0.0828 -0.1766
12882TIP3    H160137   1.386   6.752   1.682  0.1102  0.1462  0.1777
12882TIP3    H260138   1.375   6.899   1.718 -3.1119  0.3536 -1.3238
12883TIP3   OH260139   3.869   4.916   2.895 -0.6064  0.0977  0.0603
12883TIP3    H160140   3.838   5.002   2.867 -1.2444 -0.4345 -0.9391
12883TIP3    H260141   3.803   4.887   2.959 -1.0068 -0.1290 -0.4556
12884TIP3   OH260142   1.940   3.576  12.295 -0.1980  0.0606 -0.2927
12884TIP3    H160143   1.910   3.645  12.354  0.3449  0.1993 -0.1660
12884TIP3    H260144   1.869   3.512  12.294 -0.5326  0.4261 -0.0904
12885TIP3   OH260145   1.827   5.697  13.752 -0.0576 -0.2862 -0.0955
12885TIP3    H160146   1.758   5.719  13.689 -0.8095  1.7555  1.3181
12885TIP3    H260147   1.794   5.619  13.797 -1.6807  0.8477  0.7799
12886TIP3   OH260148   3.768   0.114  14.566 -0.1674  0.5120 -0.1705
12886TIP3    H160149   3.720   0.097  14.485 -1.5485 -1.2965  0.9503
12886TIP3    H260150   3.840   0.051  14.564  0.6662  1.4385 -0.6077
12887TIP3   OH260151   4.102   1.695  16.672  0.0997  0.3786  0.2046
12887TIP3    H160152   4.046   1.694  16.749 -1.4307 -1.7611 -0.8543
12887TIP3    H260153   4.168   1.762  16.692  1.4343 -1.8645  4.4811
12888TIP3   OH260154   0.382   5.244  15.998 -0.1591 -0.0318  0.2324
12888TIP3    H160155   0.352   5.275  15.913  0.8711 -1.7603 -0.8351
12888TIP3    H260156   0.392   5.323  16.051  3.3806  1.7251 -2.6050
12889TIP3   OH260157   3.932   0.025   2.709  0.9184  0.2010  0.4313
12889TIP3    H160158   3.999  -0.000   2.771  0.2071 -1.3416  0.6122
12889TIP3    H260159   3.974   0.091   2.653  1.1177  2.8289  3.4353
12890TIP3   OH260160   3.120   5.462  15.389  0.1112 -0.9391 -0.1485
12890TIP3    H160161   3.073   5.379  15.385 -0.3634 -0.6961  0.3995
12890TIP3    H260162   3.126   5.490  15.297 -1.4986 -0.5912 -0.1732
12891TIP3   OH260163   3.159   1.098  13.013  0.0787 -1.0684  0.5547
12891TIP3    H160164   3.097   1.026  13.004 -2.5435  0.7907  2.0805
12891TIP3    H260165   3.168   1.134  12.924 -2.3962 -0.4511  0.4743
12892TIP3   OH260166   3.537   0.773  12.630  0.5412  0.1895  0.0546
12892TIP3    H160167   3.601   0.703  12.645  0.9761  0.7444  0.9440
12892TIP3    H260168   3.529   0.780  12.535  2.0004  0.2611 -0.0882
12893TIP3   OH260169   4.538   5.227   5.023 -0.3059 -0.2346  0.0868
12893TIP3    H160170   4.480   5.220   5.098  0.0268 -0.0562  0.3609
12893TIP3    H260171   4.507   5.159   4.963 -1.1134  0.1970  0.0090
12894TIP3   OH260172   1.980   5.698   5.591 -0.1559 -0.1867  0.5092
12894TIP3    H160173   2.073   5.675   5.588 -0.4841 -1.7893  1.2122
12894TIP3    H260174   1.935   5.614   5.585 -1.5659  0.5628  0.2728
12895TIP3   OH260175   4.332   1.550  16.877  0.3848 -0.2448  0.2796
12895TIP3    H160176   4.424   1.568  16.897 -0.3087  3.4655  0.8931
12895TIP3    H260177   4.285   1.578  16.956 -1.3449 -1.5371 -0.2301
12896TIP3   OH260178   3.486   4.010  15.086 -0.8042 -0.0497  0.1792
12896TIP3    H160179   3.417   4.064  15.048 -1.1645 -0.9747 -0.5199
12896TIP3    H260180   3.547   4.073  15.126 -1.3161  0.8524 -0.4342
12897TIP3   OH260181   2.577   5.040   1.671  0.4274  0.3348  0.4709
12897TIP3    H160182   2.666   5.061   1.644  0.1617  1.2720  0.2854
12897TIP3    H260183   2.533   5.012   1.591  0.3038  0.7875  0.3750
12898TIP3   OH260184   4.048   4.128   1.515 -0.1411  0.5877  0.3107
12898TIP3    H160185   4.107   4.203   1.514 -0.3187  0.7631  1.6777
12898TIP3    H260186   3.990   4.143   1.589 -0.8731 -0.3724 -0.0455
12899TIP3   OH260187   2.463   2.292   2.246 -0.4671 -0.3837 -0.5495
12899TIP3    H160188   2.543   2.343   2.260  0.1246 -1.2488 -0.6747
12899TIP3    H260189   2.493   2.213   2.200 -1.4667 -0.5051 -1.0215
12900TIP3   OH260190   3.217   2.078   5.716  0.5455 -0.8140 -0.0065
12900TIP3    H160191   3.232   1.999   5.665 -0.9926 -0.7823 -0.5582
12900TIP3    H260192   3.229   2.150   5.654  2.4444 -0.5452  0.6092
12901TIP3   OH260193   0.496   0.728  13.423  0.2080 -0.3549 -0.3094
12901TIP3    H160194   0.499   0.674  13.344  0.3754  0.6620 -1.0240
12901TIP3    H260195   0.501   0.665  13.495  0.3563 -1.2888 -1.1057
12902TIP3   OH260196   2.180   2.537  10.026  0.3836 -0.0382  0.9153
12902TIP3    H160197   2.143   2.620   9.994  1.1548  0.5516  1.5285
12902TIP3    H260198   2.138   2.524  10.111  3.5563  2.1491  3.0473
12903TIP3   OH260199   0.879   6.324   5.105  0.3749  0.8883 -0.5244
12903TIP3    H160200   0.809   6.285   5.053  0.0203  0.8811 -0.0398
12903TIP3    H260201   0.931   6.374   5.041 -1.9586  3.6819 -0.4212
12904TIP3   OH260202   5.026   0.764  11.089  0.5785 -0.0274 -0.4774
12904TIP3    H160203   5.075   0.792  11.012  0.6556  1.0183 -0.0623
12904TIP3    H260204   5.088   0.771  11.161  0.1610  0.1715 -0.1326
12905TIP3   OH260205   1.099   3.648   3.729  0.0924  0.7265 -0.2952
12905TIP3    H160206   1.009   3.680   3.719  0.2151  0.9940 -0.5846
12905TIP3    H260207   1.090   3.561   3.767 -0.3476  0.2577 -1.4273
12906TIP3   OH260208   1.503   6.330  13.975  0.2436 -0.1608  0.5551
12906TIP3    H160209   1.447   6.396  13.935  1.6393  0.6820 -0.0799
12906TIP3    H260210   1.507   6.259  13.911  0.9917  0.3771  0.0037
12907TIP3   OH260211   2.755   5.706   6.089 -0.0934 -0.1738 -0.4467
12907TIP3    H160212   2.713   5.622   6.108 -0.8810  0.2541 -0.2368
12907TIP3    H260213   2.695   5.772   6.125  0.6844  0.4666 -0.2897
12908TIP3   OH260214   0.088   0.035  10.923 -0.1747  0.5230 -0.1005
12908TIP3    H160215   0.047   0.050  10.838 -1.2609  1.0156  0.4850
12908TIP3    H260216   0.154  -0.032  10.907 -0.4339  0.5371 -1.3017
12909TIP3   OH260217   2.358   3.060   1.457  0.3494  0.4255 -0.2372
12909TIP3    H160218   2.381   3.123   1.525 -1.2939  0.0649  0.7402
12909TIP3    H260219   2.296   3.001   1.501 -1.5317  0.7476 -2.3008
12910TIP3   OH260220   1.670   1.834  13.116  0.8350 -0.5386 -0.3514
12910TIP3    H160221   1.747   1.877  13.152  0.7599  0.3019 -1.1779
12910TIP3    H260222   1.695   1.810  13.027 -0.0223  0.2195 -0.8117
12911TIP3   OH260223   0.423   0.730   0.055  0.1066  0.3484  0.3811
12911TIP3    H160224   0.468   0.733  -0.029  0.5130  0.8184  0.6074
12911TIP3    H260225   0.494   0.723   0.120 -0.2579 -2.1189  0.6132
12912TIP3   OH260226   3.615   5.436   4.912  0.6734 -0.4135 -0.3397
12912TIP3    H160227   3.622   5.517   4.861  0.7522 -1.0277 -1.3214
12912TIP3    H260228   3.686   5.441   4.975  2.4019 -0.9253 -2.1512
12913TIP3   OH260229   1.360   6.635  12.264 -0.5060  0.2257 -0.0826
12913TIP3    H160230   1.358   6.544  12.295 -1.4264 -0.0772 -0.9371
12913TIP3    H260231   1.390   6.686  12.339 -2.6865 -0.4492  1.3641
12914TIP3   OH260232   2.730   3.011   1.040  0.1910 -0.9372 -0.4207
12914TIP3    H160233   2.730   2.945   1.109  0.8450 -1.5453 -0.9911
12914TIP3    H260234   2.823   3.026   1.021  0.0163 -1.9003 -2.2269
12915TIP3   OH260235   5.665   1.822   2.718  0.6123  0.0520  0.1871
12915TIP3    H160236   5.647   1.746   2.662 -0.0673  0.4283 -0.1209
12915TIP3    H260237   5.724   1.789   2.786 -1.7653 -1.4576  1.6506
12916TIP3   OH260238   1.685   0.246   2.598  0.3786 -0.3335 -0.6955
12916TIP3    H160239   1.632   0.253   2.519  0.2569 -0.1094 -0.5951
12916TIP3    H260240   1.719   0.334   2.612 -1.0617  0.0733  0.5029
12917TIP3   OH260241   5.405   2.587   1.350 -0.4328 -0.1871  0.2784
12917TIP3    H160242   5.436   2.625   1.268 -1.4446 -1.4840 -0.7519
12917TIP3    H260243   5.368   2.662   1.398 -1.8508  0.3021 -1.4384
12918TIP3   OH260244   3.399   3.991  13.533  0.6670  0.5671 -0.5263
12918TIP3    H160245   3.379   3.902  13.562  0.8562  1.1128  1.4237
12918TIP3    H260246   3.433   3.980  13.444 -0.2830 -1.1855 -0.7260
12919TIP3   OH260247   0.352   2.805  14.945  0.2722  0.1511  0.0207
12919TIP3    H160248   0.383   2.817  14.855  0.4417 -0.7067 -0.0403
12919TIP3    H260249   0.411   2.740  14.983  0.0545  0.3316  0.6810
12920TIP3   OH260250   4.522   4.891  14.375 -0.8597 -0.3611 -0.0468
12920TIP3    H160251   4.487   4.817  14.425  0.5725 -0.7790  0.3889
12920TIP3    H260252   4.447   4.948  14.360 -1.6877 -1.1575  0.9451
12921TIP3   OH260253   0.744   5.633  17.121 -0.5688  0.5062 -0.4700
12921TIP3    H160254   0.707   5.638  17.209 -3.4284 -0.1149 -1.5325
12921TIP3    H260255   0.816   5.570  17.129 -0.5040  0.7524  1.4633
12922TIP3   OH260256   0.406   2.340   4.476  0.2491  0.0251 -0.5927
12922TIP3    H160257   0.416   2.435   4.467 -1.8198  0.1688 -1.9122
12922TIP3    H260258   0.426   2.323   4.568 -1.6299  2.1152  0.2996
12923TIP3   OH260259   4.045   3.836  13.281 -0.1271  0.3404  0.1264
12923TIP3    H160260   4.025   3.757  13.331  0.5399  0.4851  0.6415
12923TIP3    H260261   4.126   3.816  13.236  0.4527  0.9854  0.8575
12924TIP3   OH260262   0.716   6.600  11.293  0.5993 -0.2259 -0.8973
12924TIP3    H160263   0.667   6.628  11.216  0.5686  2.4288 -0.0232
12924TIP3    H260264   0.652   6.600  11.364  1.3086  0.8938 -0.2215
12925TIP3   OH260265   3.592   5.677  15.632 -0.0487 -0.1897 -0.4280
12925TIP3    H160266   3.539   5.667  15.553  1.3641 -0.8540 -1.3271
12925TIP3    H260267   3.586   5.593  15.676  2.8009 -1.4576 -2.2180
12926TIP3   OH260268   0.098   0.281   0.822  0.1169 -0.0920 -0.2279
12926TIP3    H160269   0.086   0.222   0.748 -0.0215 -1.3768  0.7864
12926TIP3    H260270   0.164   0.238   0.877 -0.3227  0.4729  0.7694
12927TIP3   OH260271   1.966   6.624   5.643 -0.2733  0.4916 -0.4283
12927TIP3    H160272   1.941   6.606   5.734 -0.4049 -0.7423 -0.6968
12927TIP3    H260273   2.056   6.656   5.648 -0.6175  1.3931  0.2192
12928TIP3   OH260274   1.436   3.633   5.774 -0.1152  0.5656 -0.5475
12928TIP3    H160275   1.509   3.690   5.793  0.9263 -0.2219 -1.9594
12928TIP3    H260276   1.359   3.690   5.775  0.5539  1.4666  0.5969
12929TIP3   OH260277   1.166   4.122  13.744  0.0726  0.0003  0.5364
12929TIP3    H160278   1.077   4.156  13.739  0.2966  0.8075  1.5253
12929TIP3    H260279   1.220   4.201  13.754  0.7510 -0.5599  1.3747
12930TIP3   OH260280   0.018   4.455   0.018 -0.1078 -0.3282 -0.1125
12930TIP3    H160281  -0.071   4.452   0.053 -0.6293  0.4269 -1.3007
12930TIP3    H260282   0.071   4.488   0.090 -0.4916 -2.2319  1.1198
12931TIP3   OH260283   2.345   6.444  12.430  0.3268  0.3476 -0.0965
12931TIP3    H160284   2.378   6.363  12.390 -0.9654  0.1200 -0.7453
12931TIP3    H260285   2.347   6.426  12.524  0.4638 -0.2688 -0.2112
12932TIP3   OH260286   0.368   6.254   3.200 -0.1384 -0.3159 -0.1590
12932TIP3    H160287   0.294   6.313   3.206 -1.8395 -2.3337 -0.1762
12932TIP3    H260288   0.382   6.223   3.289 -0.0468 -0.7712 -0.3266
12933TIP3   OH260289   4.231   6.671   4.061 -0.3013  0.5444 -0.1268
12933TIP3    H160290   4.230   6.758   4.021  0.6552  0.2362 -0.8561
12933TIP3    H260291   4.224   6.610   3.987  0.8031 -0.0227  0.2066
12934TIP3   OH260292   4.923   6.271   3.544  0.1669 -0.0732 -0.3453
12934TIP3    H160293   4.928   6.333   3.617  1.4339  1.0705 -1.3469
12934TIP3    H260294   4.987   6.303   3.481  0.5205 -2.1425 -1.1343
12935TIP3   OH260295   4.030   6.447  11.124 -0.4485  0.0643 -0.7871
12935TIP3    H160296   4.014   6.407  11.209 -1.6155  0.5956 -0.7357
12935TIP3    H260297   4.064   6.376  11.069  0.1234 -0.3273  0.0513
12936TIP3   OH260298   3.854   6.607  10.913  0.1430 -0.2629 -0.2302
12936TIP3    H160299   3.862   6.600  11.008  0.3911  0.4130 -0.1988
12936TIP3    H260300   3.926   6.554  10.880 -0.2794 -0.9610 -0.0573
12937TIP3   OH260301   1.525   1.722   5.970  1.0315 -0.0533  0.2096
12937TIP3    H160302   1.520   1.743   6.064  0.7072 -0.1508  0.2159
12937TIP3    H260303   1.536   1.806   5.927 -2.5117  0.4955  0.0516
12938TIP3   OH260304   1.591   6.608  13.171 -0.1579 -0.5815  0.1509
12938TIP3    H160305   1.564   6.680  13.114 -0.3513  0.3656  1.3936
12938TIP3    H260306   1.687   6.606  13.164 -0.0850  0.3244  0.6936
12939TIP3   OH260307   3.841   4.672   0.483 -0.1478  0.5578  0.0467
12939TIP3    H160308   3.756   4.630   0.497 -0.3113 -0.0510 -2.3167
12939TIP3    H260309   3.836   4.707   0.394  2.2160  0.1113 -0.3282
12940TIP3   OH260310   2.600   2.987   0.787  0.4492 -0.7168 -0.0536
12940TIP3    H160311   2.645   3.013   0.867 -0.4577  0.5823  0.0739
12940TIP3    H260312   2.524   2.937   0.817  0.2411 -0.4385 -0.1136
12941TIP3   OH260313   3.620   2.658   3.283  0.1249  0.1008 -0.1902
12941TIP3    H160314   3.650   2.618   3.202  3.4837 -1.1399  1.4722
12941TIP3    H260315   3.561   2.594   3.321 -0.9482  0.4037 -1.2894
12942TIP3   OH260316   1.834   4.234  13.445 -0.3015 -0.3643  0.7045
12942TIP3    H160317   1.851   4.231  13.350  0.2076  0.2468  0.7690
12942TIP3    H260318   1.802   4.322  13.461  1.7313  0.2903  1.4267
12943TIP3   OH260319   1.261   5.180  14.934 -0.6076  0.1801  0.4197
12943TIP3    H160320   1.267   5.275  14.921 -0.8710  0.1964  0.4109
12943TIP3    H260321   1.290   5.142  14.851 -1.6707  0.2715 -0.0099
12944TIP3   OH260322   3.451   1.724   1.125  0.3454 -0.1820 -0.4820
12944TIP3    H160323   3.538   1.693   1.099 -0.7162 -1.3909 -2.9651
12944TIP3    H260324   3.422   1.661   1.191  0.0492 -1.9204 -2.1701
12945TIP3   OH260325   6.316   0.794  16.372  0.1770 -0.1618 -0.0847
12945TIP3    H160326   6.287   0.725  16.312 -0.3877 -0.7372  0.8215
12945TIP3    H260327   6.386   0.753  16.423 -1.1597 -0.6059  1.4911
12946TIP3   OH260328   6.290   3.230  11.567  0.2280  0.6778  0.8298
12946TIP3    H160329   6.249   3.154  11.607 -0.9062  1.2199  0.7284
12946TIP3    H260330   6.340   3.194  11.494  0.8625 -0.1154  1.6369
12947TIP3   OH260331   4.153   0.457   1.308 -0.3033  0.2083 -0.1250
12947TIP3    H160332   4.107   0.495   1.382 -0.8891 -1.2439  0.2960
12947TIP3    H260333   4.237   0.429   1.344  0.6225  2.0682 -0.6974
12948TIP3   OH260334   1.418   4.956  14.943 -0.4871 -0.7414  0.1567
12948TIP3    H160335   1.383   5.044  14.931 -0.0548 -0.7615 -1.3881
12948TIP3    H260336   1.510   4.963  14.920  0.1500 -1.1010  2.3981
12949TIP3   OH260337   4.953   4.465  17.071  0.0764 -0.3491  0.3711
12949TIP3    H160338   4.891   4.475  16.999  1.4874 -0.1197 -0.8534
12949TIP3    H260339   5.030   4.516  17.045  0.3021  0.5025  2.4597
12950TIP3   OH260340   4.146   0.241  11.570 -0.1613  0.1364  0.3136
12950TIP3    H160341   4.109   0.236  11.658 -0.4896  1.9297  0.3206
12950TIP3    H260342   4.219   0.301  11.579  0.2652 -0.2474 -0.5082
12951TIP3   OH260343   3.461   0.505  11.167 -0.0613  0.0182 -0.0040
12951TIP3    H160344   3.369   0.528  11.153 -1.2850 -2.8041  2.3550
12951TIP3    H260345   3.460   0.453  11.247  3.8745  1.2522  1.0204
12952TIP3   OH260346   6.064   0.302  15.881  0.0297  0.2564 -0.4357
12952TIP3    H160347   6.104   0.216  15.869 -0.0550  0.0578  0.6532
12952TIP3    H260348   6.062   0.340  15.793 -1.1163 -1.3684 -1.1555
12953TIP3   OH260349   3.056   2.321  12.345 -0.0453 -0.2260  0.3302
12953TIP3    H160350   2.978   2.329  12.289  1.4382 -2.6751 -2.3324
12953TIP3    H260351   3.116   2.389  12.312  0.3100 -0.7674 -0.1530
12954TIP3   OH260352   2.375   0.038   0.533  0.3762  0.2378 -0.2677
12954TIP3    H160353   2.440  -0.032   0.523 -0.3648 -0.4987 -0.1055
12954TIP3    H260354   2.302  -0.005   0.578 -0.3116  0.9890 -0.6520
12955TIP3   OH260355   6.345   6.418   0.467  0.1945 -0.0834 -0.6700
12955TIP3    H160356   6.255   6.403   0.496  0.0795  0.3214 -0.8109
12955TIP3    H260357   6.397   6.409   0.547  0.0062 -0.1123 -0.5494
12956TIP3   OH260358   1.136   5.775   3.993  0.0534  0.0761 -0.2737
12956TIP3    H160359   1.196   5.803   4.062 -1.1329  1.2619  0.3111
12956TIP3    H260360   1.096   5.694   4.027 -0.2113  0.4267  0.2522
12957TIP3   OH260361   0.090   0.106   3.946 -0.6614 -0.1159 -0.1727
12957TIP3    H160362   0.020   0.070   3.892 -0.2700 -0.6652 -0.3280
12957TIP3    H260363   0.131   0.030   3.986 -0.3156  0.2165  0.1168
12958TIP3   OH260364   0.183   6.356   2.413  0.2553  0.5696 -0.0655
12958TIP3    H160365   0.178   6.321   2.502  0.9112 -0.4090 -0.3899
12958TIP3    H260366   0.092   6.358   2.383  0.2538 -2.3223 -0.5306
12959TIP3   OH260367   3.280   5.008  13.546 -0.0775 -0.3299 -0.3591
12959TIP3    H160368   3.313   5.085  13.500  2.0683 -0.2780  1.1232
12959TIP3    H260369   3.320   4.934  13.500 -0.5897 -0.4796 -0.5784
12960TIP3   OH260370   5.900   3.606   1.116  0.2424  0.8040  0.2542
12960TIP3    H160371   5.936   3.610   1.204 -1.1745 -0.4218  0.9412
12960TIP3    H260372   5.930   3.522   1.081 -1.9220 -0.3224  0.9028
12961TIP3   OH260373   5.397   5.091   5.200  0.4492  0.4583  0.2159
12961TIP3    H160374   5.312   5.109   5.240  0.0140 -1.5950  0.3167
12961TIP3    H260375   5.403   4.995   5.199  3.5227  0.5045  1.8795
12962TIP3   OH260376   6.164   0.435   4.706 -0.0884  0.3069 -0.3516
12962TIP3    H160377   6.225   0.387   4.763 -1.5235 -0.0114  0.9549
12962TIP3    H260378   6.162   0.523   4.742 -0.5827  0.2509 -0.2412
12963TIP3   OH260379   2.376   4.660   0.379 -0.4310  0.0214  0.2144
12963TIP3    H160380   2.399   4.680   0.469 -2.5887  0.5394  0.7050
12963TIP3    H260381   2.398   4.740   0.330 -0.5215  0.2304  0.5145
12964TIP3   OH260382   5.968   3.280  12.948 -0.0541  0.0976  0.3586
12964TIP3    H160383   5.964   3.316  12.860  2.8059  0.5416  0.3012
12964TIP3    H260384   5.983   3.186  12.935 -0.4448  0.0265  0.4026
12965TIP3   OH260385   0.765   3.730   5.144 -0.0521  0.1245 -0.2119
12965TIP3    H160386   0.714   3.658   5.181 -1.0313  0.8641 -0.0849
12965TIP3    H260387   0.836   3.688   5.096 -1.1070 -0.9474 -0.8632
12966TIP3   OH260388   5.448   5.353   5.893  0.2690  0.1931 -0.3019
12966TIP3    H160389   5.470   5.300   5.816  0.7421 -1.3618  0.8367
12966TIP3    H260390   5.524   5.410   5.905  0.5706 -0.1671 -0.4843
12967TIP3   OH260391   1.967   1.979   0.131 -0.5141 -0.0603 -0.2257
12967TIP3    H160392   2.010   1.928   0.062  2.8377  2.1631 -0.0461
12967TIP3    H260393   1.973   1.924   0.209 -1.6519 -1.3901 -1.0424
12968TIP3   OH260394   1.251   3.186   1.824 -0.2824  0.4503 -0.1388
12968TIP3    H160395   1.237   3.212   1.733 -2.0849  0.1829  0.0182
12968TIP3    H260396   1.212   3.098   1.830 -0.1979  0.4685  0.8815
12969TIP3   OH260397   5.706   1.529   1.171 -0.3600 -0.3356  0.2732
12969TIP3    H160398   5.775   1.587   1.137  0.6888 -1.4284  0.4307
12969TIP3    H260399   5.625   1.575   1.154  0.3774  0.7327 -0.5009
12970TIP3   OH260400   5.043   3.675  13.835 -0.3331 -0.4826  0.0337
12970TIP3    H160401   5.103   3.696  13.907 -0.2363 -1.9676  0.4303
12970TIP3    H260402   5.014   3.760  13.803  0.8839  0.2535  0.7596
12971TIP3   OH260403   4.397   1.254  15.684 -0.2349  0.3592 -0.1435
12971TIP3    H160404   4.446   1.336  15.672 -0.5668  0.4512 -0.9329
12971TIP3    H260405   4.391   1.216  15.596  2.8355 -2.2631  0.6027
12972TIP3   OH260406   3.934   0.936   2.266 -0.4793 -0.0277 -0.4427
12972TIP3    H160407   3.842   0.920   2.245 -1.0501  0.4515  1.4480
12972TIP3    H260408   3.977   0.946   2.181 -2.1071 -0.5720 -1.3762
12973TIP3   OH260409   3.152   1.608  16.265  0.2948 -0.2918  0.1014
12973TIP3    H160410   3.167   1.679  16.327 -1.4188  0.6983 -0.5562
12973TIP3    H260411   3.194   1.637  16.184 -1.7883  0.8097 -0.6606
12974TIP3   OH260412   2.528   5.129  15.568 -0.3917  0.1260 -0.4807
12974TIP3    H160413   2.488   5.208  15.606 -0.4980  0.5806 -1.5177
12974TIP3    H260414   2.564   5.082  15.644 -1.1015  0.7271  0.2435
12975TIP3   OH260415   4.577   1.653  12.492 -0.5971  0.2570  0.0018
12975TIP3    H160416   4.541   1.599  12.563 -2.4406 -0.8343 -1.6734
12975TIP3    H260417   4.502   1.670  12.434  0.7285  1.5898 -1.4236
12976TIP3   OH260418   1.326   4.503   5.069  0.0996 -0.0818 -0.1889
12976TIP3    H160419   1.332   4.419   5.114 -2.4032 -1.0133 -1.4191
12976TIP3    H260420   1.275   4.485   4.991  2.0264  2.0278 -2.0917
12977TIP3   OH260421   1.898   2.202  14.478  0.1237  0.2174 -0.5834
12977TIP3    H160422   1.807   2.197  14.449  0.3939 -0.6995 -1.3245
12977TIP3    H260423   1.939   2.265  14.419  0.0582  0.3351 -0.5027
12978TIP3   OH260424   2.750   4.811   5.228  0.3451 -0.6905  0.2650
12978TIP3    H160425   2.744   4.756   5.306 -0.7993 -0.1371  0.6041
12978TIP3    H260426   2.822   4.872   5.246 -0.3834 -0.0808  1.2456
12979TIP3   OH260427   2.795   2.179   2.782 -0.1517  0.0464 -0.7664
12979TIP3    H160428   2.714   2.216   2.819  0.9401  0.7639  1.0456
12979TIP3    H260429   2.774   2.087   2.765 -1.0407 -0.0779  0.7776
12980TIP3   OH260430   5.154   4.218   0.391  0.0191 -0.1408  0.1147
12980TIP3    H160431   5.171   4.179   0.305  1.3714  0.9957 -0.1806
12980TIP3    H260432   5.208   4.168   0.452  1.4962  0.9934 -0.2126
12981TIP3   OH260433   1.060   1.274   2.381  0.4529 -0.1058  0.3065
12981TIP3    H160434   0.966   1.289   2.388  0.7106  1.2254  1.2659
12981TIP3    H260435   1.068   1.196   2.326 -1.2709 -1.5281  1.9314
12982TIP3   OH260436   2.186   6.193  12.805 -0.5241  0.5656 -0.1339
12982TIP3    H160437   2.225   6.124  12.858  0.1377  1.2398  0.2806
12982TIP3    H260438   2.161   6.150  12.723 -0.9606 -0.3529  0.4617
12983TIP3   OH260439   1.991   0.865   4.643  0.1296 -0.5633 -0.2291
12983TIP3    H160440   2.008   0.813   4.564  0.1990 -1.3165  0.2744
12983TIP3    H260441   2.070   0.856   4.695 -0.3984 -1.0944  0.4902
12984TIP3   OH260442   1.896   2.301  12.613  0.1079  0.3784  0.8897
12984TIP3    H160443   1.931   2.226  12.661 -1.3754 -1.5352 -0.8194
12984TIP3    H260444   1.810   2.316  12.652 -0.7984 -0.7191 -0.5948
12985TIP3   OH260445   1.226   0.005  13.740  0.1235 -0.0584 -0.0166
12985TIP3    H160446   1.292  -0.056  13.771  0.7797  0.6904  0.0993
12985TIP3    H260447   1.251   0.089  13.778 -1.6596  0.0084  1.1223
12986TIP3   OH260448   3.187   5.058   1.287 -0.5551  0.5821  0.0225
12986TIP3    H160449   3.190   5.052   1.192 -1.2282  0.2876  0.0108
12986TIP3    H260450   3.277   5.041   1.316 -0.4720  0.0507 -0.5280
12987TIP3   OH260451   3.998   0.082   4.730 -0.0800  0.3415 -0.0089
12987TIP3    H160452   4.067   0.129   4.777 -0.8842  0.9988  0.5541
12987TIP3    H260453   3.957   0.149   4.675 -0.1078 -0.0995 -0.5353
12988TIP3   OH260454   2.412   4.304  15.344 -0.1527  0.1374 -0.1669
12988TIP3    H160455   2.401   4.377  15.283  0.3636 -0.4281 -0.9558
12988TIP3    H260456   2.373   4.230  15.300 -0.7709 -0.0514  0.6806
12989TIP3   OH260457   3.999   3.277   5.560 -0.6886 -0.4218  1.2357
12989TIP3    H160458   4.058   3.211   5.597 -1.0651 -1.5479 -0.0983
12989TIP3    H260459   3.928   3.283   5.624  0.1638 -0.0630  2.1822
12990TIP3   OH260460   5.648   2.671  12.409 -0.3288  0.1990  0.4034
12990TIP3    H160461   5.557   2.671  12.440 -1.1146  1.8539 -1.6456
12990TIP3    H260462   5.690   2.741  12.459 -0.3015 -0.2464  1.0129
12991TIP3   OH260463   5.154   2.030  15.682 -0.1128 -0.0905  0.0841
12991TIP3    H160464   5.199   2.003  15.762 -1.8160 -0.6866  0.8975
12991TIP3    H260465   5.120   2.117  15.701  0.3587  0.2080 -0.3947
12992TIP3   OH260466   1.234   6.736  13.074  0.2212  0.0511  0.1000
12992TIP3    H160467   1.152   6.777  13.048  0.4177  0.9814  0.9019
12992TIP3    H260468   1.272   6.704  12.992 -1.0156 -0.5747 -0.2644
12993TIP3   OH260469   2.835   6.559   2.921  0.3054 -0.4992 -0.0612
12993TIP3    H160470   2.801   6.639   2.882 -0.4735 -0.7841  0.0191
12993TIP3    H260471   2.811   6.490   2.859  0.4873 -0.7413  0.1352
12994TIP3   OH260472   5.479   2.194   2.918  0.3451 -0.0163  0.1201
12994TIP3    H160473   5.557   2.140   2.924 -0.8727 -1.7977  0.6838
12994TIP3    H260474   5.412   2.146   2.967 -1.6166  0.4886 -1.8750
12995TIP3   OH260475   5.691   6.832  16.592 -0.5475 -0.4447  0.1823
12995TIP3    H160476   5.598   6.816  16.577 -1.0377 -0.3985  2.7818
12995TIP3    H260477   5.695   6.920  16.628  0.4883 -0.5053  0.2556
12996TIP3   OH260478   6.381   0.065   6.009  0.1184 -0.4705  0.2530
12996TIP3    H160479   6.412   0.013   6.084  1.0301 -1.5272 -0.8286
12996TIP3    H260480   6.460   0.093   5.964 -0.4233  0.0927 -0.3689
12997TIP3   OH260481   5.862   3.219   4.911  0.1128 -0.5486 -0.1903
12997TIP3    H160482   5.887   3.140   4.960  1.6541 -0.8414 -1.3881
12997TIP3    H260483   5.928   3.227   4.843 -1.5845  0.2155 -1.8385
12998TIP3   OH260484   0.684   2.961   2.380  0.0823 -0.0415 -0.0453
12998TIP3    H160485   0.760   2.996   2.335  0.1288 -1.8011 -1.4405
12998TIP3    H260486   0.610   3.011   2.346  0.2490 -0.6021 -1.2994
12999TIP3   OH260487   4.242   1.329   2.523 -0.4308 -0.3163  0.1683
12999TIP3    H160488   4.210   1.292   2.440 -1.0067  0.2042  0.1538
12999TIP3    H260489   4.312   1.388   2.496  0.9067 -1.8046  0.2355
13000TIP3   OH260490   5.219   1.745   5.312  0.0306 -0.2092  0.1980
13000TIP3    H160491   5.239   1.680   5.379  0.6100 -0.2732 -0.0311
13000TIP3    H260492   5.168   1.812   5.358  1.0279  0.1065  0.8726
13001TIP3   OH260493   0.419   0.410   0.250 -1.2867  0.1154 -0.0970
13001TIP3    H160494   0.482   0.342   0.225  0.5585  1.4416  0.7811
13001TIP3    H260495   0.376   0.434   0.168  0.4628  0.2493 -1.0196
13002TIP3   OH260496   4.076   2.084  13.045 -0.0604  0.0751 -0.6237
13002TIP3    H160497   4.047   2.153  12.985  0.2072  0.0052 -0.8371
13002TIP3    H260498   4.033   2.005  13.012 -0.1821  0.1002 -0.5212
13003TIP3   OH260499   4.874   4.249  10.867 -0.1255 -0.1952 -0.4150
13003TIP3    H160500   4.829   4.320  10.822 -0.6541  0.2700  0.7920
13003TIP3    H260501   4.933   4.211  10.802  0.3064  1.4637 -1.0190
13004TIP3   OH260502   3.590   0.909   5.298 -0.1181 -0.6581 -0.0981
13004TIP3    H160503   3.573   0.987   5.246  1.4672  0.0621  0.4221
13004TIP3    H260504   3.512   0.854   5.285 -0.6218  0.3646 -1.6133
13005TIP3   OH260505   0.421   3.126  14.437  0.1295 -0.1271  0.2366
13005TIP3    H160506   0.383   3.050  14.482 -2.8482  1.4577  0.6427
13005TIP3    H260507   0.443   3.187  14.508 -1.4021  1.0106 -0.2117
13006TIP3   OH260508   3.038   4.456  11.231  0.1715 -0.3633  0.0491
13006TIP3    H160509   3.095   4.438  11.157 -0.0843 -0.7141 -0.0654
13006TIP3    H260510   3.005   4.371  11.258  0.5886 -0.2828  0.8345
13007TIP3   OH260511   2.693   0.101  13.476 -0.0859  0.0249  0.0657
13007TIP3    H160512   2.625   0.125  13.539 -0.0725 -0.0263  0.0993
13007TIP3    H260513   2.665   0.017  13.441 -0.9463  0.8062 -1.1960
13008TIP3   OH260514   3.162   1.066  16.905  0.9594  0.3123  0.1098
13008TIP3    H160515   3.073   1.088  16.877  1.5221  2.4858 -0.0949
13008TIP3    H260516   3.189   1.139  16.960  1.9420 -1.2524  1.8413
13009TIP3   OH260517   4.195   1.188   3.677  0.2432  0.0178 -0.1575
13009TIP3    H160518   4.116   1.146   3.711 -1.0628  2.0267 -0.5540
13009TIP3    H260519   4.219   1.135   3.601 -0.6559 -0.6967  0.0384
13010TIP3   OH260520   0.318   1.838   0.946  0.5077 -0.2466 -0.0796
13010TIP3    H160521   0.404   1.807   0.975  1.5937  2.5546 -0.0417
13010TIP3    H260522   0.304   1.919   0.995 -1.0451  0.6702 -1.9203
13011TIP3   OH260523   2.223   6.225   4.897  0.3617  0.2546  0.4255
13011TIP3    H160524   2.142   6.218   4.947  0.3950  1.0104  0.6009
13011TIP3    H260525   2.194   6.237   4.806  0.2937 -0.3558  0.3610
13012TIP3   OH260526   1.654   0.298  13.065  0.2469  0.5829  0.1047
13012TIP3    H160527   1.671   0.383  13.104 -0.9375  1.6763 -1.6142
13012TIP3    H260528   1.726   0.284  13.003  0.1323  0.6162 -0.0380
13013TIP3   OH260529   2.639   4.109  15.902 -0.3045  0.6937  0.1790
13013TIP3    H160530   2.641   4.060  15.985  1.8722 -0.5873 -0.5650
13013TIP3    H260531   2.636   4.201  15.929 -0.7693  0.2781  1.6500
13014TIP3   OH260532   6.561   0.339   4.151 -0.1211 -0.1099  0.0513
13014TIP3    H160533   6.474   0.357   4.114  0.2639  0.4006 -0.6433
13014TIP3    H260534   6.610   0.420   4.134 -0.2223  0.5798  2.6418
13015TIP3   OH260535   0.029   2.385   2.863  0.0202  0.4446 -0.0917
13015TIP3    H160536   0.119   2.413   2.879  0.3462 -0.0175 -1.0476
13015TIP3    H260537  -0.025   2.460   2.889  0.6002  0.3609  1.4520
13016TIP3   OH260538   2.689   2.833   2.755 -0.0507 -0.7173 -0.1856
13016TIP3    H160539   2.775   2.833   2.712  1.0529  1.1449  1.7857
13016TIP3    H260540   2.676   2.742   2.782  0.0974 -1.5355 -2.6311
13017TIP3   OH260541   4.306   4.832  10.385  0.2714 -0.0148 -0.8126
13017TIP3    H160542   4.303   4.857  10.478 -3.3091  0.2022 -0.8474
13017TIP3    H260543   4.359   4.752  10.384 -0.8628 -0.9251  1.7187
13018TIP3   OH260544   3.520   0.887   3.693  0.5364  0.2375  0.4631
13018TIP3    H160545   3.502   0.969   3.739 -1.6840  0.6220 -0.9222
13018TIP3    H260546   3.466   0.822   3.737  1.1354 -0.1722  0.6078
13019TIP3   OH260547   5.332   0.126  10.433 -0.1039 -0.3346  0.4064
13019TIP3    H160548   5.281   0.192  10.480 -1.4428 -0.6849 -0.5056
13019TIP3    H260549   5.423   0.148  10.452 -0.5454  1.2447  0.8142
13020TIP3   OH260550   0.640   1.184  11.415 -0.3093  0.0468 -0.6144
13020TIP3    H160551   0.692   1.142  11.483 -0.5867  1.1367  0.3066
13020TIP3    H260552   0.675   1.151  11.332  1.9233  0.8222 -0.0356
13021TIP3   OH260553   6.505   4.003  12.951  0.5474  0.0314  0.1566
13021TIP3    H160554   6.507   3.970  12.861  0.4964  0.6430 -0.0702
13021TIP3    H260555   6.590   3.977  12.988 -0.2969 -2.2200  0.6656
13022TIP3   OH260556   6.708   2.398  11.510  0.2243 -0.5802  0.0103
13022TIP3    H160557   6.675   2.336  11.575  3.0307 -1.9750  0.2294
13022TIP3    H260558   6.784   2.355  11.471  1.4990  2.1731 -0.8164
13023TIP3   OH260559   5.152   5.532   1.826  0.1973 -0.1667 -0.1110
13023TIP3    H160560   5.222   5.549   1.763 -0.0750  1.2469 -0.0740
13023TIP3    H260561   5.169   5.595   1.897  0.4534 -1.6672  1.2075
13024TIP3   OH260562   3.813   0.720   0.394 -0.3251  0.3668 -0.1894
13024TIP3    H160563   3.821   0.673   0.477 -0.8084 -0.3967 -0.5602
13024TIP3    H260564   3.871   0.673   0.334  0.2824  1.1216 -0.2033
13025TIP3   OH260565   0.959   1.438  16.569  0.3199  0.6158 -0.1536
13025TIP3    H160566   0.894   1.499  16.603 -1.1258  0.1816 -2.0158
13025TIP3    H260567   1.021   1.494  16.521  0.5377  0.8794  0.4243
13026TIP3   OH260568   4.472   0.197  15.203 -0.3239 -0.8637 -0.3198
13026TIP3    H160569   4.537   0.128  15.190 -1.0496 -1.3513 -1.5717
13026TIP3    H260570   4.392   0.150  15.227 -0.2575 -0.2792  1.1399
13027TIP3   OH260571   4.843   2.277  15.184  0.3313  0.0134  0.3331
13027TIP3    H160572   4.844   2.274  15.088 -2.0526  1.6870  0.1507
13027TIP3    H260573   4.933   2.256  15.210  1.2984  0.4559 -2.3069
13028TIP3   OH260574   0.715   5.051  13.014  0.2804  0.4964 -0.0012
13028TIP3    H160575   0.799   5.076  13.051 -0.3065  2.5900  0.0461
13028TIP3    H260576   0.710   5.099  12.931 -1.7460  2.2346  1.0134
13029TIP3   OH260577   4.074   6.457  13.271 -0.4608  0.4306  0.4172
13029TIP3    H160578   4.099   6.496  13.187 -1.1152 -0.1706 -0.0646
13029TIP3    H260579   4.152   6.468  13.326  0.2280  0.2129 -0.4840
13030TIP3   OH260580   0.661   2.688   1.442  0.1094 -0.1278 -0.4203
13030TIP3    H160581   0.579   2.714   1.401  1.3199  1.5156 -1.9735
13030TIP3    H260582   0.685   2.606   1.399 -0.6116 -0.5168 -0.0895
13031TIP3   OH260583   0.848   5.620   5.719 -0.1437  0.3427 -0.1943
13031TIP3    H160584   0.758   5.623   5.752  0.2993  0.6179  1.0272
13031TIP3    H260585   0.902   5.642   5.795  0.9512  0.3112 -0.9491
13032TIP3   OH260586   5.703   4.276   1.038  0.9990 -0.1370  0.2942
13032TIP3    H160587   5.641   4.222   0.989  0.8298 -0.5493  0.9573
13032TIP3    H260588   5.697   4.363   0.996  0.5195 -0.3608 -0.1162
13033TIP3   OH260589   6.552   4.622   4.365 -0.4173  0.3304 -0.3671
13033TIP3    H160590   6.477   4.603   4.422  0.9015 -1.7427  0.7747
13033TIP3    H260591   6.618   4.557   4.389  1.7657  2.0360 -1.3651
13034TIP3   OH260592   2.599   0.126   4.281 -0.2223 -0.4755  0.0237
13034TIP3    H160593   2.556   0.080   4.208 -0.6339 -1.5482  0.9176
13034TIP3    H260594   2.593   0.065   4.355  0.2539  0.5615  0.9438
13035TIP3   OH260595   3.575   3.936  14.671 -0.4618  0.3014  1.1845
13035TIP3    H160596   3.505   3.874  14.651 -1.3912  1.0363  2.0579
13035TIP3    H260597   3.534   4.022  14.665  0.9233  0.9203 -0.5234
13036TIP3   OH260598   5.625   5.165   1.221  0.1446 -0.5845 -0.0882
13036TIP3    H160599   5.571   5.227   1.270  1.5466 -0.5856  1.5326
13036TIP3    H260600   5.581   5.081   1.234  1.0269 -0.7855  2.1717
13037TIP3   OH260601   1.142   5.704   5.333 -0.2719  0.6282  0.3288
13037TIP3    H160602   1.145   5.737   5.422 -0.6769 -0.9840  0.9860
13037TIP3    H260603   1.155   5.781   5.278  1.9465  1.4052  1.8015
13038TIP3   OH260604   3.600   3.092  16.572 -0.1548 -0.3675 -0.1761
13038TIP3    H160605   3.578   3.050  16.656  1.8218 -0.1527  0.5028
13038TIP3    H260606   3.550   3.174  16.573 -1.7981 -1.3305 -0.2041
13039TIP3   OH260607   1.447   2.478  15.057 -0.3401 -0.3581 -0.0152
13039TIP3    H160608   1.531   2.438  15.080 -0.1839  1.0177  2.1297
13039TIP3    H260609   1.421   2.435  14.976  1.9643 -1.5049 -0.2234
13040TIP3   OH260610   3.893   6.811  12.509 -0.7914  0.2133  0.0011
13040TIP3    H160611   3.813   6.765  12.533  0.2092 -1.0621  1.0771
13040TIP3    H260612   3.912   6.782  12.420 -1.3457  0.2587 -0.1337
13041TIP3   OH260613   3.464   1.527  13.444 -0.2791 -1.2374 -0.4207
13041TIP3    H160614   3.482   1.594  13.510  0.9952 -1.6395 -0.3407
13041TIP3    H260615   3.369   1.531  13.431 -0.0277  2.8348 -2.7679
13042TIP3   OH260616   5.596   5.014   1.993 -0.0180 -0.1033 -0.2811
13042TIP3    H160617   5.546   4.957   1.934  0.8334 -0.2041 -0.9169
13042TIP3    H260618   5.673   5.039   1.943  1.1589 -0.8726  1.0612
13043TIP3   OH260619   0.479   0.525  12.725 -0.1877 -0.3184  0.2310
13043TIP3    H160620   0.493   0.535  12.819  1.8751  2.4312 -0.2554
13043TIP3    H260621   0.563   0.495  12.692 -0.6823 -0.5403 -0.8587
13044TIP3   OH260622   4.799   2.231  12.382 -0.4213 -0.4138 -0.1290
13044TIP3    H160623   4.725   2.271  12.426 -0.2760  0.8317 -0.9553
13044TIP3    H260624   4.874   2.285  12.407 -0.0967 -0.5959 -0.6832
13045TIP3   OH260625   0.398   1.564  14.987  0.5629 -0.3023  0.1392
13045TIP3    H160626   0.407   1.478  14.948  2.6181 -0.4098  0.7183
13045TIP3    H260627   0.420   1.551  15.080 -0.9840  0.5262  0.6665
13046TIP3   OH260628   0.254   2.119  11.002  0.0721  0.1056  0.2493
13046TIP3    H160629   0.192   2.046  11.010  0.1809 -0.1310 -0.8597
13046TIP3    H260630   0.203   2.190  10.962  0.4436 -0.0160 -0.4649
13047TIP3   OH260631   1.369   3.797   2.785 -0.2666  0.6835  0.2534
13047TIP3    H160632   1.428   3.729   2.816  1.7201  1.4272 -1.6156
13047TIP3    H260633   1.330   3.834   2.865  2.2625  0.5356  1.6378
13048TIP3   OH260634   1.027   4.756   1.820 -0.3994  0.5861  0.0034
13048TIP3    H160635   1.070   4.730   1.739  0.6695  0.2015  0.6590
13048TIP3    H260636   1.032   4.678   1.876  0.1275  1.2429  0.9175
13049TIP3   OH260637   6.020   3.437   2.628 -0.0353  0.1658  0.0242
13049TIP3    H160638   5.962   3.378   2.677 -1.0837  0.5646 -0.6981
13049TIP3    H260639   6.046   3.503   2.692 -1.2865  0.6145  0.1062
13050TIP3   OH260640   0.406   6.381  16.686 -0.1491  0.2902  0.0756
13050TIP3    H160641   0.386   6.309  16.627 -1.9133  0.3218  0.5915
13050TIP3    H260642   0.383   6.348  16.773 -1.1144  1.5010  0.3051
13051TIP3   OH260643   2.089   0.263  15.770 -0.0076 -0.1457  0.0509
13051TIP3    H160644   2.032   0.328  15.729 -0.7372 -0.0978  1.1036
13051TIP3    H260645   2.029   0.200  15.811  0.6852 -0.5373  0.4900
13052TIP3   OH260646   2.068   4.464  11.154 -0.0268 -0.0364 -0.1649
13052TIP3    H160647   2.043   4.371  11.150 -0.9415  0.1200  0.9815
13052TIP3    H260648   2.038   4.500  11.071  1.0337 -0.9130 -0.9502
13053TIP3   OH260649   0.428   0.807  15.364 -0.0110  0.4798 -0.3331
13053TIP3    H160650   0.521   0.825  15.379  0.0918 -0.1209 -0.2458
13053TIP3    H260651   0.426   0.726  15.313 -0.4917  0.3343 -0.0935
13054TIP3   OH260652   5.431   1.739  11.580 -0.3518 -0.1789  0.3675
13054TIP3    H160653   5.462   1.696  11.659  0.6403 -0.7806 -0.3237
13054TIP3    H260654   5.423   1.668  11.516 -1.0081  0.3180 -0.1123
13055TIP3   OH260655   5.684   6.676  12.101  0.4727 -0.2817  0.3325
13055TIP3    H160656   5.652   6.603  12.048  0.0709  0.1401 -0.0161
13055TIP3    H260657   5.652   6.754  12.056  2.5701  0.2121 -0.4251
13056TIP3   OH260658   0.559   2.825   3.160 -0.4383  0.3642 -0.3526
13056TIP3    H160659   0.497   2.815   3.088 -0.9239  0.9469 -0.0270
13056TIP3    H260660   0.538   2.910   3.199 -0.4652 -0.1142  0.7315
13057TIP3   OH260661   0.866   5.411  16.986 -0.1504  0.1541 -0.4635
13057TIP3    H160662   0.916   5.347  16.935 -1.8651 -2.6837  1.1668
13057TIP3    H260663   0.799   5.443  16.925  1.0763  0.9674 -1.4601
13058TIP3   OH260664   6.462   1.412  16.601  0.6508  0.5090 -0.0884
13058TIP3    H160665   6.537   1.410  16.542  0.3256 -1.1913 -0.5043
13058TIP3    H260666   6.492   1.461  16.677  3.1295 -2.2056  0.8964
13059TIP3   OH260667   6.636   6.516   5.344 -0.4266 -0.2195  0.2114
13059TIP3    H160668   6.692   6.513   5.267  1.1605  0.2780  1.2871
13059TIP3    H260669   6.649   6.604   5.379 -2.1237  0.0056  0.3517
13060TIP3   OH260670   2.183   2.216   2.331 -0.5574 -0.5430 -0.1165
13060TIP3    H160671   2.263   2.269   2.323  0.2311 -1.8600 -1.4966
13060TIP3    H260672   2.203   2.136   2.283 -2.9727 -0.6261 -1.0945
13061TIP3   OH260673   0.623   3.489   4.024  0.2911  0.1380  0.1435
13061TIP3    H160674   0.635   3.470   3.931  2.0170 -0.7636  0.5094
13061TIP3    H260675   0.564   3.565   4.026 -0.9872 -0.7437 -1.6151
13062TIP3   OH260676   3.506   2.484   1.087  0.3718  0.0821  0.1720
13062TIP3    H160677   3.528   2.563   1.039 -0.6315  0.9528  1.0895
13062TIP3    H260678   3.430   2.449   1.041  1.7222 -1.2459 -1.1649
13063TIP3   OH260679   0.327   3.262   3.082 -0.0562  0.2115  0.3092
13063TIP3    H160680   0.296   3.181   3.042 -2.0882  1.2787 -0.4175
13063TIP3    H260681   0.357   3.316   3.009  1.0404  0.2372  0.7602
13064TIP3   OH260682   1.660   1.740   0.839 -0.0417  0.5915  0.5857
13064TIP3    H160683   1.659   1.741   0.935  0.5284  4.1909  0.7017
13064TIP3    H260684   1.753   1.750   0.817 -0.0967 -0.8691 -0.3988
13065TIP3   OH260685   3.729   4.216   6.088  0.3111 -0.1415 -0.1095
13065TIP3    H160686   3.807   4.271   6.091  1.1584 -1.2961 -0.1901
13065TIP3    H260687   3.761   4.128   6.108 -0.3640 -1.2800 -3.3986
13066TIP3   OH260688   6.489   2.525   4.952 -0.3435  0.1017 -0.3548
13066TIP3    H160689   6.481   2.432   4.930 -2.2691  0.4909 -1.4767
13066TIP3    H260690   6.556   2.557   4.891  0.5018 -0.5670  0.1934
13067TIP3   OH260691   3.333   0.129  14.272 -0.6522 -0.1390 -0.4950
13067TIP3    H160692   3.383   0.066  14.324  1.1839 -0.1856 -2.2203
13067TIP3    H260693   3.386   0.209  14.274 -1.5178  0.4520 -0.7278
13068TIP3   OH260694   1.668   2.422  12.415  0.1641  0.2771 -0.0248
13068TIP3    H160695   1.637   2.377  12.493  1.0881 -1.4660 -0.6087
13068TIP3    H260696   1.747   2.467  12.443 -0.5741  1.3104  0.4779
13069TIP3   OH260697   6.666   5.671   5.747  0.0778  0.2310  0.5592
13069TIP3    H160698   6.628   5.669   5.835  2.0568 -0.9563  1.4572
13069TIP3    H260699   6.626   5.597   5.702  1.0678 -0.8826  1.4295
13070TIP3   OH260700   6.279   4.711  10.450 -0.0766 -0.2189  0.2577
13070TIP3    H160701   6.231   4.674  10.376 -1.1476  1.1946  0.2073
13070TIP3    H260702   6.221   4.699  10.525 -0.1808  0.7742  0.3489
13071TIP3   OH260703   5.062   4.183  14.996 -0.0845 -0.6857  0.4906
13071TIP3    H160704   5.049   4.172  15.090 -1.3404  0.0233  0.4207
13071TIP3    H260705   5.155   4.206  14.987 -0.1593  0.1355  1.6387
13072TIP3   OH260706   0.894   4.721   1.324  0.4489 -0.0166  0.0160
13072TIP3    H160707   0.799   4.728   1.321  0.3028 -1.4369  0.6525
13072TIP3    H260708   0.919   4.702   1.233 -0.0975 -1.7789  0.1990
13073TIP3   OH260709   2.928   3.862  11.279 -0.0396  0.3310  0.0454
13073TIP3    H160710   2.859   3.899  11.334  0.8518 -0.6872  1.9226
13073TIP3    H260711   2.918   3.767  11.289 -1.3281 -0.0933 -3.4586
13074TIP3   OH260712   6.161   1.519   0.359  0.7397  0.3073 -0.0386
13074TIP3    H160713   6.166   1.614   0.362  1.4429  0.3191 -1.0015
13074TIP3    H260714   6.242   1.492   0.314 -0.0631 -0.6525 -0.9604
13075TIP3   OH260715   2.759   2.486   6.167  0.0641 -0.2759 -0.3494
13075TIP3    H160716   2.809   2.557   6.205 -1.7391  1.5319 -1.1802
13075TIP3    H260717   2.798   2.472   6.081 -0.3673  0.6242 -0.7005
13076TIP3   OH260718   4.416   1.002   1.657 -0.4551  0.3408 -0.5168
13076TIP3    H160719   4.487   0.963   1.708 -0.8489  1.1876  0.7079
13076TIP3    H260720   4.456   1.077   1.613 -0.4087  0.3336 -0.4869
13077TIP3   OH260721   0.361   0.338   4.771 -0.0039  0.0013  0.1580
13077TIP3    H160722   0.415   0.376   4.840 -0.0304  0.1624  0.0896
13077TIP3    H260723   0.271   0.355   4.799 -0.0139  0.1568  0.0335
13078TIP3   OH260724   2.139   5.706  13.316  0.0154  0.2623 -0.5165
13078TIP3    H160725   2.153   5.658  13.234  3.4262  0.1380  0.0103
13078TIP3    H260726   2.226   5.729  13.346 -1.2370  2.2071  2.0300
13079TIP3   OH260727   6.514   4.681  13.897 -0.0224 -0.3805  0.3274
13079TIP3    H160728   6.519   4.586  13.905  1.3970 -0.1839  2.7387
13079TIP3    H260729   6.605   4.710  13.893 -0.3964  0.7924 -3.2575
13080TIP3   OH260730   2.593   2.993  14.039  0.0856  0.2748  0.1016
13080TIP3    H160731   2.523   3.030  14.092 -1.3010 -2.7278  0.5420
13080TIP3    H260732   2.616   2.911  14.082  1.5030 -0.4923 -1.9386
13081TIP3   OH260733   6.349   0.931   4.778  0.0673  0.1157  0.2015
13081TIP3    H160734   6.335   0.875   4.855 -1.3129  1.9791  1.4011
13081TIP3    H260735   6.429   0.980   4.798  1.2163 -1.2404 -0.8034
13082TIP3   OH260736   3.438   3.698   1.602  0.9260 -0.6511 -0.2020
13082TIP3    H160737   3.514   3.756   1.603  0.5886 -0.1866 -0.9724
13082TIP3    H260738   3.383   3.732   1.532 -0.0155 -0.9577  0.3730
13083TIP3   OH260739   5.750   1.693   5.507  0.3381 -0.2232  0.4043
13083TIP3    H160740   5.698   1.615   5.526  1.1267 -0.9778 -0.4133
13083TIP3    H260741   5.831   1.680   5.557  0.0406  0.6130  1.1313
13084TIP3   OH260742   3.276   5.078  15.530 -0.4496  0.2955  0.5386
13084TIP3    H160743   3.249   5.116  15.614 -1.6309  1.3845 -0.2923
13084TIP3    H260744   3.213   5.113  15.467  0.9788  0.2806 -0.9675
13085TIP3   OH260745   2.457   4.057  11.474 -0.8368  0.4900  0.4299
13085TIP3    H160746   2.373   4.035  11.433 -1.7634  2.9308  0.8064
13085TIP3    H260747   2.446   4.149  11.500  2.1781  1.0752 -0.0535
13086TIP3   OH260748   4.570   6.140  16.448  0.0465 -0.0315 -0.1301
13086TIP3    H160749   4.529   6.056  16.426 -2.0114  0.6790  0.7312
13086TIP3    H260750   4.524   6.169  16.527  0.2586  2.2226 -0.7743
13087TIP3   OH260751   4.745   1.388   0.266  0.3854 -0.3459 -0.3762
13087TIP3    H160752   4.734   1.477   0.299  2.9089 -0.3130  0.5345
13087TIP3    H260753   4.768   1.399   0.174  2.4818  0.0992  0.1574
13088TIP3   OH260754   3.647   3.687   3.344  0.3457  0.1429 -0.2456
13088TIP3    H160755   3.645   3.756   3.277 -0.8492 -1.0699 -1.5145
13088TIP3    H260756   3.574   3.707   3.402  1.2406  1.0649  0.5913
13089TIP3   OH260757   5.441   1.505   1.735  0.2991 -0.1729 -0.0028
13089TIP3    H160758   5.406   1.446   1.802  0.1629  0.1890  0.2486
13089TIP3    H260759   5.534   1.481   1.728  0.4631  0.2096  0.7716
13090TIP3   OH260760   5.926   2.653   1.000 -0.1313  0.0751  0.2751
13090TIP3    H160761   6.010   2.622   0.965  0.8704  1.1423  1.6433
13090TIP3    H260762   5.861   2.619   0.938  1.1301 -2.1952  0.0739
13091TIP3   OH260763   1.396   6.357  12.694  0.0547  0.2773 -0.5935
13091TIP3    H160764   1.461   6.399  12.749 -0.7875 -0.3106  0.9046
13091TIP3    H260765   1.387   6.268  12.729 -2.3579  0.6826  0.0245
13092TIP3   OH260766   4.268   0.595   4.172  0.2129  0.1355  0.4155
13092TIP3    H160767   4.281   0.605   4.078 -0.1346  0.8401  0.4359
13092TIP3    H260768   4.222   0.512   4.181  1.4590 -0.6077  0.0720
13093TIP3   OH260769   3.985   2.283   3.749  0.3393 -0.1133  0.1413
13093TIP3    H160770   3.976   2.361   3.803 -1.9056 -0.4354  0.3528
13093TIP3    H260771   4.013   2.214   3.810  2.3304  0.4761 -0.0498
13094TIP3   OH260772   5.109   6.695  15.338  0.3882 -0.1859  0.3267
13094TIP3    H160773   5.063   6.626  15.385 -1.8286  0.6640 -0.4831
13094TIP3    H260774   5.061   6.705  15.256  1.6346  1.2169 -0.2771
13095TIP3   OH260775   6.162   1.712   0.721 -0.4150  0.8486  0.2644
13095TIP3    H160776   6.114   1.795   0.719 -0.4300  0.8832  1.4014
13095TIP3    H260777   6.111   1.656   0.780 -0.3427  0.0621 -0.4040
13096TIP3   OH260778   1.270   6.379  16.573  0.4672 -1.1845  0.6729
13096TIP3    H160779   1.217   6.333  16.638  0.5745 -0.6222  1.1682
13096TIP3    H260780   1.289   6.313  16.507 -0.2941 -1.5665  0.8205
13097TIP3   OH260781   2.904   3.304   2.513  0.5450  0.5899 -0.1048
13097TIP3    H160782   2.983   3.296   2.566  1.6438  1.8857 -1.4317
13097TIP3    H260783   2.869   3.391   2.535 -0.1447  0.2891  0.0029
13098TIP3   OH260784   0.446   2.103  16.392  0.2104  0.0964 -0.0277
13098TIP3    H160785   0.412   2.191  16.407  0.0472  0.0943 -0.3708
13098TIP3    H260786   0.538   2.108  16.418 -0.0654  0.0801  0.9772
13099TIP3   OH260787   2.158   1.449  13.383 -0.0201 -0.3263  0.1613
13099TIP3    H160788   2.104   1.416  13.455  1.5348 -0.5671  1.2970
13099TIP3    H260789   2.228   1.498  13.428  0.9274 -0.3858 -1.2031
13100TIP3   OH260790   2.202   4.283  16.273  0.7219 -0.2053  0.0416
13100TIP3    H160791   2.233   4.327  16.353  1.5796 -1.5463  0.4768
13100TIP3    H260792   2.229   4.192  16.284  1.4519 -0.2937 -2.0662
13101TIP3   OH260793   5.090   1.183  14.279 -0.0883  0.4013 -0.7370
13101TIP3    H160794   5.017   1.179  14.340  0.0565  0.5829 -0.5519
13101TIP3    H260795   5.122   1.092  14.274 -0.6501  0.2194 -1.2210
13102TIP3   OH260796   3.488   2.261  12.789 -0.3409 -0.5939 -0.0671
13102TIP3    H160797   3.520   2.300  12.708  0.1909 -0.2775  0.2856
13102TIP3    H260798   3.548   2.293  12.856 -0.6241 -1.0516  0.4145
13103TIP3   OH260799   5.357   1.259   5.214  0.4596 -0.5475  0.0448
13103TIP3    H160800   5.396   1.201   5.279  1.0654  1.4646  1.5627
13103TIP3    H260801   5.344   1.203   5.138  2.6725 -2.2511  0.7931
13104TIP3   OH260802   5.399   4.997  13.317 -0.4660 -0.0486  0.4157
13104TIP3    H160803   5.429   5.011  13.406 -1.5369 -0.9283  0.9369
13104TIP3    H260804   5.306   4.978  13.325 -0.2274 -1.9322 -0.7085
13105TIP3   OH260805   3.527   5.964  11.995 -0.1782 -0.3335  0.1279
13105TIP3    H160806   3.574   5.898  11.945 -0.8444 -0.5600 -0.2163
13105TIP3    H260807   3.594   6.026  12.024  0.4733 -1.2430  0.5912
13106TIP3   OH260808   5.579   2.674  11.815  0.0598  0.4908  0.2867
13106TIP3    H160809   5.627   2.592  11.801  0.4030  0.6831  0.3258
13106TIP3    H260810   5.629   2.739  11.765 -1.8414  0.1597 -2.2627
13107TIP3   OH260811   4.305   2.111   3.965  0.0498  0.6688 -0.4406
13107TIP3    H160812   4.382   2.141   3.917 -0.4842  3.1989  0.1630
13107TIP3    H260813   4.237   2.099   3.898  0.4847 -0.0271 -0.7739
13108TIP3   OH260814   3.992   4.843  15.808  0.0424  0.2953 -0.0845
13108TIP3    H160815   3.954   4.762  15.773 -0.0445 -0.3626  1.4710
13108TIP3    H260816   4.057   4.869  15.742  0.5736 -1.4330 -0.2924
13109TIP3   OH260817   3.018   5.049  15.042  0.0071 -0.9366 -0.0067
13109TIP3    H160818   3.009   5.096  14.959 -0.2775 -0.7722  0.1151
13109TIP3    H260819   3.099   5.081  15.080 -1.7994  2.0973  1.7085
13110TIP3   OH260820   6.290   4.484  13.687  0.0905  0.0780 -0.0932
13110TIP3    H160821   6.307   4.401  13.731  1.6361  0.5769  0.3079
13110TIP3    H260822   6.204   4.510  13.717 -0.2457 -1.1690  0.0954
13111TIP3   OH260823   5.925   3.643   6.172  0.0332  0.3163  0.3233
13111TIP3    H160824   6.013   3.648   6.211 -0.7488 -0.1418  2.2919
13111TIP3    H260825   5.866   3.665   6.244 -1.5037  0.1306 -0.8302
13112TIP3   OH260826   2.334   3.323  14.579  0.0846 -0.1453 -0.0729
13112TIP3    H160827   2.265   3.275  14.625 -1.5216  3.2438  1.3969
13112TIP3    H260828   2.384   3.366  14.648  0.2767  1.7100 -1.2865
13113TIP3   OH260829   1.173   0.331  13.470 -0.1946  0.2155  0.0117
13113TIP3    H160830   1.146   0.383  13.394 -0.2947 -0.5368 -0.4789
13113TIP3    H260831   1.104   0.345  13.535 -0.7794 -0.1489 -0.5157
13114TIP3   OH260832   4.261   3.552  17.016  0.1056 -0.2683  0.2997
13114TIP3    H160833   4.183   3.595  16.979  0.2568 -0.5871 -0.4234
13114TIP3    H260834   4.281   3.601  17.095 -0.4951  0.1739  0.1839
13115TIP3   OH260835   5.140   2.900  16.755  0.2141  0.2629  0.1836
13115TIP3    H160836   5.203   2.930  16.820  2.9228 -1.1635 -1.5803
13115TIP3    H260837   5.099   2.980  16.722  2.4621  1.4661  0.1419
13116TIP3   OH260838   5.031   0.540   4.931 -0.5836 -0.1532  0.0448
13116TIP3    H160839   5.086   0.464   4.909  1.0236  0.3503  2.0186
13116TIP3    H260840   5.064   0.610   4.875 -0.0457 -0.1714  0.3337
13117TIP3   OH260841   3.828   2.593  12.010  0.2452  0.7255  0.3640
13117TIP3    H160842   3.861   2.666  11.958  0.7714 -1.4393 -2.6198
13117TIP3    H260843   3.733   2.592  11.993  0.3160  0.4335 -0.0361
13118TIP3   OH260844   0.416   6.635  13.219  0.3275 -0.0995 -0.6928
13118TIP3    H160845   0.422   6.606  13.311 -1.1797  0.0094 -0.5338
13118TIP3    H260846   0.395   6.728  13.225 -0.4972 -0.2465 -1.1190
13119TIP3   OH260847   4.645   0.501  13.975  0.5796 -0.3108  0.3886
13119TIP3    H160848   4.666   0.595  13.973 -0.5953  0.1637 -5.2904
13119TIP3    H260849   4.731   0.458  13.976  1.2875  0.9862 -0.6451
13120TIP3   OH260850   0.933   5.865   4.303  0.0121  0.5883 -0.0146
13120TIP3    H160851   0.919   5.864   4.398  3.4834  1.6288  0.6337
13120TIP3    H260852   0.845   5.878   4.267 -1.2621  1.6832  3.0981
13121TIP3   OH260853   6.655   4.051   5.472 -0.0576  0.1836  0.1801
13121TIP3    H160854   6.723   4.111   5.504 -1.7523  1.5709  1.3812
13121TIP3    H260855   6.645   4.074   5.380  0.6958  0.3596  0.1367
13122TIP3   OH260856   5.553   6.816  12.643  0.4422  0.1837  0.0463
13122TIP3    H160857   5.473   6.867  12.646  1.1297  1.2826  0.1734
13122TIP3    H260858   5.586   6.827  12.554  1.3593  1.2059  0.4905
13123TIP3   OH260859   1.218   3.732   1.140  0.4096 -0.0652 -0.2936
13123TIP3    H160860   1.274   3.671   1.093  1.1934  1.0905 -0.9155
13123TIP3    H260861   1.204   3.691   1.225  1.7133 -0.6765 -0.3432
13124TIP3   OH260862   5.695   5.400  13.575 -0.0980  0.4293 -0.3291
13124TIP3    H160863   5.669   5.398  13.483  1.1652  1.7835 -0.7617
13124TIP3    H260864   5.616   5.375  13.623 -1.1382  0.9128 -1.7214
13125TIP3   OH260865   2.571   1.620   1.982  0.2931 -0.3474 -0.6907
13125TIP3    H160866   2.520   1.664   2.049  1.1406 -1.4345  0.7210
13125TIP3    H260867   2.602   1.691   1.925  0.1279  0.6768  0.4626
13126TIP3   OH260868   5.202   4.128  12.360  0.2130  0.0980  0.3084
13126TIP3    H160869   5.165   4.078  12.433 -0.6439 -0.1409 -0.2730
13126TIP3    H260870   5.180   4.219  12.378  0.5271  0.1091  0.6456
13127TIP3   OH260871   6.005   0.955  14.034  0.5138 -0.3597  0.1609
13127TIP3    H160872   5.996   0.883  14.097 -0.1558  1.8522  2.7771
13127TIP3    H260873   5.942   0.935  13.965 -1.2535 -1.2393  1.9397
13128TIP3   OH260874   1.619   4.790  16.288 -0.3880  0.2681 -0.1387
13128TIP3    H160875   1.655   4.849  16.354  0.2167 -1.1989  0.9197
13128TIP3    H260876   1.652   4.703  16.314 -1.1965 -0.5266 -1.6430
13129TIP3   OH260877   2.526   3.074  13.644 -0.3260 -0.0845 -0.5167
13129TIP3    H160878   2.567   3.088  13.559  0.7647 -0.5181 -0.0793
13129TIP3    H260879   2.464   3.003  13.628 -0.3591  0.0528 -1.0225
13130TIP3   OH260880   5.014   2.019  11.834  0.3467  0.4214 -0.0981
13130TIP3    H160881   5.075   2.066  11.890  0.1658  1.4104 -0.7006
13130TIP3    H260882   4.938   2.077  11.828 -0.9018 -1.0009  1.0527
13131TIP3   OH260883   4.563   5.845   0.992  0.3069 -0.1229 -0.1777
13131TIP3    H160884   4.649   5.831   0.952  0.7907 -0.6479  1.0093
13131TIP3    H260885   4.581   5.899   1.069 -0.6197  0.9294 -0.6806
13132TIP3   OH260886   3.580   3.122   4.956  0.0673  0.1362  0.0170
13132TIP3    H160887   3.547   3.092   5.041 -0.6879  1.5853  0.2725
13132TIP3    H260888   3.502   3.155   4.911  0.5001 -0.3954 -1.1543
13133TIP3   OH260889   0.578   3.722   5.755  0.1469  0.5919  0.1120
13133TIP3    H160890   0.631   3.687   5.684 -2.4311 -1.1990 -1.0676
13133TIP3    H260891   0.612   3.680   5.834  0.8409 -0.0914 -0.5406
13134TIP3   OH260892   3.889   0.347  16.756 -0.1000  0.5906 -0.2585
13134TIP3    H160893   3.862   0.430  16.796  2.3559  1.3403 -0.0125
13134TIP3    H260894   3.928   0.373  16.672 -0.3155 -0.4449 -0.6918
13135TIP3   OH260895   1.390   5.980   4.233 -0.4761 -0.3929  0.2580
13135TIP3    H160896   1.422   5.962   4.144 -1.1990 -0.3958 -0.0116
13135TIP3    H260897   1.466   6.016   4.279  0.0861 -1.0153 -0.1671
13136TIP3   OH260898   2.457   1.490  16.077 -0.1353  0.0344 -0.1685
13136TIP3    H160899   2.475   1.442  16.158 -0.7502 -0.7921 -0.5148
13136TIP3    H260900   2.542   1.523  16.049  0.2917 -0.8162  0.1076
13137TIP3   OH260901   3.751   5.861  14.254  0.1859  0.2854  0.3369
13137TIP3    H160902   3.844   5.840  14.244 -0.0929 -1.6696  1.3765
13137TIP3    H260903   3.722   5.807  14.327 -1.6722  1.2544  0.3813
13138TIP3   OH260904   1.708   1.610  10.989  0.0384  0.3906 -0.4783
13138TIP3    H160905   1.627   1.566  10.963  0.6165 -0.5753 -0.6629
13138TIP3    H260906   1.716   1.683  10.927 -0.9617  0.8221 -0.1214
13139TIP3   OH260907   6.829   5.703  10.576  0.2849 -0.7330  0.0301
13139TIP3    H160908   6.785   5.671  10.655  0.5195 -0.6465  0.1974
13139TIP3    H260909   6.904   5.644  10.565 -1.2511 -2.5222 -1.7105
13140TIP3   OH260910   5.955   0.361   1.324  0.0813 -0.0169 -0.7842
13140TIP3    H160911   5.906   0.440   1.348  0.7113  0.2796 -0.4707
13140TIP3    H260912   5.887   0.300   1.293 -0.3149  0.9285 -1.8151
13141TIP3   OH260913   4.451   4.195   3.262 -0.2877 -0.0067  0.7008
13141TIP3    H160914   4.458   4.099   3.266 -2.2637 -0.3545 -1.7603
13141TIP3    H260915   4.538   4.223   3.235 -0.5464 -1.5324 -2.1577
13142TIP3   OH260916   2.451   1.998   5.543  0.6003  0.2985  0.4314
13142TIP3    H160917   2.442   1.905   5.559  0.7375  0.1536 -0.3090
13142TIP3    H260918   2.447   2.007   5.448 -1.1346  1.2289  0.5534
13143TIP3   OH260919   3.634   3.795   4.046  0.3643 -0.2186  0.3463
13143TIP3    H160920   3.665   3.851   4.117  2.6555 -0.0696 -0.6843
13143TIP3    H260921   3.634   3.852   3.969  0.5505 -1.0587 -0.2887
13144TIP3   OH260922   6.494   6.742  14.971  0.1091  0.2229 -0.1722
13144TIP3    H160923   6.478   6.824  15.016 -1.4786 -0.6212  0.9056
13144TIP3    H260924   6.407   6.708  14.950  0.7339 -1.0428 -0.8756
13145TIP3   OH260925   1.855   1.337   4.961 -0.2803  0.0451  0.2192
13145TIP3    H160926   1.896   1.298   5.038 -0.9902  0.8848  1.0444
13145TIP3    H260927   1.861   1.431   4.974  2.8551  0.4059 -2.5135
13146TIP3   OH260928   6.651   0.088   6.374  0.1903  0.0956  0.2683
13146TIP3    H160929   6.721   0.028   6.352 -0.7789 -0.9424 -0.1059
13146TIP3    H260930   6.668   0.166   6.322  0.2729 -0.6953 -0.9234
13147TIP3   OH260931   2.659   0.476   3.957 -0.2438 -0.2120 -0.3510
13147TIP3    H160932   2.614   0.463   4.040  1.0836  1.6421  0.7484
13147TIP3    H260933   2.669   0.571   3.950 -0.3355 -0.3080 -2.6752
13148TIP3   OH260934   6.057   5.547  12.370  0.5385  0.2887 -0.4335
13148TIP3    H160935   6.043   5.588  12.284  1.8095 -0.4300 -1.0070
13148TIP3    H260936   6.000   5.470  12.370  1.8592 -0.7392 -1.4041
13149TIP3   OH260937   3.189   0.785   0.312 -0.0896 -0.1061  0.2574
13149TIP3    H160938   3.168   0.700   0.349 -1.2199  0.3284  0.6511
13149TIP3    H260939   3.280   0.777   0.283 -0.5640 -1.8487 -0.8955
13150TIP3   OH260940   4.279   3.083  17.020  0.1436 -0.4833 -0.0171
13150TIP3    H160941   4.295   3.059  16.929 -0.6765  1.9603 -0.8724
13150TIP3    H260942   4.365   3.073  17.062  0.9288 -0.1077 -1.4515
13151TIP3   OH260943   4.023   1.097   0.062  0.1881 -0.0087  0.7324
13151TIP3    H160944   3.954   1.046   0.019  0.5877  0.5023 -0.5586
13151TIP3    H260945   3.976   1.171   0.102 -0.0537  0.1468  0.1628
13152TIP3   OH260946   1.074   2.734   3.334  0.2334 -0.0201 -0.3415
13152TIP3    H160947   0.979   2.734   3.323  0.3893  0.7531 -1.8702
13152TIP3    H260948   1.098   2.641   3.326 -0.2785 -0.0959 -1.1889
13153TIP3   OH260949   2.424   1.649   0.077  0.1576 -0.2681  0.2795
13153TIP3    H160950   2.488   1.698   0.026  0.6213 -1.0270  0.1152
13153TIP3    H260951   2.408   1.703   0.155 -0.3184  0.7547 -0.4994
13154TIP3   OH260952   3.091   0.705   2.962 -0.4593 -0.4940  0.1307
13154TIP3    H160953   3.179   0.672   2.943 -0.8372 -1.3645 -0.1709
13154TIP3    H260954   3.068   0.664   3.046 -0.6906 -0.4934  0.0674
13155TIP3   OH260955   4.200   0.921   1.810 -0.1266 -0.1215 -0.3949
13155TIP3    H160956   4.267   0.979   1.773 -0.7731  1.9598  1.4875
13155TIP3    H260957   4.249   0.863   1.868  0.1516  1.2574  0.8161
13156TIP3   OH260958   4.146   3.409  11.921 -0.4207  0.0209 -0.3975
13156TIP3    H160959   4.146   3.343  11.991 -0.3734 -0.3968 -0.7902
13156TIP3    H260960   4.232   3.402  11.881  1.0134  2.7839  1.8434
13157TIP3   OH260961   4.160   4.294   2.841  0.2613 -0.2551 -0.9740
13157TIP3    H160962   4.139   4.382   2.874  0.3430 -1.1020  1.6005
13157TIP3    H260963   4.110   4.286   2.760 -1.1718  1.5194 -0.3277
13158TIP3   OH260964   5.434   6.125  16.960  0.1075  0.3093 -0.4301
13158TIP3    H160965   5.470   6.036  16.964  0.7329  0.6024  0.9622
13158TIP3    H260966   5.341   6.114  16.981 -0.6193 -0.3776 -3.4847
13159TIP3   OH260967   1.840   4.595  15.130 -0.0067  0.1818  0.0670
13159TIP3    H160968   1.859   4.684  15.101 -1.3387  0.7155  0.7885
13159TIP3    H260969   1.756   4.601  15.176 -0.3065 -1.5093 -0.1870
13160TIP3   OH260970   5.942   0.402   0.359 -0.1464 -0.2087  0.7382
13160TIP3    H160971   6.030   0.438   0.367 -0.2821  0.1845  0.5216
13160TIP3    H260972   5.954   0.307   0.362  0.1488 -0.1548  2.0905
13161TIP3   OH260973   0.614   4.018  15.147  0.4326  0.3070  0.1777
13161TIP3    H160974   0.586   3.932  15.178  1.3042  0.9416  3.0425
13161TIP3    H260975   0.571   4.080  15.207  1.8987  1.6992 -0.1266
13162TIP3   OH260976   0.461   2.907   0.081  0.1725  0.7222  0.0554
13162TIP3    H160977   0.513   2.827   0.072  0.0329  0.7156 -0.8482
13162TIP3    H260978   0.447   2.936  -0.009 -1.8168  0.4534  0.2377
13163TIP3   OH260979   6.670   1.122  12.347  1.0209  0.2608 -0.2357
13163TIP3    H160980   6.660   1.059  12.418  1.0313 -0.2428 -0.6792
13163TIP3    H260981   6.757   1.161  12.362  1.1227 -0.0103 -0.1053
13164TIP3   OH260982   5.309   3.581  15.919 -0.4437 -0.6547 -0.1279
13164TIP3    H160983   5.392   3.621  15.944 -0.2494 -0.9258 -0.3470
13164TIP3    H260984   5.331   3.491  15.897 -0.4217 -0.1337 -2.4014
13165TIP3   OH260985   0.989   0.685   2.397 -0.1020 -0.6636 -0.5368
13165TIP3    H160986   1.011   0.597   2.426  2.0226 -0.1523 -0.4511
13165TIP3    H260987   1.048   0.702   2.323 -1.2626  0.2855 -1.2848
13166TIP3   OH260988   6.082   5.940   0.712 -0.1749 -0.0575 -0.0816
13166TIP3    H160989   6.083   5.871   0.778  0.8311 -0.3689 -0.3968
13166TIP3    H260990   6.003   5.924   0.662  0.3909 -1.4412 -0.5930
13167TIP3   OH260991   2.519   6.009  16.362 -0.5616 -0.1135  0.1832
13167TIP3    H160992   2.571   5.972  16.434  0.2478 -2.0803 -1.3406
13167TIP3    H260993   2.443   5.951  16.355 -0.3535 -0.2673 -0.8941
13168TIP3   OH260994   2.598   4.299  14.521  0.4454  0.3672  0.2119
13168TIP3    H160995   2.517   4.287  14.472  0.4153  2.0202 -0.2063
13168TIP3    H260996   2.569   4.327  14.608  0.5590  0.5649  0.1862
13169TIP3   OH260997   2.416   6.227  12.262  0.3709 -0.0992 -0.1135
13169TIP3    H160998   2.379   6.175  12.191 -1.1787  1.5987 -0.6349
13169TIP3    H260999   2.509   6.236  12.240  0.1772 -0.6663 -1.2324
13170TIP3   OH261000   1.335   5.888  12.653  0.6549 -0.6687 -0.0118
13170TIP3    H161001   1.415   5.841  12.676  2.2287  1.0332 -1.5793
13170TIP3    H261002   1.339   5.895  12.557 -1.3675 -0.4906 -0.1187
13171TIP3   OH261003   0.963   1.683   1.000  0.3241 -0.0382  0.3763
13171TIP3    H161004   0.929   1.598   1.027  0.6788 -0.0943  0.6498
13171TIP3    H261005   0.949   1.685   0.905 -0.6330  0.0295  0.5055
13172TIP3   OH261006   6.354   4.045  15.513 -0.2941  0.5234  0.2520
13172TIP3    H161007   6.361   4.030  15.608  2.5875  0.9954  0.2185
13172TIP3    H261008   6.413   3.980  15.475  1.1736  2.4208 -0.9174
13173TIP3   OH261009   1.973   6.070  15.278  0.2445 -0.5279 -0.4274
13173TIP3    H161010   1.992   5.999  15.218 -1.6002 -1.0474 -0.4637
13173TIP3    H261011   2.013   6.043  15.361  2.4352  0.0037 -1.2532
13174TIP3   OH261012   4.872   0.121   3.070 -0.2530  0.7355 -0.1780
13174TIP3    H161013   4.914   0.146   3.153  0.5277 -0.8967 -0.0525
13174TIP3    H261014   4.779   0.130   3.088 -0.0635  1.4290  0.5424
13175TIP3   OH261015   0.512   3.327   2.622  0.2131 -0.1760 -0.4015
13175TIP3    H161016   0.428   3.288   2.600 -0.0979  0.3146 -0.1046
13175TIP3    H261017   0.577   3.269   2.583 -0.2790 -0.2034 -1.1897
13176TIP3   OH261018   0.845   2.551  12.972 -0.0817  0.3871  0.5585
13176TIP3    H161019   0.783   2.581  13.038 -0.9851  0.5129 -0.3245
13176TIP3    H261020   0.830   2.457  12.964  1.6121 -0.0647  2.1423
13177TIP3   OH261021   4.132   2.150   6.807  0.2035 -0.2733  0.5165
13177TIP3    H161022   4.174   2.071   6.840  1.2936 -0.5488 -1.3836
13177TIP3    H261023   4.063   2.117   6.749  1.2765  0.0865 -1.0425
13178TIP3   OH261024   3.518   4.113   0.481  0.8080  0.4373  0.1056
13178TIP3    H161025   3.561   4.033   0.511  1.1157  0.6314  0.1797
13178TIP3    H261026   3.551   4.126   0.392 -0.8995 -0.7189 -0.7538
13179TIP3   OH261027   4.815   6.163  15.536 -0.2112  0.2868  1.1958
13179TIP3    H161028   4.726   6.132  15.519  0.2348  0.2179 -1.3539
13179TIP3    H261029   4.803   6.249  15.576 -1.3963 -0.4266  2.4651
13180TIP3   OH261030   1.684   0.673   4.600 -0.1365 -0.8431 -0.5245
13180TIP3    H161031   1.768   0.629   4.613  0.5005  0.8798  1.9965
13180TIP3    H261032   1.618   0.604   4.612  0.8805 -1.8214 -0.4365
13181TIP3   OH261033   4.104   4.775   1.119  0.4148 -0.4424  1.2853
13181TIP3    H161034   4.016   4.747   1.091  0.1078  2.2092 -0.8186
13181TIP3    H261035   4.134   4.705   1.176 -1.6805 -3.1361 -0.6444
13182TIP3   OH261036   1.964   6.549  14.827 -0.5053  0.5052  0.2721
13182TIP3    H161037   1.930   6.464  14.856  0.2436  0.5341  1.2625
13182TIP3    H261038   2.057   6.534  14.813 -0.3745  1.1576  0.4224
13183TIP3   OH261039   5.044   2.823  14.437  0.1540 -0.1236  0.0652
13183TIP3    H161040   5.006   2.872  14.510 -0.0418  1.1285 -0.8442
13183TIP3    H261041   5.128   2.867  14.420 -0.8172  1.0843 -1.9073
13184TIP3   OH261042   1.705   3.871  12.146 -0.1844 -0.3470 -0.3452
13184TIP3    H161043   1.637   3.845  12.207  0.0162  0.8327  0.4161
13184TIP3    H261044   1.704   3.967  12.149 -0.3955 -0.2416 -2.4535
13185TIP3   OH261045   3.134   0.323  16.875  0.3546  0.9168 -0.6168
13185TIP3    H161046   3.116   0.403  16.924 -1.1772 -0.1309  0.6524
13185TIP3    H261047   3.126   0.349  16.783 -2.0742  1.8735 -0.2192
13186TIP3   OH261048   5.154   2.804   4.616  0.0860 -0.3177 -0.6596
13186TIP3    H161049   5.151   2.739   4.546  0.4007  0.9657 -1.9225
13186TIP3    H261050   5.243   2.798   4.651 -0.2871 -1.4617  0.1705
13187TIP3   OH261051   5.996   1.093   5.414 -0.0111 -0.7912 -0.3093
13187TIP3    H161052   5.952   1.050   5.340 -0.8585 -1.3918  0.5146
13187TIP3    H261053   6.069   1.036   5.435 -1.2259 -1.9812  0.8822
13188TIP3   OH261054   0.198   1.040   0.281 -0.1071 -0.0037  0.3488
13188TIP3    H161055   0.229   0.974   0.343 -1.3295  0.2889  1.3174
13188TIP3    H261056   0.186   1.119   0.334  0.6061  0.8005 -0.6426
13189TIP3   OH261057   1.223   6.509  11.196 -0.5519 -0.0882 -0.4128
13189TIP3    H161058   1.191   6.496  11.107 -0.8278  0.7916 -0.4522
13189TIP3    H261059   1.206   6.602  11.215  0.3256 -0.0406  0.2247
13190TIP3   OH261060   2.547   2.451   3.077 -0.0424 -0.4051  0.3563
13190TIP3    H161061   2.559   2.477   3.169  0.6630  0.0728  0.1375
13190TIP3    H261062   2.503   2.366   3.082  0.4892 -0.6506  1.1504
13191TIP3   OH261063   4.877   4.162   0.445  0.0985  0.2195  0.4780
13191TIP3    H161064   4.830   4.152   0.527  0.1503  0.2115  0.5067
13191TIP3    H261065   4.968   4.176   0.471  0.0247  0.7896  0.4443
13192TIP3   OH261066   5.497   4.319  15.554  0.2517  0.0250  0.0252
13192TIP3    H161067   5.556   4.392  15.538  1.7749 -1.2920 -0.5850
13192TIP3    H261068   5.410   4.359  15.553  1.1195  2.4548  3.4353
13193TIP3   OH261069   6.035   2.760   5.805 -0.4980 -0.5437 -0.0962
13193TIP3    H161070   6.000   2.765   5.894 -0.8095 -4.5906  0.1704
13193TIP3    H261071   6.130   2.762   5.816 -0.5299 -1.3128  0.3871
13194TIP3   OH261072   1.381   6.440   4.097 -0.3009  0.3988  0.6453
13194TIP3    H161073   1.425   6.426   4.013  2.1447 -0.0794  1.9288
13194TIP3    H261074   1.401   6.531   4.120  1.6204 -0.3300  2.0616
13195TIP3   OH261075   5.067   2.214   5.066 -0.4470 -0.3836  0.4465
13195TIP3    H161076   5.048   2.145   5.002  2.0059 -1.6388  0.9380
13195TIP3    H261077   5.082   2.292   5.013  1.1514 -1.3065 -0.5844
13196TIP3   OH261078   6.854   4.787   0.942  0.1405  0.1635  0.1187
13196TIP3    H161079   6.771   4.812   0.982  1.1758  0.0021  2.5577
13196TIP3    H261080   6.843   4.695   0.920  0.1658 -0.3434  2.0216
13197TIP3   OH261081   4.118   3.567  11.487  0.1460 -0.0490 -0.1391
13197TIP3    H161082   4.109   3.490  11.432 -0.9507 -0.5604  0.7127
13197TIP3    H261083   4.043   3.623  11.464 -1.4824 -1.1479  2.1144
13198TIP3   OH261084   1.471   3.333  14.375 -0.4081  0.3834 -0.5438
13198TIP3    H161085   1.481   3.414  14.425 -0.1046  0.5093 -0.8042
13198TIP3    H261086   1.555   3.322  14.330 -0.4690 -0.0425 -0.5617
13199TIP3   OH261087   5.941   1.256   1.350 -0.3143  0.1500  0.6596
13199TIP3    H161088   5.982   1.219   1.272  1.4507  1.3360  0.9898
13199TIP3    H261089   5.998   1.230   1.422 -0.4659  1.3011  1.2136
13200TIP3   OH261090   3.195   0.287   0.889  0.0079 -0.1610 -0.1128
13200TIP3    H161091   3.131   0.328   0.947  0.1866  0.6625 -0.4783
13200TIP3    H261092   3.262   0.251   0.947  1.1375  2.2202  0.2004
13201TIP3   OH261093   1.849   2.900   4.629  0.2061 -0.1678  0.3213
13201TIP3    H161094   1.862   2.980   4.680 -1.9663  0.3318  0.1910
13201TIP3    H261095   1.767   2.863   4.663  1.0337 -2.2283  0.2004
13202TIP3   OH261096   6.447   3.246   3.787 -0.1776  0.1002 -0.2861
13202TIP3    H161097   6.528   3.195   3.782 -0.1681 -0.0391  0.9303
13202TIP3    H261098   6.382   3.190   3.745  0.0965 -0.3765 -0.0930
13203TIP3   OH261099   1.770   3.565   5.386  0.6375  0.8615 -0.8337
13203TIP3    H161100   1.720   3.503   5.440  1.6477  1.1533  0.4909
13203TIP3    H261101   1.704   3.621   5.346 -0.1622  0.4034 -0.1861
13204TIP3   OH261102   6.029   0.231  12.148  0.0134 -0.0898 -0.2170
13204TIP3    H161103   6.039   0.193  12.061  1.3417  0.0813 -0.1560
13204TIP3    H261104   6.003   0.322  12.132 -0.6596 -0.3114 -0.4069
13205TIP3   OH261105   4.995   5.998   3.607  0.2870 -0.3914  0.8427
13205TIP3    H161106   4.936   5.993   3.682  0.2302 -1.7718  0.7155
13205TIP3    H261107   4.976   6.083   3.568 -1.4496 -0.7074  0.9442
13206TIP3   OH261108   4.760   2.567  17.026  0.4854 -0.4978 -0.8476
13206TIP3    H161109   4.738   2.543  17.116  0.3099  1.2021 -0.4133
13206TIP3    H261110   4.726   2.495  16.973  1.0363 -1.7776  0.4644
13207TIP3   OH261111   0.418   5.636  14.055 -0.2051 -0.2620 -0.2021
13207TIP3    H161112   0.468   5.554  14.059  0.6481  0.2852  0.8736
13207TIP3    H261113   0.428   5.665  13.964  0.8271 -0.5612 -0.2034
13208TIP3   OH261114   4.509   3.991  12.062 -0.2340  0.7314  0.4949
13208TIP3    H161115   4.478   3.913  12.107 -0.3259  1.1296  1.1259
13208TIP3    H261116   4.437   4.016  12.005  0.0430 -0.0202 -0.2082
13209TIP3   OH261117   1.860   1.104   3.364 -0.1431 -0.5063 -0.5299
13209TIP3    H161118   1.798   1.034   3.384 -1.1534  0.3678 -0.5563
13209TIP3    H261119   1.946   1.066   3.385 -0.8059 -1.0952  1.3507
13210TIP3   OH261120   2.782   3.306  15.184  0.3250  0.0756  0.0997
13210TIP3    H161121   2.846   3.269  15.123  0.7879  0.1662  0.5231
13210TIP3    H261122   2.721   3.234  15.201 -0.5472  0.4009 -1.4288
13211TIP3   OH261123   4.793   0.103  16.236  0.3138  0.6271  0.3627
13211TIP3    H161124   4.715   0.116  16.289 -0.3498 -1.8914  0.1075
13211TIP3    H261125   4.760   0.086  16.148  1.1895  0.2213  0.1058
13212TIP3   OH261126   3.502   2.522  16.637 -0.1675 -0.2726 -0.2907
13212TIP3    H161127   3.431   2.506  16.575 -0.8648  0.5134  0.2811
13212TIP3    H261128   3.570   2.460  16.612 -0.5224 -0.1276 -1.6997
13213TIP3   OH261129   0.974   3.976  16.498 -0.0672  0.5195  0.0448
13213TIP3    H161130   1.025   3.936  16.428 -1.8214  1.6394 -2.0352
13213TIP3    H261131   0.915   3.907  16.528  0.7975 -0.0113  0.5549
13214TIP3   OH261132   4.522   3.805   4.799 -0.0715 -0.0229  0.3040
13214TIP3    H161133   4.509   3.736   4.864 -0.4715 -1.4235 -1.2126
13214TIP3    H261134   4.447   3.863   4.810  0.6666  0.6906  2.1200
13215TIP3   OH261135   0.185   0.454  15.306  0.1768  0.2381 -0.3093
13215TIP3    H161136   0.106   0.408  15.277 -0.5725  0.2165  1.6143
13215TIP3    H261137   0.171   0.469  15.400  2.0885  1.0043 -0.0996
13216TIP3   OH261138   2.765   5.368  11.729 -0.0771 -0.1666 -0.0998
13216TIP3    H161139   2.721   5.451  11.746  1.6618  0.7532  0.1793
13216TIP3    H261140   2.758   5.320  11.811 -0.2918  0.0969  0.0392
13217TIP3   OH261141   6.339   4.085  16.492  0.6502  0.0923  0.0011
13217TIP3    H161142   6.313   4.025  16.561 -1.4609  0.4579 -0.3997
13217TIP3    H261143   6.429   4.109  16.513  1.3838 -2.7440  0.4785
13218TIP3   OH261144   6.153   2.410   4.093  0.0659 -0.7057  0.2527
13218TIP3    H161145   6.234   2.430   4.046 -0.7981  0.9326 -0.6249
13218TIP3    H261146   6.179   2.347   4.160  2.2875  0.5152  0.6408
13219TIP3   OH261147   4.062   3.422   4.654  0.1040  0.3334 -0.3390
13219TIP3    H161148   4.097   3.504   4.688 -3.4894  1.5207  0.9152
13219TIP3    H261149   4.035   3.443   4.564  0.0905  0.2118 -0.3633
13220TIP3   OH261150   1.575   0.440   1.782  0.0470  0.2034 -0.7746
13220TIP3    H161151   1.628   0.360   1.783 -0.1479  0.0615  0.8631
13220TIP3    H261152   1.619   0.499   1.843 -1.1732  0.4057 -0.0584
13221TIP3   OH261153   5.747   4.137  12.470  0.3745 -0.0859 -0.6254
13221TIP3    H161154   5.684   4.208  12.482  0.4290 -0.1426  0.0256
13221TIP3    H261155   5.831   4.181  12.460  0.1846  0.0079 -1.8950
13222TIP3   OH261156   5.920   5.959   3.949  0.3308  0.6790 -0.4146
13222TIP3    H161157   5.979   6.032   3.931 -0.2538  1.7172  1.5980
13222TIP3    H261158   5.856   5.962   3.878  1.3399  0.9843 -1.3292
13223TIP3   OH261159   4.748   3.376  15.339  0.2026 -0.3900 -0.0675
13223TIP3    H161160   4.711   3.429  15.411  1.6750 -0.1526  0.5543
13223TIP3    H261161   4.841   3.398  15.339  0.5738 -1.8387 -0.8142
13224TIP3   OH261162   5.050   6.063  11.244 -0.1799 -0.0431 -0.3306
13224TIP3    H161163   5.015   6.141  11.202  1.8614  1.3743  0.4338
13224TIP3    H261164   4.974   6.021  11.285 -1.5929  0.5361 -2.2575
13225TIP3   OH261165   2.782   2.858   1.251  0.4532 -0.5039 -0.0169
13225TIP3    H161166   2.727   2.923   1.295  0.4612 -0.3827 -0.1859
13225TIP3    H261167   2.788   2.785   1.313  1.9294  0.3953  0.9698
13226TIP3   OH261168   0.236   1.621  11.042  0.0954  0.0755 -0.4043
13226TIP3    H161169   0.273   1.540  11.076  0.0232  0.3771  0.4173
13226TIP3    H261170   0.196   1.596  10.959  0.0561 -0.7302 -0.1512
13227TIP3   OH261171   2.375   5.176   6.269  0.0794  0.3396  0.0174
13227TIP3    H161172   2.374   5.271   6.280 -1.6726  0.1198  2.5249
13227TIP3    H261173   2.317   5.161   6.194 -0.3590  1.2088  0.1685
13228TIP3   OH261174   1.327   0.911  12.620  0.0858  0.0667  0.2239
13228TIP3    H161175   1.402   0.852  12.624 -1.0058 -1.3424  1.1157
13228TIP3    H261176   1.319   0.934  12.527  0.2760 -1.5917 -0.2362
13229TIP3   OH261177   4.310   5.234   5.942  0.3984  0.2549  0.4012
13229TIP3    H161178   4.264   5.292   6.003 -0.6024  1.0048 -1.0230
13229TIP3    H261179   4.284   5.264   5.855  0.6993 -1.6661 -0.4074
13230TIP3   OH261180   4.270   3.803   1.729 -0.5948 -0.2922 -0.3229
13230TIP3    H161181   4.269   3.708   1.740  0.4773 -0.2723  0.0186
13230TIP3    H261182   4.195   3.821   1.673 -0.2680 -1.4411 -1.1617
13231TIP3   OH261183   0.562   6.171  14.491 -0.5412 -0.0105  0.5986
13231TIP3    H161184   0.497   6.228  14.450  0.0391  0.1488 -0.1149
13231TIP3    H261185   0.553   6.188  14.585 -1.1733  0.3837  0.4744
13232TIP3   OH261186   5.625   0.352   0.796 -0.4038 -0.3344  0.0692
13232TIP3    H161187   5.701   0.310   0.755  0.6809  1.0175  0.6028
13232TIP3    H261188   5.615   0.435   0.749 -1.9886 -0.7616 -0.4244
13233TIP3   OH261189   3.396   3.697  13.603 -0.4425  0.3723  0.2942
13233TIP3    H161190   3.466   3.634  13.585  0.1250  0.5698  1.6790
13233TIP3    H261191   3.315   3.645  13.600 -0.3761  0.3135 -2.2254
13234TIP3   OH261192   3.661   3.354   0.524 -0.7850 -0.0797  0.0009
13234TIP3    H161193   3.719   3.331   0.452 -0.9183 -0.0338 -0.1208
13234TIP3    H261194   3.712   3.335   0.603 -0.7621 -0.4534 -0.0992
13235TIP3   OH261195   5.380   1.730   2.675 -0.5565 -0.6583 -0.0540
13235TIP3    H161196   5.307   1.748   2.734  0.2048  0.7332  0.4840
13235TIP3    H261197   5.442   1.679   2.727 -0.7550 -1.1355 -0.2702
13236TIP3   OH261198   5.331   5.320  13.831 -0.1504  0.3648 -0.2477
13236TIP3    H161199   5.270   5.349  13.899  0.1436  0.2415  0.0716
13236TIP3    H261200   5.417   5.324  13.873  0.0286  0.2429 -0.5993
13237TIP3   OH261201   6.109   1.926  12.979  0.3440  0.5689 -0.3406
13237TIP3    H161202   6.194   1.905  12.940  0.7969  0.2690  0.7802
13237TIP3    H261203   6.091   2.016  12.950  1.2374  0.7772 -0.2733
13238TIP3   OH261204   4.207   0.535   2.674 -0.5396 -0.1085  0.8369
13238TIP3    H161205   4.267   0.594   2.721  0.0070 -0.4616  0.5960
13238TIP3    H261206   4.235   0.448   2.701 -1.4157 -0.2676  1.2771
13239TIP3   OH261207   1.693   4.774   3.139  0.4294 -0.4405 -0.4526
13239TIP3    H161208   1.626   4.793   3.072 -2.1734 -0.1472  2.0282
13239TIP3    H261209   1.669   4.688   3.172  0.3058  0.2937  1.4986
13240TIP3   OH261210   0.214   1.459  16.215  0.6363 -0.3640  0.1740
13240TIP3    H161211   0.166   1.392  16.166 -1.9347  2.3141 -1.2135
13240TIP3    H261212   0.292   1.476  16.161  0.4505 -1.0328 -0.3245
13241TIP3   OH261213   5.494   0.882  16.181 -0.2567 -0.0206 -0.1418
13241TIP3    H161214   5.497   0.859  16.273  0.7206 -1.3508 -0.4765
13241TIP3    H261215   5.586   0.885  16.154 -0.5564 -0.9731 -1.3621
13242TIP3   OH261216   3.820   6.524  13.378 -0.5140  0.3381  0.2063
13242TIP3    H161217   3.756   6.459  13.349  1.8248 -1.5352 -1.0923
13242TIP3    H261218   3.898   6.507  13.325  0.9879  2.7320  1.4562
13243TIP3   OH261219   2.073   0.750  15.679  0.4027 -0.3999 -0.5878
13243TIP3    H161220   1.978   0.751  15.668  0.4488 -0.7436 -1.0290
13243TIP3    H261221   2.089   0.679  15.741  0.2879  0.3780  0.3547
13244TIP3   OH261222   0.126   0.669   5.295 -0.1335 -0.0988  0.3036
13244TIP3    H161223   0.165   0.666   5.208 -1.8679  0.4605 -0.5295
13244TIP3    H261224   0.161   0.750   5.334 -0.5317  0.4500 -0.4647
13245TIP3   OH261225   6.656   0.074  13.627  0.0213 -0.0371  0.2016
13245TIP3    H161226   6.685   0.093  13.716 -0.1157  0.4186  0.1505
13245TIP3    H261227   6.684   0.149  13.575 -3.6218  1.9033  0.6535
13246TIP3   OH261228   1.117   0.642  17.110  0.4190  0.3724  0.1315
13246TIP3    H161229   1.204   0.669  17.078  0.0483  3.8080  1.5505
13246TIP3    H261230   1.130   0.625  17.203 -0.5120  1.9819  0.6093
13247TIP3   OH261231   5.135   4.044   1.372 -0.7743  0.5037  0.2106
13247TIP3    H161232   5.149   4.019   1.463  0.3918  1.4240  0.3152
13247TIP3    H261233   5.077   3.977   1.336 -1.5535  0.3395  1.7250
13248TIP3   OH261234   3.791   1.010  12.171 -0.2983  0.0898  0.3370
13248TIP3    H161235   3.800   1.104  12.189 -2.4838  0.4875 -0.4391
13248TIP3    H261236   3.867   0.989  12.116  0.6006  1.2091  1.0926
13249TIP3   OH261237   2.821   2.094   4.207 -1.0097 -0.0709  0.2824
13249TIP3    H161238   2.860   2.132   4.285 -0.6305  1.6922 -0.7121
13249TIP3    H261239   2.747   2.151   4.187 -1.7029 -1.0706 -0.1095
13250TIP3   OH261240   1.177   6.046   2.556 -0.1678 -0.0182  0.0997
13250TIP3    H161241   1.099   6.013   2.512 -0.2268 -0.0275  0.2124
13250TIP3    H261242   1.221   5.968   2.590  0.2254 -0.0739 -0.5124
13251TIP3   OH261243   1.990   6.345  16.915  0.4388  1.2511 -0.7829
13251TIP3    H161244   2.055   6.413  16.899  1.0632  1.0458  0.7429
13251TIP3    H261245   1.944   6.373  16.994  0.7046 -0.0737 -0.1246
13252TIP3   OH261246   4.804   5.774   1.180 -0.6915 -0.0655 -0.6253
13252TIP3    H161247   4.815   5.686   1.217 -1.9889 -0.7892 -1.8926
13252TIP3    H261248   4.765   5.825   1.251  1.9036  0.1032  0.8243
13253TIP3   OH261249   1.212   3.854  12.337  0.0692 -0.2309 -0.2330
13253TIP3    H161250   1.218   3.820  12.427 -0.8905  1.4725  0.5223
13253TIP3    H261251   1.118   3.858  12.319  0.1471  1.5520 -0.4366
13254TIP3   OH261252   1.457   2.802  16.712  0.3327 -0.0879  0.3898
13254TIP3    H161253   1.552   2.816  16.714  0.6882 -1.9942 -0.6774
13254TIP3    H261254   1.420   2.890  16.713  2.1263  0.7121  0.3982
13255TIP3   OH261255   4.729   4.210   3.219  0.3463  0.3817 -0.1558
13255TIP3    H161256   4.768   4.141   3.273 -1.7439  0.2705  1.3163
13255TIP3    H261257   4.774   4.290   3.246  1.9001 -0.1728 -0.9677
13256TIP3   OH261258   4.864   3.120  12.244  0.6434 -0.6121  0.3959
13256TIP3    H161259   4.804   3.187  12.278  0.0808 -0.0740 -1.5446
13256TIP3    H261260   4.905   3.084  12.323 -2.7336 -1.5411  1.9622
13257TIP3   OH261261   5.795   2.924   4.651  0.0603  0.1980 -0.1404
13257TIP3    H161262   5.885   2.894   4.639 -0.3447 -1.1175 -0.0161
13257TIP3    H261263   5.790   3.007   4.603  1.6351  0.8784  0.8012
13258TIP3   OH261264   6.661   0.209   2.736 -0.4089 -0.1668 -0.0054
13258TIP3    H161265   6.631   0.186   2.648 -1.1708  0.4119  0.0882
13258TIP3    H261266   6.746   0.166   2.745 -0.8366 -1.1612 -0.6056
13259TIP3   OH261267   5.082   3.967  10.885 -0.0430  0.0524  0.1991
13259TIP3    H161268   5.111   4.043  10.834 -0.9780  0.1753 -0.1599
13259TIP3    H261269   5.011   3.929  10.834  1.6426 -2.2271 -0.6150
13260TIP3   OH261270   3.324   1.902  14.209 -0.1917 -0.3663  0.1597
13260TIP3    H161271   3.291   1.889  14.120  2.2260 -1.5470 -0.6278
13260TIP3    H261272   3.299   1.822  14.256 -0.3292 -0.3113  0.1808
13261TIP3   OH261273   4.590   6.232   0.443  0.0396  0.0325 -0.4193
13261TIP3    H161274   4.629   6.164   0.497  0.8285  1.3245  0.7008
13261TIP3    H261275   4.502   6.244   0.479  0.2290  0.2447 -0.0280
13262TIP3   OH261276   2.395   3.444  12.534  0.4867  0.4229  0.4887
13262TIP3    H161277   2.360   3.355  12.529 -0.9370  0.9789 -0.1470
13262TIP3    H261278   2.483   3.434  12.571  0.0975 -1.1710  1.0563
13263TIP3   OH261279   1.341   2.353  16.004  0.1269 -0.1129 -0.2178
13263TIP3    H161280   1.412   2.417  16.009  1.1096 -1.2191  0.6351
13263TIP3    H261281   1.371   2.289  15.939  1.8577 -2.7313  2.8623
13264TIP3   OH261282   4.514   1.900   4.910  0.5233  0.5590 -0.2415
13264TIP3    H161283   4.497   1.898   4.816  0.6018  0.5454 -0.2550
13264TIP3    H261284   4.433   1.935   4.948  0.5847  0.8023 -0.3352
13265TIP3   OH261285   4.341   4.869  10.656 -0.6078  0.2944  0.4505
13265TIP3    H161286   4.418   4.923  10.673  0.1118 -0.0969 -1.3292
13265TIP3    H261287   4.304   4.852  10.742  2.5550 -1.3409  1.6719
13266TIP3   OH261288   0.909   1.456  11.591 -0.9639 -0.0900  0.2807
13266TIP3    H161289   0.942   1.369  11.616 -1.8839 -0.7724 -0.8228
13266TIP3    H261290   0.956   1.477  11.510 -0.9146  0.3488  0.4197
13267TIP3   OH261291   3.952   6.436   4.594  0.1808 -0.2668 -0.2004
13267TIP3    H161292   3.861   6.416   4.575 -0.0370 -0.4261  0.9442
13267TIP3    H261293   3.955   6.531   4.604 -0.0954 -0.3512  0.8340
13268TIP3   OH261294   4.492   1.059   2.101 -0.3671  0.0747 -0.6021
13268TIP3    H161295   4.574   1.048   2.149  0.4056 -1.4075 -2.1828
13268TIP3    H261296   4.458   0.970   2.091 -2.1485  0.6532 -0.0666
13269TIP3   OH261297   2.850   5.198  11.533  0.6528 -0.0652  0.6002
13269TIP3    H161298   2.859   5.109  11.567  0.8247  0.0590  0.8951
13269TIP3    H261299   2.825   5.250  11.610 -0.3930 -0.0141  0.2360
13270TIP3   OH261300   5.882   5.842   0.582  0.2093 -0.2434 -0.1223
13270TIP3    H161301   5.830   5.893   0.519 -0.0721 -0.9504 -0.4670
13270TIP3    H261302   5.823   5.829   0.656  0.6125  0.7749  0.3943
13271TIP3   OH261303   2.829   3.823  13.762  0.3729 -0.2802  0.1539
13271TIP3    H161304   2.810   3.737  13.723  1.2880 -0.6625  0.5215
13271TIP3    H261305   2.811   3.885  13.691  2.1802 -0.9723 -0.9731
13272TIP3   OH261306   3.490   1.126   1.841  0.0570 -0.4279  0.6476
13272TIP3    H161307   3.440   1.202   1.871 -1.9919  0.3112 -3.8299
13272TIP3    H261308   3.452   1.051   1.887 -1.2727  0.7130  1.4731
13273TIP3   OH261309   3.889   2.374  16.340  0.3979 -0.3609  0.0810
13273TIP3    H161310   3.903   2.469  16.342 -0.7889 -0.1686  0.0473
13273TIP3    H261311   3.961   2.340  16.287  0.0683  0.6890 -1.0968
13274TIP3   OH261312   5.083   6.117   4.735  0.2984  0.4069  0.3523
13274TIP3    H161313   5.019   6.086   4.799  0.6577 -0.4386  0.3099
13274TIP3    H261314   5.046   6.091   4.650 -0.1725  1.5153  0.2020
13275TIP3   OH261315   6.130   3.023  11.661 -0.2028  0.2305  0.4719
13275TIP3    H161316   6.163   3.036  11.750 -1.7413 -2.0383  1.4714
13275TIP3    H261317   6.137   2.928  11.646  1.6041  0.6721 -2.5505
13276TIP3   OH261318   5.025   6.486  14.763 -0.0196  0.3147 -0.1200
13276TIP3    H161319   5.089   6.455  14.698  0.7383 -0.1929  0.8388
13276TIP3    H261320   4.999   6.407  14.810  1.2021  0.9370  1.7285
13277TIP3   OH261321   4.313   5.490   4.419  0.3118  0.3824  0.0489
13277TIP3    H161322   4.271   5.406   4.404 -0.3757  0.8319 -0.5587
13277TIP3    H261323   4.398   5.467   4.458  0.8152 -0.6750 -1.5433
13278TIP3   OH261324   6.219   4.513   3.449  0.0468  0.1446 -0.1167
13278TIP3    H161325   6.289   4.489   3.510  1.5554  3.6314 -0.2278
13278TIP3    H261326   6.138   4.485   3.493  1.2190  0.5381  2.5211
13279TIP3   OH261327   3.377   4.638   4.904  0.3252  0.3048 -0.2963
13279TIP3    H161328   3.321   4.688   4.963  1.6344  0.3689  0.9497
13279TIP3    H261329   3.371   4.684   4.820  0.7181  1.9852  0.5580
13280TIP3   OH261330   0.719   4.061   0.524  0.0897 -0.0245 -0.3933
13280TIP3    H161331   0.658   4.134   0.537 -1.7966 -1.7234  1.1327
13280TIP3    H261332   0.691   3.996   0.588  1.7118 -2.0775 -1.6543
13281TIP3   OH261333   0.091   1.733   3.905 -0.0787  0.6756 -0.5772
13281TIP3    H161334   0.023   1.715   3.969  0.2474  0.8257 -0.1822
13281TIP3    H261335   0.059   1.693   3.824  0.3903 -1.2519  0.1401
13282TIP3   OH261336   5.753   2.559   3.670 -0.7986 -0.0939  0.3661
13282TIP3    H161337   5.785   2.562   3.580  0.6928  0.2145  0.8711
13282TIP3    H261338   5.744   2.466   3.690 -0.3910 -0.1836  0.1419
13283TIP3   OH261339   2.790   2.726   1.862 -0.3704 -0.6908  0.2396
13283TIP3    H161340   2.834   2.648   1.828 -0.5591 -0.3026 -0.9216
13283TIP3    H261341   2.851   2.761   1.927  0.5753 -0.7502 -0.5877
13284TIP3   OH261342   4.781   2.874   1.630 -0.5493 -0.1640 -0.3759
13284TIP3    H161343   4.774   2.966   1.657 -1.0318 -0.3048  0.0027
13284TIP3    H261344   4.875   2.859   1.620 -0.2939 -0.1776  1.5207
13285TIP3   OH261345   0.082   2.233   3.853 -0.1414  0.2936 -0.1801
13285TIP3    H161346   0.036   2.264   3.775  0.9903 -0.6206 -1.2577
13285TIP3    H261347   0.103   2.141   3.834  0.6934  0.2241  0.9448
13286TIP3   OH261348   0.823   2.032  11.032 -0.5757  1.0294 -0.1715
13286TIP3    H161349   0.757   2.044  11.100 -0.8078  0.2075 -0.2356
13286TIP3    H261350   0.777   2.051  10.951 -1.1778 -0.9574 -0.3456
13287TIP3   OH261351   0.957   4.855  14.435  0.3767 -0.4451 -0.1701
13287TIP3    H161352   0.907   4.914  14.491  0.4632 -1.3968  0.9575
13287TIP3    H261353   1.027   4.822  14.492  0.7326 -1.1037 -0.9690
13288TIP3   OH261354   4.252   1.881  13.840 -0.0545  0.2784  0.0320
13288TIP3    H161355   4.159   1.902  13.835 -0.2060  0.0410  1.5428
13288TIP3    H261356   4.255   1.786  13.826 -0.0006  0.3339 -0.3438
13289TIP3   OH261357   4.732   4.396   2.888  0.3794  0.7047  0.6056
13289TIP3    H161358   4.804   4.390   2.824  1.0278  1.3560  1.2499
13289TIP3    H261359   4.670   4.457   2.848  0.3442  0.4095  0.2013
13290TIP3   OH261360   5.771   3.466   3.960 -0.0605 -0.6458  0.5770
13290TIP3    H161361   5.781   3.481   4.054 -2.4154  0.1256  0.7644
13290TIP3    H261362   5.727   3.381   3.955 -0.2773 -0.5104  0.1932
13291TIP3   OH261363   5.244   2.932   5.363  0.0584 -0.2476  0.1959
13291TIP3    H161364   5.222   2.930   5.270  1.3210 -0.5390 -0.1139
13291TIP3    H261365   5.295   2.852   5.378 -0.6472 -0.5187  1.2787
13292TIP3   OH261366   2.607   6.263   4.857 -0.1471 -0.2900  0.3139
13292TIP3    H161367   2.578   6.346   4.895  0.3452  0.2068 -0.3632
13292TIP3    H261368   2.702   6.270   4.854 -0.1472 -0.5187 -0.5428
13293TIP3   OH261369   0.175   6.604  11.623  0.4215 -0.1983 -0.5009
13293TIP3    H161370   0.130   6.559  11.695  1.4402  0.6010  0.6724
13293TIP3    H261371   0.112   6.602  11.551 -1.2333  0.2982  0.8614
13294TIP3   OH261372   3.868   4.167   1.288 -0.9524  0.2332  0.8620
13294TIP3    H161373   3.921   4.169   1.367  0.4632 -0.7197 -0.0083
13294TIP3    H261374   3.805   4.096   1.302 -2.5916  1.8775  2.2213
13295TIP3   OH261375   5.013   3.767   4.570  0.5993  0.0132  0.0763
13295TIP3    H161376   4.957   3.724   4.505  3.9864 -2.7059 -1.3360
13295TIP3    H261377   5.017   3.705   4.643  2.1554 -0.1223 -0.1048
13296TIP3   OH261378   3.951   6.739   6.151 -0.6976  0.1247  0.4095
13296TIP3    H161379   3.933   6.650   6.181 -1.4076  0.5736  1.3815
13296TIP3    H261380   4.042   6.755   6.178 -1.4527  0.6865  2.9199
13297TIP3   OH261381   2.477   3.146   2.935 -0.4319  0.4009  0.6128
13297TIP3    H161382   2.565   3.113   2.919 -0.8896 -0.4950 -0.1348
13297TIP3    H261383   2.464   3.135   3.030  0.2827  0.6398  0.7467
13298TIP3   OH261384   3.657   4.539   1.205 -0.1410 -0.1087  0.1423
13298TIP3    H161385   3.665   4.634   1.201 -3.5167  0.2795 -0.8223
13298TIP3    H261386   3.656   4.511   1.113 -1.1091 -0.7911  0.3426
13299TIP3   OH261387   4.571   3.275   1.390 -0.1124 -0.6317 -0.4101
13299TIP3    H161388   4.666   3.268   1.387 -0.1148 -1.3052  0.8653
13299TIP3    H261389   4.555   3.357   1.437 -0.1343 -1.8662  1.8626
13300TIP3   OH261390   0.015   6.769  13.544 -0.0289 -0.1849  0.5964
13300TIP3    H161391  -0.055   6.729  13.493  0.6525 -0.2812 -0.2973
13300TIP3    H261392  -0.021   6.853  13.572  0.4253  1.0785 -2.2868
13301TIP3   OH261393   0.655   5.594   4.217  0.5729 -0.4317  0.4469
13301TIP3    H161394   0.714   5.640   4.158  1.3484  1.2035  2.3903
13301TIP3    H261395   0.683   5.620   4.304 -3.9517  1.7488  1.5101
13302TIP3   OH261396   0.413   0.641  11.624 -0.3497  0.0987  0.1177
13302TIP3    H161397   0.484   0.644  11.560  0.0392 -1.5350  0.4462
13302TIP3    H261398   0.340   0.685  11.581 -0.3562 -1.6492 -1.7990
13303TIP3   OH261399   6.842   4.115  16.183  0.1915 -0.4711 -0.1846
13303TIP3    H161400   6.833   4.209  16.197  1.1637 -0.5457  1.0937
13303TIP3    H261401   6.829   4.104  16.088 -3.1048  0.5311 -0.0038
13304TIP3   OH261402   3.676   6.196  14.965 -0.0354 -0.2061 -0.3063
13304TIP3    H161403   3.626   6.277  14.955 -0.1098 -0.3475 -1.1820
13304TIP3    H261404   3.614   6.127  14.940  0.3453 -0.4442 -0.6030
13305TIP3   OH261405   2.570   4.614   4.034  0.1443 -0.3557 -0.8792
13305TIP3    H161406   2.551   4.688   3.976 -0.3570  0.7122  0.5973
13305TIP3    H261407   2.519   4.632   4.113  1.3802 -1.3911  0.1962
13306TIP3   OH261408   2.365   0.358  13.360  0.1046 -0.0260 -0.2706
13306TIP3    H161409   2.338   0.266  13.360 -0.5278  0.1027  1.5734
13306TIP3    H261410   2.432   0.365  13.292  0.2567 -1.8738 -0.3384
13307TIP3   OH261411   1.434   6.795  12.491 -0.2148  0.4052 -0.8103
13307TIP3    H161412   1.504   6.758  12.544 -1.9596 -1.4896  0.3423
13307TIP3    H261413   1.478   6.839  12.419  2.1375 -0.2536  0.1410
13308TIP3   OH261414   2.328   1.752  15.490  0.0452 -0.2179  0.0775
13308TIP3    H161415   2.406   1.706  15.458  1.0184  1.2983  0.1104
13308TIP3    H261416   2.279   1.774  15.411 -1.1684 -2.4337  0.1349
13309TIP3   OH261417   4.274   1.955   0.645  0.1369 -0.3988 -0.1038
13309TIP3    H161418   4.292   1.866   0.612  1.8855  0.3218 -1.2369
13309TIP3    H261419   4.332   1.964   0.721  1.0474  0.2540 -0.8595
13310TIP3   OH261420   1.308   3.001  17.112  0.3382 -0.0829  0.0959
13310TIP3    H161421   1.349   2.990  17.026  0.1684 -0.4168  0.0564
13310TIP3    H261422   1.345   3.083  17.145  1.3405 -0.5719  0.2303
13311TIP3   OH261423   0.623   2.970   1.164  0.7620  0.0065 -0.1948
13311TIP3    H161424   0.626   2.880   1.132  1.3501 -1.6583  3.9291
13311TIP3    H261425   0.703   3.010   1.130  2.8240 -2.5163  1.2742
13312TIP3   OH261426   2.782   1.081  12.561  0.1153 -0.6529  0.2987
13312TIP3    H161427   2.825   1.010  12.513 -0.8662 -1.4146  0.5153
13312TIP3    H261428   2.839   1.157  12.547  1.8128 -1.7343  1.0347
13313TIP3   OH261429   2.226   0.687  11.758  0.0845 -0.0979  0.0763
13313TIP3    H161430   2.179   0.641  11.688 -1.5843  0.3174  0.8719
13313TIP3    H261431   2.239   0.621  11.826 -0.0640 -0.0020  0.1959
13314TIP3   OH261432   4.710   0.949   5.313 -0.1904  0.3856  0.0267
13314TIP3    H161433   4.711   0.894   5.392  0.7118  0.4011  0.0341
13314TIP3    H261434   4.775   0.909   5.255 -0.0157  1.0553 -0.2449
13315TIP3   OH261435   2.657   6.389   3.353  0.7376  0.4084 -0.6187
13315TIP3    H161436   2.686   6.470   3.394 -1.0924  1.3021 -0.9808
13315TIP3    H261437   2.586   6.357   3.410 -0.5518  0.6692 -2.0034
13316TIP3   OH261438   1.480   5.331  13.043  0.2133  0.3665 -0.0609
13316TIP3    H161439   1.477   5.323  13.138  0.1828  0.9275 -0.0074
13316TIP3    H261440   1.507   5.422  13.028 -0.1105  0.3809 -0.5874
13317TIP3   OH261441   2.773   5.096   1.001 -0.6493  0.1765  0.4981
13317TIP3    H161442   2.761   5.002   1.010 -0.4217  0.0130 -0.7314
13317TIP3    H261443   2.866   5.107   0.981 -0.7204  0.6377  0.4024
13318TIP3   OH261444   6.531   2.999  15.229  0.2388 -0.1799  0.1159
13318TIP3    H161445   6.538   2.911  15.266  2.6772  0.8068  2.3715
13318TIP3    H261446   6.602   3.004  15.165 -0.3598 -0.0656 -0.5506
13319TIP3   OH261447   3.774   0.860  11.430 -0.2108  0.4007 -0.9601
13319TIP3    H161448   3.749   0.798  11.362  2.1902 -0.0788 -1.5081
13319TIP3    H261449   3.866   0.882  11.411 -0.7603  3.7602 -0.5007
13320TIP3   OH261450   4.728   1.750   2.505  0.2134 -0.0758  0.6271
13320TIP3    H161451   4.757   1.669   2.464 -1.7731 -1.5378  1.9587
13320TIP3    H261452   4.746   1.737   2.598  1.4388  1.7622  0.7038
13321TIP3   OH261453   4.625   3.459  12.615  0.2026 -0.1271 -0.1989
13321TIP3    H161454   4.614   3.371  12.578  0.7557 -0.1394 -0.3435
13321TIP3    H261455   4.711   3.487  12.586  0.8603 -0.3170  1.4332
13322TIP3   OH261456   2.860   3.707  12.203  0.5719  0.3086  0.2706
13322TIP3    H161457   2.869   3.626  12.254  0.3004 -0.9712 -1.5785
13322TIP3    H261458   2.856   3.777  12.268  0.5470 -1.1895  1.9580
13323TIP3   OH261459   6.023   5.892  13.050 -0.5838 -0.3762 -0.1753
13323TIP3    H161460   6.005   5.972  13.000 -0.3923 -0.7569 -0.8712
13323TIP3    H261461   6.060   5.923  13.133 -1.7650  0.2962  0.1161
13324TIP3   OH261462   5.568   4.047   0.351 -0.3593 -0.2897  0.9822
13324TIP3    H161463   5.507   3.994   0.404 -2.1610  1.9328  1.2909
13324TIP3    H261464   5.636   4.073   0.412 -1.3911  0.6647  1.7634
13325TIP3   OH261465   3.202   2.269  13.649  0.2289 -0.0423 -0.4851
13325TIP3    H161466   3.123   2.286  13.701  1.5329  2.1260  0.9533
13325TIP3    H261467   3.224   2.178  13.670 -0.1737  0.2742  1.6025
13326TIP3   OH261468   0.593   5.667   2.047  0.2202 -0.1496  0.0656
13326TIP3    H161469   0.624   5.586   2.005 -1.3810 -0.9795  0.4164
13326TIP3    H261470   0.605   5.652   2.141 -0.8675 -0.3404  0.1843
13327TIP3   OH261471   1.045   4.101   4.035  0.5357  0.7462  0.0554
13327TIP3    H161472   0.982   4.150   4.087 -0.2986 -0.6761  0.4544
13327TIP3    H261473   1.035   4.134   3.946 -0.3132  0.9776  0.2320
13328TIP3   OH261474   2.987   0.603   3.314  0.3492 -0.1716  0.1201
13328TIP3    H161475   2.980   0.687   3.270 -1.2386 -0.8697 -1.0781
13328TIP3    H261476   2.917   0.604   3.379  1.5642  0.1595  1.4722
13329TIP3   OH261477   4.737   5.497   3.465  0.2077 -0.6316 -0.4065
13329TIP3    H161478   4.808   5.493   3.529  0.2679  1.4659 -0.2680
13329TIP3    H261479   4.770   5.555   3.397 -2.2857  2.7904  0.9935
13330TIP3   OH261480   0.829   5.962   5.616 -0.4191  0.4411  0.5024
13330TIP3    H161481   0.818   5.911   5.535 -0.6746  1.3590 -0.0504
13330TIP3    H261482   0.919   5.944   5.643 -1.0011 -1.6132  1.2428
13331TIP3   OH261483   3.805   5.544  11.718  0.5267 -0.1232  0.4457
13331TIP3    H161484   3.879   5.563  11.775  0.3876  3.1882 -0.2671
13331TIP3    H261485   3.743   5.497  11.774  2.4669 -1.6325  1.4651
13332TIP3   OH261486   2.719   3.723  12.713  0.5124 -0.2793  0.2250
13332TIP3    H161487   2.784   3.659  12.684 -0.3703 -1.1844  0.1566
13332TIP3    H261488   2.755   3.808  12.689  1.8284 -0.7299  0.5309
13333TIP3   OH261489   6.283   3.903  14.547 -0.0971 -0.1281  0.3103
13333TIP3    H161490   6.371   3.889  14.511  0.0990  2.5713 -0.4758
13333TIP3    H261491   6.297   3.915  14.641  0.2866 -0.4734  0.2968
13334TIP3   OH261492   2.465   2.413  13.176 -0.0130  0.2801  0.5404
13334TIP3    H161493   2.535   2.364  13.133 -0.9722 -2.0882  1.4764
13334TIP3    H261494   2.405   2.435  13.104 -0.2767 -1.2866  0.2255
13335TIP3   OH261495   1.042   2.289   4.280  0.2783 -0.5564  0.1272
13335TIP3    H161496   0.985   2.348   4.231 -0.2857 -1.8259 -0.7868
13335TIP3    H261497   1.110   2.265   4.218  0.1853 -1.3084  0.3088
13336TIP3   OH261498   2.632   1.362   6.022 -0.2480  0.3563  0.1196
13336TIP3    H161499   2.645   1.402   6.107  2.3151 -1.4854  0.7054
13336TIP3    H261500   2.679   1.419   5.961 -1.5663  1.3339 -0.0427
13337TIP3   OH261501   6.454   5.149  14.343  0.3613 -0.0843 -0.2843
13337TIP3    H161502   6.411   5.192  14.416  0.0474 -0.6413 -0.1411
13337TIP3    H261503   6.541   5.189  14.340  0.1702  0.3617  0.0167
13338TIP3   OH261504   1.364   3.195  14.135 -0.1542  0.3792  0.2912
13338TIP3    H161505   1.371   3.222  14.226 -0.3594 -1.1133  0.7732
13338TIP3    H261506   1.450   3.160  14.112 -0.1437  0.6163 -0.0468
13339TIP3   OH261507   2.486   0.722   6.020 -0.0110  1.1040  0.3867
13339TIP3    H161508   2.542   0.799   6.018 -0.3390  1.3276 -0.4120
13339TIP3    H261509   2.441   0.728   6.105  1.6690  0.5321  1.3714
13340TIP3   OH261510   0.247   3.301  14.230 -0.1306  0.1707  0.8563
13340TIP3    H161511   0.300   3.299  14.309 -0.2305 -0.1635  0.9185
13340TIP3    H261512   0.295   3.246  14.167 -1.4103 -1.8699  1.5766
13341TIP3   OH261513   5.469   3.267   4.389 -0.3303 -0.1327  0.0984
13341TIP3    H161514   5.463   3.337   4.324 -1.9309 -0.8942 -0.6191
13341TIP3    H261515   5.563   3.260   4.407 -0.0000  1.1642 -0.9428
13342TIP3   OH261516   1.728   5.776  14.186 -0.3252 -0.1834 -0.4896
13342TIP3    H161517   1.755   5.782  14.277 -1.1125 -0.8614 -0.1951
13342TIP3    H261518   1.639   5.812  14.185 -0.5544 -0.7381 -0.8621
13343TIP3   OH261519   1.028   3.949   3.285 -0.2832 -0.2015  0.5618
13343TIP3    H161520   0.996   4.017   3.345  0.8183 -0.8383  1.9238
13343TIP3    H261521   1.067   3.884   3.342  2.6975  0.1214 -0.9489
13344TIP3   OH261522   0.850   3.372  13.849 -0.4716 -0.5249 -0.2604
13344TIP3    H161523   0.764   3.331  13.847 -0.5966 -0.2792 -0.0186
13344TIP3    H261524   0.863   3.407  13.761 -0.7639 -0.2639 -0.1995
13345TIP3   OH261525   6.856   5.558  13.749 -0.2159  0.2600  0.4458
13345TIP3    H161526   6.945   5.589  13.761 -0.0287 -0.9483  3.0490
13345TIP3    H261527   6.865   5.472  13.708 -0.1478  0.0692  0.8527
13346TIP3   OH261528   1.647   1.597   6.327 -0.0575  0.2135 -0.0218
13346TIP3    H161529   1.641   1.578   6.421 -0.9293 -1.4366 -0.3758
13346TIP3    H261530   1.581   1.664   6.311  0.6126  1.0651  0.6433
13347TIP3   OH261531   1.081   3.502  11.207  0.2600 -0.5963  0.0140
13347TIP3    H161532   1.024   3.568  11.248  0.6313  0.1313 -0.6210
13347TIP3    H261533   1.027   3.462  11.139  0.0592 -0.9047  0.3497
13348TIP3   OH261534   0.921   4.195  12.091  0.0128 -0.6898  0.1233
13348TIP3    H161535   0.991   4.198  12.026  0.6453 -2.6311  0.6315
13348TIP3    H261536   0.849   4.244  12.052  1.0125 -0.2448 -1.2204
13349TIP3   OH261537   2.776   1.561   3.651 -0.1323  0.6124 -0.2428
13349TIP3    H161538   2.855   1.512   3.674 -0.7568 -0.4668 -0.3321
13349TIP3    H261539   2.762   1.543   3.558 -0.5212  0.7560 -0.2149
13350TIP3   OH261540   1.295   5.431  11.237  0.1365  0.2545 -0.1427
13350TIP3    H161541   1.263   5.521  11.239 -0.1402  0.1649 -0.3919
13350TIP3    H261542   1.215   5.378  11.240  0.3398 -0.0074  1.6178
13351TIP3   OH261543   5.681   2.927  15.526  0.1141  0.8192 -0.4437
13351TIP3    H161544   5.732   2.853  15.494 -1.9424 -0.4019 -1.1333
13351TIP3    H261545   5.720   2.949  15.610  1.9184  0.1666 -1.0716
13352TIP3   OH261546   0.718   5.543  16.068 -0.5171  0.2077  0.5365
13352TIP3    H161547   0.719   5.529  15.974  0.4123  2.7298  0.0925
13352TIP3    H261548   0.665   5.622  16.080  1.5857  1.5169  1.8020
13353TIP3   OH261549   2.089   3.639  16.201  0.4223  0.1041 -0.5197
13353TIP3    H161550   2.049   3.648  16.288 -0.3742 -2.0391 -0.5990
13353TIP3    H261551   2.032   3.687  16.142 -0.3471 -0.3572 -0.1683
13354TIP3   OH261552   0.770   3.540   0.703 -0.0032 -0.4233  0.2248
13354TIP3    H161553   0.851   3.489   0.709  0.4978  0.4748  1.6684
13354TIP3    H261554   0.711   3.500   0.767  0.0830  0.2164  0.7259
13355TIP3   OH261555   5.192   5.719  16.576 -0.4671  0.1589  0.0540
13355TIP3    H161556   5.267   5.756  16.530  1.7929 -1.8455  1.8921
13355TIP3    H261557   5.143   5.671  16.509  0.0276  1.2356 -1.1097
13356TIP3   OH261558   1.267   1.153   1.435  0.5091  0.7281 -0.2266
13356TIP3    H161559   1.305   1.094   1.370  1.2804  0.9532  0.0085
13356TIP3    H261560   1.334   1.161   1.502 -1.1342 -1.4518  1.8895
13357TIP3   OH261561   4.794   3.344  14.106  0.1431 -0.0646  0.4919
13357TIP3    H161562   4.794   3.438  14.092  2.2960 -0.2138 -0.9342
13357TIP3    H261563   4.832   3.307  14.026 -1.0418 -2.1904  0.8222
13358TIP3   OH261564   1.945   4.407  11.884 -0.0414  0.0598 -0.2649
13358TIP3    H161565   1.995   4.456  11.819 -0.5479 -1.2050 -1.6759
13358TIP3    H261566   2.003   4.335  11.909  0.4913  1.0058  1.3948
13359TIP3   OH261567   1.550   6.165   4.382 -0.9007 -0.1040 -0.1452
13359TIP3    H161568   1.601   6.140   4.459  1.1315  0.3983 -1.2531
13359TIP3    H261569   1.484   6.226   4.415  0.3841  0.6609  1.1066
13360TIP3   OH261570   6.439   5.903  16.281 -0.2861 -0.0121  0.0487
13360TIP3    H161571   6.418   5.932  16.192 -0.4997 -1.2912 -0.3377
13360TIP3    H261572   6.390   5.821  16.291  0.1488 -0.1478  1.1644
13361TIP3   OH261573   4.481   1.924  12.637  0.0636  0.2718  0.0252
13361TIP3    H161574   4.550   1.907  12.701  1.0055  3.4850  0.0600
13361TIP3    H261575   4.510   1.879  12.558  1.5100  0.4138  0.4446
13362TIP3   OH261576   0.087   4.542   3.567 -0.0848  0.4276  0.2477
13362TIP3    H161577   0.011   4.565   3.620 -0.5579 -0.1715 -0.1654
13362TIP3    H261578   0.051   4.493   3.492  0.9144 -2.3353  1.4424
13363TIP3   OH261579   4.286   1.067   5.182 -0.4707 -0.5014 -0.0157
13363TIP3    H161580   4.266   1.050   5.090  1.2165  1.4112 -0.8201
13363TIP3    H261581   4.306   1.160   5.185  0.2306 -0.6727  2.1589
13364TIP3   OH261582   4.117   5.268   2.371 -0.2572  0.1166  0.0760
13364TIP3    H161583   4.185   5.292   2.434 -0.4115 -0.7832  0.6165
13364TIP3    H261584   4.161   5.210   2.309 -0.1433  0.8762 -0.5716
13365TIP3   OH261585   1.170   1.495  11.771 -1.1044  0.4353  0.1693
13365TIP3    H161586   1.131   1.408  11.762 -0.2265 -0.3995  3.1987
13365TIP3    H261587   1.096   1.555  11.767 -1.6949 -0.3277 -2.3224
13366TIP3   OH261588   4.029   3.987  11.344 -0.5092  0.3478 -0.1560
13366TIP3    H161589   4.090   4.061  11.342 -0.4517  0.4078  1.7213
13366TIP3    H261590   3.943   4.027  11.332 -0.3471  0.4686 -1.0295
13367TIP3   OH261591   2.018   6.642  15.153  0.1131 -0.7109  0.0718
13367TIP3    H161592   2.002   6.605  15.240  0.6824 -2.2636 -0.4580
13367TIP3    H261593   1.947   6.609  15.099  0.2967 -0.5329 -0.2815
13368TIP3   OH261594   2.128   6.009   5.059 -0.1234 -0.4337 -0.8401
13368TIP3    H161595   2.126   5.913   5.048  0.5038 -0.5156 -0.2796
13368TIP3    H261596   2.183   6.023   5.135 -1.0603  0.3310 -0.2819
13369TIP3   OH261597   1.112   1.718  15.933  0.1188  0.4203 -0.4193
13369TIP3    H161598   1.195   1.707  15.885 -0.1539 -0.7961 -0.6618
13369TIP3    H261599   1.132   1.782  16.001  1.4192 -0.2322 -0.1429
13370TIP3   OH261600   6.465   0.626  16.548 -0.3309 -0.1035  0.6068
13370TIP3    H161601   6.537   0.585  16.501 -0.3427  0.2528  0.2684
13370TIP3    H261602   6.498   0.639  16.637 -0.7145 -1.8572  1.0426
13371TIP3   OH261603   5.615   0.566   3.661 -0.2231 -0.3012  0.1666
13371TIP3    H161604   5.598   0.507   3.735 -1.3054 -0.3255 -0.0812
13371TIP3    H261605   5.707   0.591   3.671 -0.2785 -0.5023  1.3798
13372TIP3   OH261606   5.694   4.056  14.462  0.0175  0.1761  0.8111
13372TIP3    H161607   5.609   4.018  14.488 -0.2803 -0.1306 -0.5235
13372TIP3    H261608   5.674   4.109  14.385  1.2323 -1.0075 -0.3818
13373TIP3   OH261609   0.289   3.557  15.520  0.5785  0.1154 -0.8063
13373TIP3    H161610   0.326   3.573  15.607 -0.5136  2.2851 -0.6638
13373TIP3    H261611   0.201   3.523  15.537  0.3732  0.5194 -1.0514
13374TIP3   OH261612   3.360   6.568  13.178 -0.5272  0.1808 -0.4996
13374TIP3    H161613   3.407   6.485  13.172 -0.8084 -0.0210  0.0148
13374TIP3    H261614   3.391   6.618  13.102 -0.5943 -0.5095 -0.9968
13375TIP3   OH261615   5.396   3.180  13.748 -0.2576  0.2351  0.6951
13375TIP3    H161616   5.375   3.088  13.735 -1.0052  0.4743  0.0853
13375TIP3    H261617   5.453   3.182  13.825 -1.9221 -0.5443  2.0181
13376TIP3   OH261618   0.308   5.101   4.912 -0.1478 -0.0322  0.4761
13376TIP3    H161619   0.297   5.125   4.820 -0.5097 -0.6184  0.3595
13376TIP3    H261620   0.223   5.122   4.952 -0.2726 -0.5399  0.4939
13377TIP3   OH261621   3.009   5.674  10.864  0.0874  0.7678  0.0329
13377TIP3    H161622   2.996   5.764  10.894  1.3241  1.0121 -0.1134
13377TIP3    H261623   2.925   5.649  10.826 -0.7934  1.2705  1.5631
13378TIP3   OH261624   5.730   5.539  11.316  0.2947  0.1999  0.0127
13378TIP3    H161625   5.794   5.532  11.245 -0.7728  1.5018 -1.1294
13378TIP3    H261626   5.683   5.456  11.315  0.5127  0.0813 -0.5879
13379TIP3   OH261627   0.388   0.241  12.684  0.1757  0.4441  0.2265
13379TIP3    H161628   0.330   0.244  12.760 -0.5751 -0.1643 -0.3157
13379TIP3    H261629   0.441   0.321  12.692  1.3907 -0.4877  2.3627
13380TIP3   OH261630   2.663   5.733  12.668 -0.8881 -0.4721 -0.1078
13380TIP3    H161631   2.698   5.680  12.596 -0.3677  0.0393 -0.2431
13380TIP3    H261632   2.638   5.815  12.627  0.8282  0.4168  0.5058
13381TIP3   OH261633   1.858   3.527   3.205  0.3274  0.7680  0.2072
13381TIP3    H161634   1.854   3.556   3.114  2.2480  2.6104  0.6323
13381TIP3    H261635   1.897   3.601   3.253  2.3893 -1.2778  1.9672
13382TIP3   OH261636   2.376   5.754  11.545  0.3407  0.0684  0.1502
13382TIP3    H161637   2.446   5.714  11.493 -0.4525 -0.8702 -0.2339
13382TIP3    H261638   2.304   5.764  11.483 -1.3843 -3.0491  1.4612
13383TIP3   OH261639   2.929   6.362  13.565  0.4728  0.6584 -0.7743
13383TIP3    H161640   2.974   6.277  13.570  0.8088  0.8834  0.5714
13383TIP3    H261641   2.993   6.420  13.524  0.7316  0.5447 -0.5414
13384TIP3   OH261642   1.568   3.852  11.861  0.1287  0.5643 -0.5128
13384TIP3    H161643   1.636   3.830  11.925  0.0045 -1.6715 -1.0717
13384TIP3    H261644   1.599   3.933  11.820  1.5794  0.5301  0.4295
13385TIP3   OH261645   6.851   6.508   1.475 -0.2242  0.1314 -0.9943
13385TIP3    H161646   6.795   6.525   1.400 -0.5835  1.2737 -0.4881
13385TIP3    H261647   6.896   6.591   1.492  0.9442 -0.5037 -0.8210
13386TIP3   OH261648   5.220   5.761   4.852 -0.5279 -0.2196  0.2568
13386TIP3    H161649   5.200   5.669   4.832  0.5718 -0.3647 -0.2636
13386TIP3    H261650   5.263   5.758   4.937 -2.0289  0.0225  1.0627
13387TIP3   OH261651   3.914   0.195   0.417 -0.0791 -0.4521  0.5025
13387TIP3    H161652   3.989   0.138   0.437 -0.7950 -1.5754  0.0755
13387TIP3    H261653   3.894   0.238   0.500  1.2608  0.1597  0.5421
13388TIP3   OH261654   1.928   0.810   0.879 -0.1178 -0.3286 -0.0644
13388TIP3    H161655   1.964   0.722   0.867 -0.0584 -0.5895  1.7719
13388TIP3    H261656   1.981   0.865   0.821  0.9522 -1.2615 -0.0148
13389TIP3   OH261657   5.886   4.197  16.059 -0.0552 -0.1384 -0.3259
13389TIP3    H161658   5.871   4.249  15.980 -1.1176  0.0393 -0.0256
13389TIP3    H261659   5.835   4.241  16.127 -0.0019 -0.8806  0.2101
13390TIP3   OH261660   5.469   0.185  12.923  0.4015  0.3802 -0.4729
13390TIP3    H161661   5.487   0.168  12.830 -0.0394  0.3898 -0.5580
13390TIP3    H261662   5.552   0.165  12.966  0.5972  0.3307 -0.8628
13391TIP3   OH261663   1.651   4.331   1.786 -0.1242  0.6062 -0.0577
13391TIP3    H161664   1.735   4.319   1.831 -0.2503 -0.6505 -0.1116
13391TIP3    H261665   1.675   4.363   1.699  0.4585 -1.3512 -0.6773
13392TIP3   OH261666   4.883   6.302  11.973 -0.0108  0.5163 -0.0427
13392TIP3    H161667   4.823   6.232  11.947 -1.0844  1.0366  0.9393
13392TIP3    H261668   4.904   6.282  12.065  0.2591  1.0942  0.0242
13393TIP3   OH261669   4.287   1.417   1.076 -0.1156  0.1419 -0.1004
13393TIP3    H161670   4.307   1.485   1.011  1.8909 -1.2526 -1.0464
13393TIP3    H261671   4.329   1.448   1.157 -3.1375  2.1826  0.8568
13394TIP3   OH261672   3.970   5.403  17.094 -0.1769 -0.0600  0.2317
13394TIP3    H161673   4.023   5.377  17.169 -0.0304  1.0087  0.5163
13394TIP3    H261674   3.890   5.438  17.132  0.8836  2.8240  0.0880
13395TIP3   OH261675   6.399   4.994   4.625  0.4363 -0.1490  0.2621
13395TIP3    H161676   6.480   4.945   4.613 -0.2122 -1.2493  0.2433
13395TIP3    H261677   6.416   5.080   4.586  2.0300  0.1091  1.4280
13396TIP3   OH261678   4.059   3.310   3.748  0.5529 -0.2232 -0.3467
13396TIP3    H161679   4.027   3.399   3.741 -1.0488 -0.8116 -1.0752
13396TIP3    H261680   4.117   3.299   3.673  1.9372  0.6271  0.5661
13397TIP3   OH261681   0.158   5.012   2.553 -1.0276  0.2103 -0.5568
13397TIP3    H161682   0.247   5.026   2.585 -1.0593  1.4043 -0.9256
13397TIP3    H261683   0.150   4.917   2.543  0.4109  0.1257 -1.0901
13398TIP3   OH261684   2.095   1.919  12.566 -0.1830  0.5130 -0.1025
13398TIP3    H161685   2.065   1.894  12.479  0.3424 -2.4058  0.4414
13398TIP3    H261686   2.188   1.940  12.554 -0.3764  1.2097 -0.4100
13399TIP3   OH261687   5.097   2.125  12.340  0.2723  0.6571  0.0724
13399TIP3    H161688   5.116   2.218  12.346  2.1019  0.4215 -1.0243
13399TIP3    H261689   5.120   2.090  12.426  0.9907  1.0039  0.0264
13400TIP3   OH261690   5.917   2.742   2.203 -0.3397 -0.5639  0.0969
13400TIP3    H161691   5.896   2.691   2.125  0.1957 -0.2014 -0.2903
13400TIP3    H261692   5.953   2.678   2.264 -1.7521 -1.0462  0.4671
13401TIP3   OH261693   5.451   5.749  13.322 -0.2063 -0.1202 -0.7786
13401TIP3    H161694   5.537   5.712  13.300 -0.0298 -0.3571  0.2899
13401TIP3    H261695   5.401   5.741  13.241 -0.4115 -3.3529 -0.4593
13402TIP3   OH261696   5.048   4.831  12.621 -0.5294 -0.0781  0.2316
13402TIP3    H161697   5.052   4.918  12.580  1.0376 -0.3944 -0.3321
13402TIP3    H261698   5.095   4.841  12.704  1.5421 -0.8448 -0.7803
13403TIP3   OH261699   5.758   5.058   5.032  0.3400  0.0220 -0.3587
13403TIP3    H161700   5.702   4.999   4.980  1.0580 -0.9016 -0.1115
13403TIP3    H261701   5.820   5.094   4.969  0.5111 -0.2362 -0.3373
13404TIP3   OH261702   2.630   3.427  12.894  0.2057  0.2222  0.1947
13404TIP3    H161703   2.565   3.366  12.930  0.1328  0.4923  0.5242
13404TIP3    H261704   2.664   3.473  12.971  0.6575  0.2114  0.0071
13405TIP3   OH261705   0.861   4.607   4.038 -0.2719 -0.7050 -0.6475
13405TIP3    H161706   0.777   4.606   3.992  0.1945 -0.6470 -1.5247
13405TIP3    H261707   0.840   4.637   4.126 -1.2879 -1.4413 -0.6257
13406TIP3   OH261708   6.166   4.542  17.124  0.4121  0.4446 -0.1861
13406TIP3    H161709   6.187   4.569  17.035  0.4308  0.9963 -0.0209
13406TIP3    H261710   6.240   4.572  17.176  0.6399 -0.3230 -0.0521
13407TIP3   OH261711   5.988   4.313   4.287 -0.8055  0.3486 -0.4738
13407TIP3    H161712   5.940   4.394   4.303  0.1772  1.5383 -2.9747
13407TIP3    H261713   5.922   4.251   4.256 -1.0635  1.4590 -2.2834
13408TIP3   OH261714   3.854   1.889  12.012 -0.2938  0.3140 -0.0525
13408TIP3    H161715   3.920   1.948  12.048 -0.2936 -0.7532  1.8084
13408TIP3    H261716   3.902   1.834  11.950  0.2391  0.5541  0.1454
13409TIP3   OH261717   4.764   5.761  16.289  0.3460 -0.1786 -0.0906
13409TIP3    H161718   4.749   5.796  16.201 -0.2884  1.8564  0.7697
13409TIP3    H261719   4.722   5.675  16.288  1.8323 -0.9726 -2.2542
13410TIP3   OH261720   1.079   6.855   0.617 -0.0750 -0.2010 -0.4027
13410TIP3    H161721   1.099   6.786   0.681  1.9553 -0.1898 -0.9585
13410TIP3    H261722   1.021   6.915   0.664 -1.2040 -1.8197  0.3621
13411TIP3   OH261723   5.880   6.331   1.091  0.0604 -0.3194 -0.5405
13411TIP3    H161724   5.855   6.401   1.031  0.8648 -1.0855 -1.8343
13411TIP3    H261725   5.819   6.260   1.071  1.1403 -1.0380 -1.4055
13412TIP3   OH261726   3.607   3.448  14.972  0.0545 -0.4711  0.0551
13412TIP3    H161727   3.678   3.395  14.936  1.2936 -0.1943  1.9546
13412TIP3    H261728   3.592   3.516  14.906  1.3683 -0.6989 -0.5161
13413TIP3   OH261729   6.204   5.446  12.606  0.5037  0.1515 -0.0617
13413TIP3    H161730   6.267   5.393  12.557 -1.5786 -2.0600 -0.5231
13413TIP3    H261731   6.133   5.463  12.544  1.9793  5.8088 -0.8176
13414TIP3   OH261732   3.304   2.795   1.413  0.5570 -0.6335 -0.3486
13414TIP3    H161733   3.243   2.827   1.480 -0.9620 -0.8704 -1.5762
13414TIP3    H261734   3.316   2.870   1.355  1.8304 -0.4477  0.1190
13415TIP3   OH261735   5.829   6.684   4.920 -0.1321 -0.5164  0.0612
13415TIP3    H161736   5.906   6.693   4.864  0.5662 -1.0617  0.9062
13415TIP3    H261737   5.854   6.726   5.002 -0.5954 -1.0149  0.4687
13416TIP3   OH261738   4.661   6.569   5.511  0.1373 -0.0342 -0.0418
13416TIP3    H161739   4.679   6.630   5.582 -1.0421  0.7766 -0.4166
13416TIP3    H261740   4.747   6.547   5.476  0.7250 -0.2786  1.4805
13417TIP3   OH261741   4.041   5.433  11.480 -0.3964 -0.5654  0.1038
13417TIP3    H161742   3.961   5.382  11.495  0.6468 -2.4122 -0.3628
13417TIP3    H261743   4.020   5.488  11.404 -1.2929 -0.8459  0.1318
13418TIP3   OH261744   1.688   0.834  16.907  0.5938  0.4303 -0.4032
13418TIP3    H161745   1.759   0.812  16.968  0.3518 -0.0757 -0.2991
13418TIP3    H261746   1.691   0.930  16.900  0.8036  0.4720  0.1876
13419TIP3   OH261747   0.760   3.807  10.875 -0.3546 -0.2949 -0.2721
13419TIP3    H161748   0.671   3.782  10.851 -1.5650  1.9087  1.5779
13419TIP3    H261749   0.778   3.885  10.823  0.6059 -0.8040 -0.7412
13420TIP3   OH261750   3.744   4.340  14.619 -0.0026  1.1187 -0.5189
13420TIP3    H161751   3.823   4.395  14.618  0.6043  0.4432 -3.8207
13420TIP3    H261752   3.672   4.403  14.609 -0.1442  1.8429  3.6230
13421TIP3   OH261753   4.998   2.817   1.435  0.1862 -0.0961  0.2099
13421TIP3    H161754   5.009   2.860   1.350 -0.5465  1.5808  0.9332
13421TIP3    H261755   4.922   2.760   1.423 -0.8187  1.2263  0.1299
13422TIP3   OH261756   4.053   5.638   4.437  1.1648 -0.2687 -0.3830
13422TIP3    H161757   3.977   5.583   4.415  1.9759 -0.7842 -2.0951
13422TIP3    H261758   4.128   5.579   4.430  1.9953  0.8857 -1.6469
13423TIP3   OH261759   4.335   3.322  13.361  0.1828 -0.0350  0.5080
13423TIP3    H161760   4.322   3.412  13.392  0.5078 -0.1448  0.9776
13423TIP3    H261761   4.430   3.314  13.352  0.1295 -0.2075  0.0844
13424TIP3   OH261762   1.665   6.546  11.554  0.4132  0.2429 -0.2191
13424TIP3    H161763   1.688   6.545  11.647  2.3522  2.7627 -0.5617
13424TIP3    H261764   1.694   6.462  11.521  0.1751 -0.4858  1.3268
13425TIP3   OH261765   1.208   6.572   5.296  0.2130  0.5024  0.2470
13425TIP3    H161766   1.175   6.486   5.320 -1.9372  1.3884  0.7389
13425TIP3    H261767   1.301   6.558   5.278 -0.5458 -2.4283 -2.3523
13426TIP3   OH261768   4.054   0.488   2.908 -0.3808  0.4467 -1.2435
13426TIP3    H161769   4.105   0.500   2.988  0.6103 -0.3115 -1.7366
13426TIP3    H261770   4.120   0.479   2.839 -1.2092  0.5635 -2.0699
13427TIP3   OH261771   3.313   2.866   6.853 -0.3813  0.3529  0.3925
13427TIP3    H161772   3.251   2.857   6.780  0.4021  0.0470 -0.2444
13427TIP3    H261773   3.363   2.785   6.852 -1.2990 -0.2705  2.1729
13428TIP3   OH261774   0.450   6.584  13.490 -0.8105 -0.0496  0.5068
13428TIP3    H161775   0.379   6.595  13.553 -0.8583  0.1179  0.4249
13428TIP3    H261776   0.524   6.553  13.542 -1.2497 -1.2767  0.4326
13429TIP3   OH261777   1.883   4.342  10.412  0.3024  0.1507 -0.6351
13429TIP3    H161778   1.879   4.292  10.494 -0.2232  0.3246 -0.5478
13429TIP3    H261779   1.871   4.277  10.343 -0.0123  0.1061 -0.5382
13430TIP3   OH261780   6.181   2.644  15.617  0.2437  0.3964  0.5635
13430TIP3    H161781   6.231   2.606  15.689  1.3265  1.1327  0.2256
13430TIP3    H261782   6.230   2.620  15.539 -0.9502 -0.4362  0.0536
13431TIP3   OH261783   1.768   1.732  13.597 -0.3939 -0.4396 -0.8001
13431TIP3    H161784   1.701   1.664  13.588 -1.0241  0.0600  0.0768
13431TIP3    H261785   1.720   1.814  13.603  0.2235 -0.1568  0.8159
13432TIP3   OH261786   0.478   2.240   6.046 -0.4618 -0.1429  0.0631
13432TIP3    H161787   0.539   2.289   5.992 -1.3747  2.0690  0.9118
13432TIP3    H261788   0.434   2.180   5.986  0.3404  0.4465 -1.1380
13433TIP3   OH261789   6.323   1.817  13.774 -0.0585  0.0905  0.4389
13433TIP3    H161790   6.252   1.793  13.714  0.1099  1.3441 -0.2998
13433TIP3    H261791   6.323   1.913  13.773  1.6116  0.1059  0.4894
13434TIP3   OH261792   2.390   5.325   2.653  0.1783 -0.6155  0.6191
13434TIP3    H161793   2.446   5.266   2.602 -1.3075 -0.5366 -1.2086
13434TIP3    H261794   2.307   5.278   2.661 -0.7337  0.7996 -0.0849
13435TIP3   OH261795   3.482   4.456  11.970 -1.0591  0.0340  0.1838
13435TIP3    H161796   3.450   4.486  11.884 -1.4557 -0.5678  0.1164
13435TIP3    H261797   3.498   4.537  12.019  0.5912  0.4563 -0.9427
13436TIP3   OH261798   6.070   1.178   1.087  0.1187  0.1608 -0.7139
13436TIP3    H161799   6.007   1.221   1.030  1.4455  1.7484 -1.0684
13436TIP3    H261800   6.124   1.125   1.028  0.9099  1.0798 -0.8379
13437TIP3   OH261801   5.819   3.999  10.761 -0.5366 -0.2165  0.2157
13437TIP3    H161802   5.804   3.906  10.743 -0.5608 -0.4152  1.1929
13437TIP3    H261803   5.909   4.003  10.793 -1.3665 -0.3386  2.7846
13438TIP3   OH261804   1.539   0.026  14.389  0.0731  0.1407  0.0641
13438TIP3    H161805   1.530   0.003  14.297 -2.0432 -0.7202  0.4303
13438TIP3    H261806   1.450   0.039  14.420  0.5439 -1.4348  2.4287
13439TIP3   OH261807   3.790   4.795  12.190  0.2113 -0.2100  0.0536
13439TIP3    H161808   3.811   4.804  12.098 -2.2449  0.5762 -0.5110
13439TIP3    H261809   3.779   4.885  12.221 -2.5127 -0.4656  0.1177
13440TIP3   OH261810   3.386   3.538  13.189  0.0770 -0.5951 -0.9399
13440TIP3    H161811   3.376   3.597  13.264 -1.7279 -1.8904 -0.0893
13440TIP3    H261812   3.341   3.583  13.117 -0.4854 -0.5050 -0.5395
13441TIP3   OH261813   4.597   4.784  12.486 -0.6275  0.6066 -0.1027
13441TIP3    H161814   4.507   4.761  12.460 -1.2895  0.5875  1.9840
13441TIP3    H261815   4.611   4.736  12.568  1.5964  0.0234 -0.7539
13442TIP3   OH261816   6.232   2.287   5.431  0.3849 -0.0323  0.7838
13442TIP3    H161817   6.243   2.331   5.347 -0.2505  0.4000  0.9186
13442TIP3    H261818   6.187   2.351   5.486  0.0626 -0.6022  1.1952
13443TIP3   OH261819   6.848   5.507  14.058 -0.0424  0.4859 -0.1851
13443TIP3    H161820   6.832   5.441  13.990  0.7546  0.1393 -0.0457
13443TIP3    H261821   6.772   5.502  14.115 -0.5353  0.5064 -0.8309
13444TIP3   OH261822   2.033   3.043   3.866  0.2246 -0.0537 -0.2312
13444TIP3    H161823   1.954   2.990   3.855 -0.6909  1.1399  0.3716
13444TIP3    H261824   2.006   3.131   3.841  1.5439  0.2654 -0.6073
13445TIP3   OH261825   2.982   3.192   5.017  0.1934  0.3022 -0.1993
13445TIP3    H161826   3.072   3.172   5.043 -0.1109  0.2796  0.8818
13445TIP3    H261827   2.935   3.203   5.100 -0.6497  1.0058 -0.7511
13446TIP3   OH261828   1.048   6.533  16.954 -0.0465 -0.2064 -0.1162
13446TIP3    H161829   1.047   6.548  17.049 -0.3508 -0.9274 -0.0025
13446TIP3    H261830   1.129   6.484  16.938 -0.2231 -0.4826 -0.1653
13447TIP3   OH261831   1.013   2.863  16.436  0.1338 -0.0019 -0.0741
13447TIP3    H161832   1.063   2.923  16.490 -0.6770  1.5337 -0.9577
13447TIP3    H261833   1.078   2.812  16.389  0.8420 -0.6230  1.5082
13448TIP3   OH261834   1.243   5.540  10.298  0.2710 -0.5564  0.8095
13448TIP3    H161835   1.218   5.622  10.256 -0.7401 -0.7753  0.9579
13448TIP3    H261836   1.338   5.539  10.293  0.2145 -1.1343 -2.5759
13449TIP3   OH261837   1.135   1.112   6.010  0.0213  0.1416 -0.6818
13449TIP3    H161838   1.068   1.096   5.942  1.6888  0.1427 -2.4116
13449TIP3    H261839   1.199   1.042   5.998  0.7603  0.6010  0.3948
13450TIP3   OH261840   2.776   2.768  10.948 -0.1445 -0.1076  0.4493
13450TIP3    H161841   2.689   2.729  10.936 -0.3736  1.0502 -2.5707
13450TIP3    H261842   2.775   2.846  10.893  2.8319 -0.0803  0.2729
13451TIP3   OH261843   3.586   3.082  12.544 -0.1043  0.2731 -0.1008
13451TIP3    H161844   3.496   3.058  12.565  0.3420  0.0839  1.8012
13451TIP3    H261845   3.601   3.164  12.592  1.2802 -0.6843  1.2228
13452TIP3   OH261846   1.924   0.302   2.383 -0.6666  0.2447  0.1062
13452TIP3    H161847   1.999   0.294   2.442 -0.7567  1.9498  0.5110
13452TIP3    H261848   1.879   0.217   2.390  0.8508 -0.5802  0.3308
13453TIP3   OH261849   4.603   2.838   2.479 -0.1132  0.1452  0.5323
13453TIP3    H161850   4.680   2.791   2.446 -0.4938  0.9614 -1.7010
13453TIP3    H261851   4.580   2.899   2.409 -2.7990 -0.0389  1.1298
13454TIP3   OH261852   2.955   1.965  15.725  0.0548  0.0538 -0.5379
13454TIP3    H161853   3.037   1.972  15.774 -0.3866 -0.2789  0.2786
13454TIP3    H261854   2.975   1.999  15.638  1.0253  0.0749 -0.3116
13455TIP3   OH261855   5.806   6.334   2.001 -0.0136 -0.0713 -0.6996
13455TIP3    H161856   5.858   6.329   2.081  0.4528 -0.3916 -1.0169
13455TIP3    H261857   5.717   6.311   2.029  0.4897 -2.1159 -0.5919
13456TIP3   OH261858   0.287   3.230   0.872  0.1403  0.3765  0.2317
13456TIP3    H161859   0.318   3.259   0.786  0.9777  1.3540  0.8394
13456TIP3    H261860   0.290   3.135   0.868  1.7309  0.4200 -0.2814
13457TIP3   OH261861   4.708   3.782  15.864 -0.2447 -0.1403 -0.1566
13457TIP3    H161862   4.638   3.735  15.909 -0.2625  0.6698  0.7200
13457TIP3    H261863   4.679   3.787  15.773 -1.3812  0.2344  0.1962
13458TIP3   OH261864   1.650   2.978  14.397 -0.3966 -0.0061 -0.3750
13458TIP3    H161865   1.741   2.997  14.419 -0.2905 -0.9874  0.0743
13458TIP3    H261866   1.605   2.976  14.481 -0.5749 -0.8078 -0.4840
13459TIP3   OH261867   4.098   2.217  11.290 -0.4781 -0.4232  0.3291
13459TIP3    H161868   4.059   2.135  11.260 -2.2294  0.4910 -0.0320
13459TIP3    H261869   4.109   2.269  11.210  0.7043 -0.3021  0.5388
13460TIP3   OH261870   3.286   1.403  13.213 -0.3402  0.3951  0.4194
13460TIP3    H161871   3.194   1.395  13.187 -0.3650 -0.9062  0.8042
13460TIP3    H261872   3.287   1.379  13.306 -0.0234  3.4250  1.3135
13461TIP3   OH261873   1.664   3.595  13.715 -0.5997  0.0822 -0.0614
13461TIP3    H161874   1.578   3.630  13.738  0.2815  0.4907  3.0820
13461TIP3    H261875   1.670   3.514  13.766  0.7324 -0.1237 -0.5305
13462TIP3   OH261876   6.789   6.003  12.141 -0.3643 -0.0190 -0.1955
13462TIP3    H161877   6.852   5.938  12.110 -1.3470  0.0411 -2.5725
13462TIP3    H261878   6.830   6.042  12.218  1.8976 -0.8870 -0.8806
13463TIP3   OH261879   1.155   5.004   2.153  0.2457 -0.0170  0.2566
13463TIP3    H161880   1.079   5.061   2.155  1.4832  1.8001 -1.0480
13463TIP3    H261881   1.191   5.008   2.242 -1.7850 -1.8985  1.2533
13464TIP3   OH261882   0.715   6.551  11.987 -0.3490 -0.4808 -0.5221
13464TIP3    H161883   0.678   6.476  12.034 -0.7001 -1.2174 -1.8812
13464TIP3    H261884   0.782   6.586  12.045 -1.8439 -0.3350  1.1774
13465TIP3   OH261885   3.616   0.675   1.457  0.0914 -0.5779  0.3791
13465TIP3    H161886   3.688   0.613   1.450 -0.1640 -0.7979 -0.4881
13465TIP3    H261887   3.539   0.626   1.428 -0.1110  0.1368 -0.3402
13466TIP3   OH261888   0.561   3.495  16.439  0.4260  0.4155  0.0261
13466TIP3    H161889   0.525   3.581  16.415 -1.2939 -0.2546  0.1034
13466TIP3    H261890   0.582   3.503  16.532 -2.3598 -0.0571  0.7639
13467TIP3   OH261891   2.222   3.396   3.146  0.0546 -0.3685 -0.3370
13467TIP3    H161892   2.139   3.390   3.193  0.1319 -0.2870 -0.1887
13467TIP3    H261893   2.270   3.466   3.191  1.3568 -2.2528  1.3615
13468TIP3   OH261894   6.097   5.719   0.470 -0.0417  0.2337 -0.0465
13468TIP3    H161895   6.028   5.757   0.524 -0.9746 -1.9203  0.4104
13468TIP3    H261896   6.055   5.645   0.426  1.8690 -0.9482 -0.0329
13469TIP3   OH261897   5.002   3.120  16.655  0.1891 -0.2737 -0.7483
13469TIP3    H161898   5.028   3.209  16.675  0.4926 -0.7734  1.3115
13469TIP3    H261899   4.910   3.127  16.627 -0.4365  0.5342  1.2965
13470TIP3   OH261900   2.324   3.976  14.331  0.3044 -0.0898  0.4060
13470TIP3    H161901   2.315   3.989  14.237  0.0117  0.7293  0.5399
13470TIP3    H261902   2.308   3.882  14.344 -1.4551  0.0902 -0.1579
13471TIP3   OH261903   6.206   2.881  10.544 -0.5663  0.2265 -0.7395
13471TIP3    H161904   6.140   2.950  10.539 -1.7151 -0.6503  0.9173
13471TIP3    H261905   6.195   2.831  10.464 -0.3465  1.4000 -1.5273
13472TIP3   OH261906   3.483   2.050  11.989 -0.2994  0.2663  0.6974
13472TIP3    H161907   3.544   2.104  12.041  1.5845 -0.9653 -0.1114
13472TIP3    H261908   3.531   1.968  11.974 -1.2190  0.1340 -2.0083
13473TIP3   OH261909   1.399   3.022  14.832  0.6479 -0.7777  0.1218
13473TIP3    H161910   1.369   3.000  14.920 -0.9190  0.1825 -0.1386
13473TIP3    H261911   1.344   3.096  14.805  1.4755 -0.6820 -1.4503
13474TIP3   OH261912   2.309   6.268   3.212 -0.2386  0.1136 -0.2770
13474TIP3    H161913   2.254   6.312   3.277 -0.3886 -2.2923  1.3741
13474TIP3    H261914   2.252   6.258   3.135 -0.4175  2.0378 -0.4424
13475TIP3   OH261915   2.189   5.690  16.786  0.2858  0.0306 -0.3782
13475TIP3    H161916   2.179   5.777  16.823  0.7817  0.3461 -0.9559
13475TIP3    H261917   2.168   5.701  16.693  1.8277 -0.1338 -0.7678
13476TIP3   OH261918   5.314   3.793   2.140  0.2663  0.2202  0.1902
13476TIP3    H161919   5.382   3.847   2.179  0.2153  0.3781  0.0651
13476TIP3    H261920   5.312   3.820   2.048 -1.2456  1.5608  0.5792
13477TIP3   OH261921   2.477   0.236  10.714  0.2276 -0.5699  0.0549
13477TIP3    H161922   2.463   0.162  10.773  0.4109  0.7440  1.7964
13477TIP3    H261923   2.414   0.302  10.741  2.6261  1.4358  1.2020
13478TIP3   OH261924   1.633   0.918   5.872  0.2397 -0.3293 -0.3536
13478TIP3    H161925   1.688   0.917   5.950  1.4016  0.0647 -1.1517
13478TIP3    H261926   1.591   0.832   5.872  3.4805 -2.0775 -1.5419
13479TIP3   OH261927   4.060   2.815  11.874 -0.2673 -0.3056  0.3930
13479TIP3    H161928   4.070   2.802  11.780 -0.0335  1.1613  0.1933
13479TIP3    H261929   4.150   2.817  11.907 -0.3402 -0.4973  0.6047
13480TIP3   OH261930   1.519   2.690  12.023 -0.0775 -0.3323  0.1693
13480TIP3    H161931   1.490   2.648  12.103  0.2713 -0.1111  0.4136
13480TIP3    H261932   1.535   2.781  12.047 -0.6237 -0.1043 -0.3073
13481TIP3   OH261933   0.575   2.775  14.761 -0.2629 -0.4665 -0.6770
13481TIP3    H161934   0.542   2.756  14.673  0.8375  0.2931 -1.2698
13481TIP3    H261935   0.590   2.689  14.800  0.0143 -0.8171 -1.5356
13482TIP3   OH261936   6.809   5.256   1.421  0.2133  0.1604 -0.5625
13482TIP3    H161937   6.766   5.325   1.370  1.6489  1.6745  0.2002
13482TIP3    H261938   6.760   5.176   1.399 -2.2182  1.5687 -0.6219
13483TIP3   OH261939   4.829   1.333  15.399  0.1572 -0.7075  0.1213
13483TIP3    H161940   4.853   1.302  15.312  1.6102  0.4435  0.0803
13483TIP3    H261941   4.912   1.341  15.446 -0.2712  1.6611  0.5799
13484TIP3   OH261942   4.463   5.463  11.981  0.3979  0.4622 -0.0203
13484TIP3    H161943   4.415   5.546  11.985  0.3740  0.4333  0.3754
13484TIP3    H261944   4.525   5.468  12.054  0.2884  0.0678  0.1042
13485TIP3   OH261945   0.410   1.462  15.517  0.2197  0.4109  0.3742
13485TIP3    H161946   0.323   1.472  15.556 -0.8142 -3.8126 -0.4199
13485TIP3    H261947   0.459   1.409  15.580  0.9616 -0.3147 -0.7755
13486TIP3   OH261948   4.987   6.498   5.448  0.1901  0.2319 -0.5802
13486TIP3    H161949   5.068   6.478   5.496 -0.4084 -0.4073  0.1810
13486TIP3    H261950   4.987   6.593   5.441  0.7534  0.2715 -0.1376
13487TIP3   OH261951   6.381   1.408  12.991  0.5136  0.7864 -0.2146
13487TIP3    H161952   6.466   1.370  13.013 -0.1590 -0.8434 -0.3460
13487TIP3    H261953   6.374   1.397  12.897 -0.2990 -0.1069 -0.0650
13488TIP3   OH261954   2.730   5.999  11.889  0.7495 -0.7029 -0.0331
13488TIP3    H161955   2.798   6.027  11.828 -0.2306  1.7259 -0.0965
13488TIP3    H261956   2.662   5.962  11.833  0.5097  0.1180 -0.2892
13489TIP3   OH261957   1.733   1.481   0.760  0.1582  0.2313  0.2691
13489TIP3    H161958   1.787   1.504   0.835 -1.1543 -0.4467  1.4654
13489TIP3    H261959   1.662   1.545   0.761  0.3553  0.4801 -0.6671
13490TIP3   OH261960   6.468   4.045  12.150  0.0533 -0.6623  0.0830
13490TIP3    H161961   6.480   4.105  12.077  1.0893  0.9022  1.4776
13490TIP3    H261962   6.417   3.972  12.113 -1.0942  0.9647 -1.7055
13491TIP3   OH261963   5.365   2.352  14.992  0.3513  0.3984  0.3321
13491TIP3    H161964   5.351   2.396  15.077  0.8974  0.2689  0.4931
13491TIP3    H261965   5.448   2.388  14.961  0.4898 -0.0653  0.1732
13492TIP3   OH261966   2.146   6.516   3.269  0.1424 -0.1052  0.4870
13492TIP3    H161967   2.108   6.546   3.352 -0.3377 -1.3564  0.7436
13492TIP3    H261968   2.077   6.529   3.205  0.2877  0.2663  0.4053
13493TIP3   OH261969   5.011   2.340   2.034  0.5221 -0.3508  0.4362
13493TIP3    H161970   5.099   2.314   2.006  0.1808 -1.6467  0.5228
13493TIP3    H261971   4.961   2.342   1.953  0.0161 -2.1602  0.6745
13494TIP3   OH261972   2.781   3.217   5.248 -0.4400 -0.1526  0.4456
13494TIP3    H161973   2.698   3.172   5.237 -1.0199  0.8954  0.3888
13494TIP3    H261974   2.764   3.307   5.220  0.5281  0.2523  1.0820
13495TIP3   OH261975   5.528   5.931  13.019  0.0479 -0.2481 -0.0851
13495TIP3    H161976   5.571   5.992  13.078  0.2559 -1.2607  0.8613
13495TIP3    H261977   5.452   5.899  13.068 -0.2743 -0.4677 -0.7065
13496TIP3   OH261978   3.827   6.073  10.652 -0.0664  0.0114 -0.0509
13496TIP3    H161979   3.866   6.157  10.675  1.1481 -0.4843 -0.2125
13496TIP3    H261980   3.857   6.013  10.720  2.0844 -1.0679 -1.8234
13497TIP3   OH261981   1.609   5.814   0.711 -0.8864  0.2921 -0.4479
13497TIP3    H161982   1.682   5.871   0.735 -0.7153 -0.3556  0.6361
13497TIP3    H261983   1.590   5.764   0.791 -1.7136 -0.4219 -1.0715
13498TIP3   OH261984   5.758   5.356  14.611 -0.0844  0.6520 -0.2263
13498TIP3    H161985   5.724   5.429  14.662  0.1998  1.3816 -1.0590
13498TIP3    H261986   5.701   5.351  14.535 -0.1169 -0.0188 -0.1654
13499TIP3   OH261987   0.384   6.572   6.083  0.2932  0.4923  0.5126
13499TIP3    H161988   0.351   6.485   6.106  0.0529 -0.0109 -1.5199
13499TIP3    H261989   0.475   6.557   6.058  0.0226  0.6595 -0.6275
13500TIP3   OH261990   3.529   0.674  16.015 -0.0056  0.3039 -0.2541
13500TIP3    H161991   3.504   0.702  15.927 -0.1474 -1.6253 -0.8699
13500TIP3    H261992   3.468   0.721  16.073  0.4458  2.0146 -1.1121
13501TIP3   OH261993   0.728   6.170   0.123 -0.3698  0.0925 -0.2973
13501TIP3    H161994   0.651   6.203   0.169  0.3849  1.6249 -0.0880
13501TIP3    H261995   0.734   6.224   0.044  0.7161  0.2643 -0.1140
13502TIP3   OH261996   1.826   0.002  14.269 -0.2392 -0.0234  0.2271
13502TIP3    H161997   1.803  -0.091  14.271  1.8330 -0.5670  2.4219
13502TIP3    H261998   1.801   0.031  14.181 -0.0634 -2.8800 -0.8507
13503TIP3   OH261999   0.051   3.524  14.356 -0.3749 -0.4566  0.3606
13503TIP3    H162000   0.003   3.540  14.274  0.3910 -0.4541 -0.0956
13503TIP3    H262001   0.137   3.492  14.327 -0.1756 -0.6674  1.1713
13504TIP3   OH262002   1.137   4.503   2.572  0.0442 -0.0256 -0.2101
13504TIP3    H162003   1.211   4.531   2.626 -0.1334  0.2072 -0.0869
13504TIP3    H262004   1.076   4.461   2.634  0.5443 -1.1827 -0.4684
13505TIP3   OH262005   3.908   3.011  13.853 -0.0038  0.3062 -0.1333
13505TIP3    H162006   3.885   3.101  13.875  0.8607  0.5390 -0.1326
13505TIP3    H262007   3.996   2.999  13.890 -0.1506 -0.5653 -0.0517
13506TIP3   OH262008   4.810   5.445   0.611  0.1623  0.3484  0.4587
13506TIP3    H162009   4.812   5.474   0.702 -0.3499  1.8301  0.0327
13506TIP3    H262010   4.780   5.354   0.615 -0.9617  0.7390  1.7051
13507TIP3   OH262011   4.248   0.772  15.030  0.3126  0.7625  0.5430
13507TIP3    H162012   4.212   0.784  15.118  0.8598  1.5755  0.6755
13507TIP3    H262013   4.263   0.678  15.023 -1.6776  0.4156  0.5219
13508TIP3   OH262014   4.406   5.575   3.653  0.1678  0.2462  0.2558
13508TIP3    H162015   4.471   5.558   3.721  1.0505 -0.3453 -0.7158
13508TIP3    H262016   4.346   5.501   3.658 -1.6060  1.7022  2.4147
13509TIP3   OH262017   5.669   4.404  15.250 -0.3681 -0.4287 -0.1062
13509TIP3    H162018   5.637   4.314  15.258 -2.2671  0.2985  1.2404
13509TIP3    H262019   5.590   4.456  15.236  0.2392  1.3983  2.4637
13510TIP3   OH262020   1.041   1.553  10.294 -0.0449 -0.5185  0.7644
13510TIP3    H162021   0.989   1.631  10.274  1.4704  0.8528  1.8725
13510TIP3    H262022   1.126   1.570  10.253  0.8721 -0.7339  2.4833
13511TIP3   OH262023   1.352   0.750  16.006  0.0886 -0.1452  0.2870
13511TIP3    H162024   1.443   0.743  15.976 -0.2531  0.4501 -0.9638
13511TIP3    H262025   1.310   0.670  15.974  0.3478 -0.8337  1.6044
13512TIP3   OH262026   4.566   2.082   3.275  0.5558  0.0521  0.1290
13512TIP3    H162027   4.541   2.009   3.331 -1.9255  0.8683  0.1845
13512TIP3    H262028   4.544   2.054   3.187  2.0427 -0.2220 -0.1886
13513TIP3   OH262029   4.149   3.128  15.715 -0.1776 -0.1828 -0.1788
13513TIP3    H162030   4.115   3.041  15.735  1.4964 -0.6361  0.9450
13513TIP3    H262031   4.200   3.115  15.635 -0.7070 -0.0078 -0.5521
13514TIP3   OH262032   4.215   5.241   4.873  0.1098 -0.0561 -0.3778
13514TIP3    H162033   4.144   5.202   4.924  0.7449  0.0889  0.6572
13514TIP3    H262034   4.197   5.335   4.875  0.6412  0.0409  0.4124
13515TIP3   OH262035   3.892   3.021   6.791 -0.1702 -0.4349  0.2562
13515TIP3    H162036   3.819   3.064   6.835 -0.3870 -0.2428 -0.2861
13515TIP3    H262037   3.962   3.087   6.789  0.3815 -0.9333  1.6527
13516TIP3   OH262038   6.379   0.209  13.325  0.4565  0.0702 -0.1449
13516TIP3    H162039   6.371   0.119  13.295  0.8224 -0.1276  0.3475
13516TIP3    H262040   6.437   0.205  13.401  1.1015  0.8159 -0.5805
13517TIP3   OH262041   5.005   1.184  16.621  0.2863  0.4944  0.1986
13517TIP3    H162042   4.994   1.278  16.604 -1.2663  0.9040  2.8181
13517TIP3    H262043   5.097   1.175  16.646  0.2776  1.5040  0.6620
13518TIP3   OH262044   0.761   6.352  13.265 -0.5559  0.3721 -0.0516
13518TIP3    H162045   0.759   6.421  13.199  1.0522  0.9904  0.5157
13518TIP3    H262046   0.833   6.295  13.238  0.8976  1.2656  1.7387
13519TIP3   OH262047   4.260   6.556   2.662  0.1307  0.2305  0.5606
13519TIP3    H162048   4.351   6.529   2.647  0.4509  0.8914  1.2654
13519TIP3    H262049   4.266   6.626   2.727 -0.9220 -0.0503  0.9811
13520TIP3   OH262050   6.596   1.639   0.034 -0.5452 -0.5948 -0.0396
13520TIP3    H162051   6.559   1.715  -0.011  0.4205 -0.3448 -0.4313
13520TIP3    H262052   6.678   1.672   0.072 -0.5049 -1.2456  0.4559
13521TIP3   OH262053   0.284   1.054  15.991  0.3873  0.1102  0.1183
13521TIP3    H162054   0.268   0.973  16.041  1.3921 -0.3488 -0.2708
13521TIP3    H262055   0.376   1.074  16.007  0.6674  0.0988 -1.3073
13522TIP3   OH262056   5.360   2.975  16.914  0.0490  0.6592 -0.4133
13522TIP3    H162057   5.400   2.951  16.998 -0.4859  1.0149 -0.0564
13522TIP3    H262058   5.429   2.958  16.850  0.6234  0.8288  0.1462
13523TIP3   OH262059   0.246   3.778   1.625 -0.0633  0.1131 -0.0733
13523TIP3    H162060   0.290   3.734   1.552 -1.2616 -0.7618 -0.2959
13523TIP3    H262061   0.216   3.706   1.681 -0.9166  0.6898  0.2254
13524TIP3   OH262062   3.421   3.360  14.058  0.3058  0.8535  0.1527
13524TIP3    H162063   3.453   3.282  14.014  0.0449  1.2856 -0.8403
13524TIP3    H262064   3.327   3.345  14.070  0.2408  1.0374 -0.1075
13525TIP3   OH262065   3.653   4.915  15.072 -0.4797 -0.0285  0.4453
13525TIP3    H162066   3.722   4.853  15.050 -1.3062 -0.8324  0.0619
13525TIP3    H262067   3.616   4.882  15.153  0.7672  1.4288  1.6820
13526TIP3   OH262068   6.041   2.675   6.571 -0.3674  0.5977  0.0665
13526TIP3    H162069   6.043   2.583   6.546 -1.0017  0.6917 -0.3478
13526TIP3    H262070   6.079   2.722   6.496 -2.0703  0.8594 -0.6798
13527TIP3   OH262071   5.751   5.320   5.123  0.1915 -0.1962 -0.4717
13527TIP3    H162072   5.733   5.234   5.085 -1.0988  0.5113 -1.5393
13527TIP3    H262073   5.809   5.301   5.197 -2.1547 -2.2945  0.9965
13528TIP3   OH262074   2.238   0.875   3.497  0.2582 -0.3263 -0.5749
13528TIP3    H162075   2.155   0.852   3.538  2.9545 -0.2881  6.1884
13528TIP3    H262076   2.292   0.796   3.508  2.9830  1.6868  2.0360
13529TIP3   OH262077   0.351   2.430  11.745  0.3237 -0.1131 -0.3876
13529TIP3    H162078   0.378   2.518  11.721  1.4325 -0.1563  0.5983
13529TIP3    H262079   0.417   2.373  11.706  1.0288 -0.3144  1.0253
13530TIP3   OH262080   5.838   3.484   3.695 -0.3550 -0.5389  0.3937
13530TIP3    H162081   5.779   3.479   3.770 -1.1096 -0.1634 -0.1593
13530TIP3    H262082   5.923   3.456   3.729 -0.9300 -1.4848  1.1172
13531TIP3   OH262083   5.012   5.177   5.090  0.0022 -0.0932  0.9527
13531TIP3    H162084   4.973   5.237   5.154 -1.4705 -0.6040  0.5839
13531TIP3    H262085   5.024   5.095   5.138  1.2543  0.2311  1.2333
13532TIP3   OH262086   0.430   3.721  13.371 -0.2163  0.6060  0.0852
13532TIP3    H162087   0.501   3.700  13.310 -0.6392  0.7941 -0.4871
13532TIP3    H262088   0.410   3.639  13.414 -0.4157  0.2974 -0.5833
13533TIP3   OH262089   2.063   3.912   2.365  0.9767 -0.4355 -0.0259
13533TIP3    H162090   2.138   3.926   2.307  1.4317  0.4138  0.7346
13533TIP3    H262091   2.065   3.818   2.384  1.4450 -0.5381 -0.5556
13534TIP3   OH262092   6.622   5.232  13.369 -0.3816  0.2043 -0.2113
13534TIP3    H162093   6.623   5.327  13.365  0.4972  0.3953  2.7054
13534TIP3    H262094   6.714   5.206  13.363 -0.5451 -0.4159 -0.1039
13535TIP3   OH262095   0.353   3.043  14.107  0.0693  0.4064 -0.0858
13535TIP3    H162096   0.422   3.105  14.085  0.4585 -0.2469 -0.7403
13535TIP3    H262097   0.381   3.003  14.189  0.8840 -0.4202 -0.7377
13536TIP3   OH262098   6.554   3.894  14.497 -0.3627 -0.3684  0.7852
13536TIP3    H162099   6.536   3.935  14.413 -1.4814 -2.6909 -0.2097
13536TIP3    H262100   6.650   3.889  14.502 -0.2943 -0.4391 -0.4640
13537TIP3   OH262101   6.491   3.864  17.102  0.7045 -0.1418  0.0345
13537TIP3    H162102   6.564   3.811  17.134 -0.8231 -0.9271  2.4721
13537TIP3    H262103   6.425   3.801  17.075 -0.2190  0.5294  0.6948
13538TIP3   OH262104   2.774   0.737  16.194  0.1874  0.0988  0.0307
13538TIP3    H162105   2.739   0.680  16.263  0.1648  0.6416  0.4799
13538TIP3    H262106   2.813   0.810  16.242 -0.1323  0.6571 -0.5450
13539TIP3   OH262107   6.022   5.827   2.393 -0.7999 -0.5016  0.5872
13539TIP3    H162108   5.955   5.759   2.393 -2.7514  1.2596 -1.3881
13539TIP3    H262109   6.079   5.804   2.319 -0.3260 -0.9548  1.0805
13540TIP3   OH262110   2.422   3.754   0.815 -0.3962  0.1313 -0.4559
13540TIP3    H162111   2.410   3.815   0.742 -0.4020  0.9740  0.2302
13540TIP3    H262112   2.388   3.671   0.782 -0.6147  0.5500 -1.3329
13541TIP3   OH262113   1.036   6.832  11.350 -0.2596 -0.6220 -0.3945
13541TIP3    H162114   1.121   6.789  11.339 -0.5811 -1.2355 -0.5071
13541TIP3    H262115   1.015   6.821  11.443  1.1808  2.1824  0.3709
13542TIP3   OH262116   1.513   1.719  14.972  0.7048  0.1225 -0.3128
13542TIP3    H162117   1.535   1.812  14.975 -0.0885  0.2922  0.8300
13542TIP3    H262118   1.456   1.711  14.895  0.3259  0.6855 -0.0992
13543TIP3   OH262119   5.220   4.159  11.899  0.1580  0.0885 -0.4705
13543TIP3    H162120   5.220   4.082  11.955 -1.9330 -0.1472 -0.7062
13543TIP3    H262121   5.139   4.205  11.922  0.8976  1.7244 -0.9991
13544TIP3   OH262122   4.454   0.863   0.749 -0.1041 -0.0250  1.0928
13544TIP3    H162123   4.472   0.900   0.836 -1.7754  1.5800  0.8210
13544TIP3    H262124   4.384   0.800   0.763  0.2211 -0.4137  1.0107
13545TIP3   OH262125   2.976   4.922   4.646 -0.1415 -0.7138 -0.3134
13545TIP3    H162126   3.013   5.004   4.613  1.1325  0.0195  2.6590
13545TIP3    H262127   2.890   4.916   4.604  0.8778  0.5956 -2.8390
13546TIP3   OH262128   6.576   2.350   1.182  0.2145 -0.3250  0.0070
13546TIP3    H162129   6.573   2.294   1.260 -0.7423 -0.3145 -0.0077
13546TIP3    H262130   6.588   2.289   1.109  0.0270 -0.4395  0.0700
13547TIP3   OH262131   4.389   2.446   4.299 -0.4218 -0.7542 -0.0120
13547TIP3    H162132   4.309   2.397   4.282 -0.4999 -0.1087 -1.7757
13547TIP3    H262133   4.361   2.537   4.309  0.0543 -0.5466 -0.4732
13548TIP3   OH262134   3.662   3.509   5.491 -0.1681  0.4306  0.6703
13548TIP3    H162135   3.602   3.495   5.418 -2.2256  1.4873  2.0951
13548TIP3    H262136   3.648   3.600   5.517  0.3511  0.0138  2.5391
13549TIP3   OH262137   2.168   3.635  11.368 -0.5856 -0.1968 -0.2381
13549TIP3    H162138   2.184   3.724  11.399  0.7625 -0.0714 -1.2237
13549TIP3    H262139   2.247   3.612  11.320 -0.9981 -1.8662 -0.1645
13550TIP3   OH262140   2.087   2.610   1.434  0.4425  0.1324  0.3603
13550TIP3    H162141   2.034   2.549   1.384  1.9440  0.0655 -1.2336
13550TIP3    H262142   2.105   2.682   1.374  4.7062 -1.2763 -0.4398
13551TIP3   OH262143   3.903   5.290   0.837  0.0030 -0.3339 -0.2060
13551TIP3    H162144   3.983   5.342   0.833 -0.3071  0.1156 -0.5831
13551TIP3    H262145   3.887   5.263   0.746 -0.6635  0.1779 -0.2465
13552TIP3   OH262146   3.625   3.281  15.661 -0.6579 -0.2290  0.0287
13552TIP3    H162147   3.607   3.231  15.582 -0.3095 -0.6254  0.1990
13552TIP3    H262148   3.584   3.231  15.731  1.5383 -1.4786  0.5137
13553TIP3   OH262149   0.207   3.874   4.655 -0.3669  0.4952 -0.3818
13553TIP3    H162150   0.256   3.923   4.721 -0.0586 -1.3575  0.8495
13553TIP3    H262151   0.133   3.930   4.633  0.2431  1.7215  0.5668
13554TIP3   OH262152   6.217   0.523  16.596 -0.1059 -0.0603  0.2035
13554TIP3    H162153   6.166   0.525  16.515 -0.6744  0.7465  0.5753
13554TIP3    H262154   6.301   0.561  16.571 -1.2224  2.8877  0.5957
13555TIP3   OH262155   6.057   2.990  12.317 -0.2900  0.4448  0.1672
13555TIP3    H162156   6.145   3.027  12.324 -0.7434  1.3361  1.7230
13555TIP3    H262157   6.071   2.896  12.303  0.9376  0.4358  1.2863
13556TIP3   OH262158   6.123   2.782  14.927 -0.0111  0.4615  0.3211
13556TIP3    H162159   6.200   2.742  14.969  0.2396 -0.4216 -0.9170
13556TIP3    H262160   6.142   2.777  14.833 -1.1874  1.0766  0.0358
13557TIP3   OH262161   4.195   5.727   2.135  0.0181 -0.1127 -0.1955
13557TIP3    H162162   4.157   5.725   2.047  1.7702  1.0962 -1.0454
13557TIP3    H262163   4.120   5.725   2.194 -1.2076 -0.8508 -1.7180
13558TIP3   OH262164   2.482   1.116  12.523  0.6501 -0.2130  0.3902
13558TIP3    H162165   2.511   1.155  12.440 -0.1614 -3.0362 -1.3738
13558TIP3    H262166   2.561   1.076  12.559  0.9349  0.7309  0.8432
13559TIP3   OH262167   0.449   0.207  10.546  0.3320 -0.2980 -0.4064
13559TIP3    H162168   0.485   0.285  10.503  2.2232 -0.8074  0.1628
13559TIP3    H262169   0.479   0.213  10.636 -2.0996 -0.1684  0.4795
13560TIP3   OH262170   1.799   6.031  10.580  0.2907  0.6060 -0.6578
13560TIP3    H162171   1.861   5.964  10.552 -0.2237 -1.3483  2.3902
13560TIP3    H262172   1.853   6.098  10.622  0.5300  0.2838 -0.4525
13561TIP3   OH262173   0.086   4.231   3.168  0.2422 -0.0141 -0.0708
13561TIP3    H162174   0.022   4.273   3.226  0.8390  0.1894  0.4634
13561TIP3    H262175   0.034   4.179   3.108 -0.3969 -0.3277  0.7328
13562TIP3   OH262176   3.574   1.760   5.687  0.5246 -0.2609  0.3369
13562TIP3    H162177   3.665   1.745   5.712  0.8958  2.7640  1.2362
13562TIP3    H262178   3.576   1.767   5.592  1.7331  1.9832  0.4583
13563TIP3   OH262179   2.720   6.646  16.795 -0.1218 -0.0550  0.4160
13563TIP3    H162180   2.790   6.582  16.806 -0.7670 -0.9803 -0.6646
13563TIP3    H262181   2.711   6.687  16.882  0.1106 -1.6329  1.2122
13564TIP3   OH262182   5.448   6.668  11.926 -0.6445  0.0565  0.1780
13564TIP3    H162183   5.496   6.714  11.857 -0.5764  2.4195  1.6836
13564TIP3    H262184   5.356   6.679  11.902 -0.5920 -0.0074 -0.0548
13565TIP3   OH262185   3.341   4.694   6.215  0.0976 -0.4441 -0.9221
13565TIP3    H162186   3.303   4.754   6.150  1.8060  0.6692 -0.9652
13565TIP3    H262187   3.279   4.695   6.287  0.1717  1.6191 -0.8153
13566TIP3   OH262188   3.031   4.174  14.783  0.2720 -0.1725 -0.0088
13566TIP3    H162189   2.974   4.164  14.707 -0.5839  0.0050  0.5920
13566TIP3    H262190   3.083   4.094  14.785  0.8655  0.1548 -1.2188
13567TIP3   OH262191   0.305   6.336  12.266  0.1486 -0.4960 -0.1159
13567TIP3    H162192   0.272   6.346  12.354  1.4620 -0.2853  0.3823
13567TIP3    H262193   0.234   6.295  12.217 -1.1545  0.7988  0.6439
13568TIP3   OH262194   5.382   2.634   5.783  0.1476 -0.0812 -0.0398
13568TIP3    H162195   5.385   2.548   5.742  0.3518 -0.2271  0.2720
13568TIP3    H262196   5.297   2.670   5.758 -1.0834 -1.4265  1.9180
13569TIP3   OH262197   0.928   1.575  13.450 -0.7219 -0.0123 -0.4227
13569TIP3    H162198   0.869   1.565  13.376 -1.0140 -0.9639 -0.0809
13569TIP3    H262199   0.894   1.515  13.517  0.8801 -0.9566 -0.3844
13570TIP3   OH262200   1.182   0.073  12.269 -0.3245  0.7329  0.4397
13570TIP3    H162201   1.275   0.083  12.293 -0.4243  0.6046  0.8908
13570TIP3    H262202   1.159  -0.015  12.300 -0.8319  1.0947  1.1281
13571TIP3   OH262203   5.002   2.769  13.892  0.2205 -0.0192  0.2795
13571TIP3    H162204   4.979   2.748  13.982  0.0573 -0.2909  0.1744
13571TIP3    H262205   5.059   2.698  13.864 -0.4993 -0.4377 -0.1426
13572TIP3   OH262206   4.776   0.778   1.039 -0.1212  0.4909  0.3962
13572TIP3    H162207   4.784   0.684   1.023  0.3709  0.7861 -1.3813
13572TIP3    H262208   4.753   0.815   0.953  2.8069  2.2998  0.2200
13573TIP3   OH262209   4.333   5.990  14.323  0.0247  0.1286 -0.0459
13573TIP3    H162210   4.334   5.905  14.367  2.5898  0.1323  0.0176
13573TIP3    H262211   4.290   6.048  14.385  1.1847 -0.4378  1.3326
13574TIP3   OH262212   0.387   4.602   4.887 -0.5856  0.0373  0.0311
13574TIP3    H162213   0.385   4.662   4.813  0.1114  0.8620  0.6521
13574TIP3    H262214   0.420   4.655   4.960  1.3182 -1.4012  0.2989
13575TIP3   OH262215   4.555   3.173   5.807 -0.1151 -0.0209  0.2337
13575TIP3    H162216   4.590   3.176   5.896 -1.2701 -1.8124  0.8024
13575TIP3    H262217   4.595   3.248   5.763  1.4475  0.1935  1.8932
13576TIP3   OH262218   2.819   2.297  11.435 -0.0860  0.0572 -0.2137
13576TIP3    H162219   2.804   2.312  11.342  1.0311  0.5990 -0.3263
13576TIP3    H262220   2.908   2.328  11.450 -0.2641  0.0175  1.0491
13577TIP3   OH262221   0.634   0.348   2.118 -0.1008 -0.0568  0.2048
13577TIP3    H162222   0.615   0.418   2.056 -0.2922  0.2308  0.5857
13577TIP3    H262223   0.670   0.278   2.064 -1.7136 -0.4072 -0.4447
13578TIP3   OH262224   1.092   4.467  14.750  0.1490 -0.6689 -0.0927
13578TIP3    H162225   1.049   4.416  14.682 -1.3581 -1.5233  1.4205
13578TIP3    H262226   1.107   4.405  14.821  1.0358  0.3328  0.6320
13579TIP3   OH262227   2.373   0.485  10.439  0.0782 -0.0073 -0.3002
13579TIP3    H162228   2.447   0.426  10.423 -0.6930 -1.0915 -0.0530
13579TIP3    H262229   2.412   0.571  10.451  1.2588 -0.4867 -0.5782
13580TIP3   OH262230   2.658   1.570   4.809  0.0606 -0.4709 -0.2375
13580TIP3    H162231   2.737   1.586   4.758  2.1531 -0.7992  2.6335
13580TIP3    H262232   2.646   1.650   4.860  0.2091 -1.4141  1.3412
13581TIP3   OH262233   4.668   6.140  12.129 -0.3806 -0.3473  0.6645
13581TIP3    H162234   4.637   6.135  12.038  4.0070  3.4959 -1.4598
13581TIP3    H262235   4.630   6.221  12.163  1.3854  0.5452  0.5966
13582TIP3   OH262236   0.333   5.630   1.982 -0.0019  0.2795  0.0051
13582TIP3    H162237   0.423   5.630   2.012  0.1733  0.0564 -0.5056
13582TIP3    H262238   0.337   5.661   1.892 -0.5772  1.4688  0.3647
13583TIP3   OH262239   5.582   3.793   2.648 -0.6165  0.3811 -0.4905
13583TIP3    H162240   5.560   3.770   2.558  0.7583  1.0606 -1.0232
13583TIP3    H262241   5.668   3.755   2.662  0.2506  2.2950 -0.2889
13584TIP3   OH262242   3.463   4.723  14.179  0.5596 -0.4266 -0.5938
13584TIP3    H162243   3.462   4.819  14.171 -0.1166 -0.3075  0.7481
13584TIP3    H262244   3.543   4.704  14.228 -0.0686 -0.4130  0.4668
13585TIP3   OH262245   6.745   4.740  12.232  0.4682  0.1656  0.0803
13585TIP3    H162246   6.672   4.690  12.196  0.4971 -0.2593  0.5941
13585TIP3    H262247   6.707   4.789  12.305  0.9064 -0.9896  1.1383
13586TIP3   OH262248   5.086   2.491   1.541  0.3363 -0.3357  0.2902
13586TIP3    H162249   5.073   2.574   1.586 -0.3205 -0.6421  0.6789
13586TIP3    H262250   5.064   2.424   1.606 -0.9617 -0.7843 -0.5638
13587TIP3   OH262251   3.527   2.126  12.396 -0.3123  0.4208  0.4844
13587TIP3    H162252   3.453   2.149  12.340  0.5901  0.2078 -0.8364
13587TIP3    H262253   3.588   2.080  12.338  1.7848  2.3402  1.0207
13588TIP3   OH262254   5.798   2.582  14.607  0.0720  0.0704  0.4057
13588TIP3    H162255   5.789   2.497  14.564  0.1686 -0.2283  0.9580
13588TIP3    H262256   5.888   2.609  14.588  0.0631  0.0144  0.2861
13589TIP3   OH262257   5.251   1.603   6.427 -0.1411  0.3087  0.3432
13589TIP3    H162258   5.330   1.638   6.386 -0.2098  0.8566  0.6761
13589TIP3    H262259   5.255   1.509   6.410  0.5344  0.3471  0.2799
13590TIP3   OH262260   4.782   5.015   1.140 -0.3417 -0.0353  0.2567
13590TIP3    H162261   4.707   5.025   1.198 -1.9770  0.0233 -1.7419
13590TIP3    H262262   4.798   5.102   1.104  1.1194  0.0829  1.1201
13591TIP3   OH262263   5.031   1.329   2.421 -0.4517  0.5090 -0.3416
13591TIP3    H162264   5.083   1.377   2.357 -0.9720  0.4881 -0.7808
13591TIP3    H262265   4.942   1.331   2.387 -0.8334  0.9547  0.6442
13592TIP3   OH262266   1.208   5.692  11.553 -0.2588 -0.0549 -0.1629
13592TIP3    H162267   1.184   5.599  11.555  0.1061 -0.1751 -0.9488
13592TIP3    H262268   1.300   5.694  11.576  0.0280 -0.0103 -1.2489
13593TIP3   OH262269   0.558   2.162   0.380 -0.2201 -0.0757  0.5802
13593TIP3    H162270   0.488   2.191   0.321 -1.4494 -3.1097  0.3557
13593TIP3    H262271   0.541   2.208   0.462 -1.1693  0.8655 -0.1189
13594TIP3   OH262272   2.107   0.767  16.334 -0.0046 -0.8511 -0.6851
13594TIP3    H162273   2.161   0.813  16.397  0.8976 -1.2125 -1.1745
13594TIP3    H262274   2.055   0.706  16.387 -0.1673 -0.2912 -0.1863
13595TIP3   OH262275   6.009   1.955   0.742  0.0070  0.0920  0.3368
13595TIP3    H162276   6.007   2.050   0.750 -1.0889  0.0525  0.7469
13595TIP3    H262277   5.935   1.934   0.685 -0.8781 -0.6218  1.6982
13596TIP3   OH262278   1.113   1.148   0.202 -0.2413  0.4096  0.3111
13596TIP3    H162279   1.174   1.145   0.127 -0.3522  1.4508  0.1622
13596TIP3    H262280   1.166   1.180   0.275 -0.6024  1.4079  0.1602
13597TIP3   OH262281   2.875   4.054  11.605  0.1018  0.3553  0.0528
13597TIP3    H162282   2.877   4.133  11.659  0.3386  1.1293 -1.0413
13597TIP3    H262283   2.847   3.985  11.664  0.5335  1.1304  1.2003
13598TIP3   OH262284   1.257   1.897  13.883 -0.0158 -0.0493  0.5980
13598TIP3    H162285   1.308   1.865  13.808 -0.2458 -0.8921  0.7832
13598TIP3    H262286   1.293   1.983  13.903  0.0189  0.2041 -0.5141
13599TIP3   OH262287   2.854   4.070  16.404 -0.1015  0.7953 -0.2258
13599TIP3    H162288   2.945   4.041  16.406 -0.0544  0.8856 -0.7087
13599TIP3    H262289   2.826   4.054  16.313 -0.2528  1.7100 -0.3508
13600TIP3   OH262290   3.607   6.012  13.267  0.2020  0.1941  0.0470
13600TIP3    H162291   3.513   6.026  13.258 -0.0514 -1.5505 -0.3815
13600TIP3    H262292   3.621   5.924  13.232  1.7843 -0.1446  1.4488
13601TIP3   OH262293   5.631   4.285   5.140  0.3010 -0.8777 -0.1269
13601TIP3    H162294   5.570   4.214   5.120 -0.9302  0.2411 -0.5903
13601TIP3    H262295   5.614   4.350   5.072  0.2737  0.5053  1.1537
13602TIP3   OH262296   2.670   1.676  12.054  0.4474  0.1968 -0.1438
13602TIP3    H162297   2.746   1.647  12.003 -0.0967 -0.1138 -0.7869
13602TIP3    H262298   2.706   1.699  12.140  1.1463 -0.7658 -0.1635
13603TIP3   OH262299   0.175   1.404   1.713 -0.5199 -0.0650 -0.7446
13603TIP3    H162300   0.168   1.431   1.805  2.0762 -0.1106 -0.4608
13603TIP3    H262301   0.151   1.482   1.663 -0.7235  0.3515 -0.0044
13604TIP3   OH262302   5.439   5.037  14.099  0.0468  0.0621  0.0120
13604TIP3    H162303   5.441   5.026  14.004  1.7567 -0.2071  0.0451
13604TIP3    H262304   5.450   4.949  14.133 -0.1470  0.2106  0.4626
13605TIP3   OH262305   4.370   0.815  12.597 -0.0241  0.3010  0.0399
13605TIP3    H162306   4.353   0.882  12.530  1.4747 -0.1749 -0.8676
13605TIP3    H262307   4.463   0.827  12.619 -0.0210 -0.7840  0.6423
13606TIP3   OH262308   3.490   0.442  15.543  0.9223  0.3900 -0.3301
13606TIP3    H162309   3.501   0.464  15.450  1.3623  2.2616  0.1285
13606TIP3    H262310   3.574   0.464  15.583  0.1488  1.4014  0.8111
13607TIP3   OH262311   0.081   5.804  11.993 -0.2443 -0.2279 -0.1297
13607TIP3    H162312   0.030   5.830  11.917  0.0198  0.5915 -0.0318
13607TIP3    H262313   0.160   5.858  11.989 -0.9191  0.9634  1.5588
13608TIP3   OH262314   2.501   1.988   4.358  0.0673  0.5287  0.1837
13608TIP3    H162315   2.517   1.958   4.448 -0.9758  0.0713  0.2384
13608TIP3    H262316   2.544   2.073   4.353 -0.6468  0.9856  1.4204
13609TIP3   OH262317   1.842   4.260  15.322 -0.5791 -0.3274 -0.0180
13609TIP3    H162318   1.759   4.268  15.276 -0.7498  1.2064  0.5059
13609TIP3    H262319   1.820   4.270  15.415  0.2095  0.4768  0.1033
13610TIP3   OH262320   3.246   1.325   3.116  0.5410  0.5019 -0.6046
13610TIP3    H162321   3.317   1.383   3.092 -0.3589  1.6426 -0.5994
13610TIP3    H262322   3.167   1.371   3.088 -0.1661 -1.1795 -1.5682
13611TIP3   OH262323   3.761   3.270   3.606  0.8591 -0.4178 -0.1894
13611TIP3    H162324   3.770   3.364   3.617 -1.9636  0.1504 -1.9142
13611TIP3    H262325   3.819   3.248   3.533 -1.0739  0.6671 -2.1243
13612TIP3   OH262326   4.659   3.330  11.887  0.1205 -0.4838 -0.1871
13612TIP3    H162327   4.712   3.367  11.817  0.9079  1.0731  1.1728
13612TIP3    H262328   4.719   3.271  11.934  0.5074  0.7705  0.9504
13613TIP3   OH262329   3.034   1.462  16.770 -0.8935 -0.4597  0.0627
13613TIP3    H162330   3.122   1.470  16.808 -1.0184 -0.3844  0.3359
13613TIP3    H262331   3.050   1.454  16.676 -0.7394  3.7887 -0.4494
13614TIP3   OH262332   6.143   4.102   6.927  0.6325 -0.2691 -0.1703
13614TIP3    H162333   6.155   4.007   6.926  0.5593 -0.2941  0.5701
13614TIP3    H262334   6.060   4.116   6.972  1.4529  0.1976  1.2675
13615TIP3   OH262335   2.554   1.852   3.543  0.0549  0.2817 -0.3686
13615TIP3    H162336   2.466   1.863   3.579 -0.0904  0.9410 -0.9083
13615TIP3    H262337   2.611   1.897   3.606 -0.2107  1.5324 -0.9912
13616TIP3   OH262338   1.208   1.522   4.542  0.4515  0.0039 -0.3716
13616TIP3    H162339   1.113   1.515   4.532  0.3142  2.0413 -1.0841
13616TIP3    H262340   1.243   1.450   4.488 -0.6773  0.0051 -1.1502
13617TIP3   OH262341   4.661   6.540   6.202 -0.1576 -0.5006 -0.5651
13617TIP3    H162342   4.566   6.534   6.187 -0.2686  0.6538 -0.4061
13617TIP3    H262343   4.693   6.592   6.128  0.4479 -1.3424 -0.9123
13618TIP3   OH262344   1.070   3.502  12.977  0.0015 -0.1165  0.3401
13618TIP3    H162345   1.143   3.531  13.032 -0.3688 -2.2203  2.0926
13618TIP3    H262346   1.106   3.433  12.922  0.1195  1.2785 -1.4047
13619TIP3   OH262347   5.095   2.083  12.652 -0.1591  0.0624  0.3413
13619TIP3    H162348   5.059   1.995  12.651  1.3689 -0.5958 -0.0043
13619TIP3    H262349   5.082   2.114  12.742 -1.1684 -0.3042  0.3289
13620TIP3   OH262350   1.498   0.964   2.330 -0.4366 -0.1830  0.1042
13620TIP3    H162351   1.572   1.022   2.343 -0.2555 -0.4181  0.1251
13620TIP3    H262352   1.450   1.001   2.256 -0.5696  0.2412  0.4014
13621TIP3   OH262353   2.257   1.467   3.984  0.1361 -0.2295  0.4138
13621TIP3    H162354   2.347   1.438   3.999  0.3130 -1.0860 -1.9185
13621TIP3    H262355   2.263   1.563   3.980  0.9616 -0.2861  0.1600
13622TIP3   OH262356   6.166   1.334  12.787  0.4959  0.4629 -0.0596
13622TIP3    H162357   6.215   1.416  12.787  2.0949 -0.4161 -1.7401
13622TIP3    H262358   6.075   1.360  12.777  0.8617  2.0407  0.4489
13623TIP3   OH262359   6.675   5.440  14.748  0.9526  0.3311 -0.6718
13623TIP3    H162360   6.730   5.495  14.804 -0.5701  1.7352 -0.4727
13623TIP3    H262361   6.697   5.468  14.659  0.9399  0.5280 -0.6156
13624TIP3   OH262362   3.815   1.006   5.403  0.3514  0.3123  0.4201
13624TIP3    H162363   3.731   0.984   5.363  0.6260  0.7849 -0.4298
13624TIP3    H262364   3.867   0.926   5.394  0.8579  0.8074 -1.3732
13625TIP3   OH262365   1.656   1.355   2.960  0.0461 -0.2230  0.3476
13625TIP3    H162366   1.609   1.295   2.903  0.9218 -1.0049  0.4367
13625TIP3    H262367   1.711   1.299   3.015 -0.6194  0.5098  1.8396
13626TIP3   OH262368   2.778   5.097   3.451  0.0453 -0.2706 -0.7594
13626TIP3    H162369   2.730   5.150   3.387 -1.2109  0.6499  0.8665
13626TIP3    H262370   2.798   5.157   3.522  1.1150 -1.3379 -0.1166
13627TIP3   OH262371   1.918   6.168  13.671 -0.2098 -0.1106 -0.0021
13627TIP3    H162372   1.830   6.176  13.634 -1.2797  0.7306  2.5428
13627TIP3    H262373   1.922   6.234  13.740  1.7411 -1.3927  1.2229
13628TIP3   OH262374   6.491   6.172  11.469  0.2097  0.3345 -0.5666
13628TIP3    H162375   6.492   6.090  11.519  3.3371 -0.1877 -1.2454
13628TIP3    H262376   6.548   6.231  11.519  0.4010  1.0439 -1.6030
13629TIP3   OH262377   3.862   3.390  17.004 -0.6526  0.4973  0.0438
13629TIP3    H162378   3.951   3.356  17.015  0.4955  3.9056  3.5391
13629TIP3    H262379   3.845   3.383  16.910  2.6518 -1.6478 -0.5781
13630TIP3   OH262380   1.603   0.001   3.194 -0.1698  0.0145 -0.3689
13630TIP3    H162381   1.580   0.074   3.136  0.9803  0.5170 -0.2321
13630TIP3    H262382   1.522  -0.050   3.203 -0.8790  1.0344 -0.8094
13631TIP3   OH262383   5.721   4.931   4.751 -0.0353  0.3271 -0.1265
13631TIP3    H162384   5.644   4.978   4.720 -1.6878 -0.9274  1.8182
13631TIP3    H262385   5.772   4.913   4.672 -3.2298 -1.3884 -1.9923
13632TIP3   OH262386   4.576   3.287   5.164 -0.3429  0.3635 -0.4409
13632TIP3    H162387   4.496   3.264   5.118  0.8455 -2.7376 -1.2200
13632TIP3    H262388   4.558   3.269   5.256 -0.1593 -1.7429 -0.7820
13633TIP3   OH262389   3.494   2.966   3.046  0.4794 -0.2051  0.1274
13633TIP3    H162390   3.542   2.962   3.129  0.9765 -0.5802 -0.1725
13633TIP3    H262391   3.525   3.047   3.004  1.0264 -0.5591 -0.1648
13634TIP3   OH262392   2.644   3.982   5.332  0.2034 -0.2005  0.2732
13634TIP3    H162393   2.613   3.954   5.418  1.8015  0.3323  1.0651
13634TIP3    H262394   2.580   4.046   5.303 -1.3747 -1.7468  0.1874
13635TIP3   OH262395   0.194   4.072   1.640 -0.0077 -0.6771 -0.0795
13635TIP3    H162396   0.222   3.982   1.622 -0.3026 -0.6146 -0.9348
13635TIP3    H262397   0.101   4.073   1.616 -0.6752 -0.7661  2.2571
13636TIP3   OH262398   5.685   3.803   4.164  0.0118  0.3569 -0.9457
13636TIP3    H162399   5.764   3.755   4.188  0.2974  1.2942  0.0916
13636TIP3    H262400   5.621   3.780   4.232 -0.1341  0.7335 -0.9520
13637TIP3   OH262401   5.545   5.337  11.446 -0.3433 -0.4932  0.2579
13637TIP3    H162402   5.559   5.366  11.536 -0.6100  2.3360 -0.5438
13637TIP3    H262403   5.461   5.374  11.420 -0.2441 -1.1866 -1.1946
13638TIP3   OH262404   3.151   2.371  16.905  0.4670  0.5347 -0.1294
13638TIP3    H162405   3.082   2.408  16.849 -0.2895 -0.5934  0.0212
13638TIP3    H262406   3.163   2.435  16.975 -0.2251  0.8799 -0.3207
13639TIP3   OH262407   0.684   1.644   2.350 -0.2517 -0.5845 -0.2948
13639TIP3    H162408   0.680   1.552   2.377 -0.1235 -0.7912 -0.9630
13639TIP3    H262409   0.770   1.653   2.308 -0.2607 -0.1584 -0.2226
13640TIP3   OH262410   4.774   2.730  16.218 -0.6797  0.9038 -0.5276
13640TIP3    H162411   4.729   2.646  16.229  0.5187  0.0821 -1.6506
13640TIP3    H262412   4.703   2.794  16.214 -1.7537 -0.3064 -1.7899
13641TIP3   OH262413   5.518   5.867  12.418 -0.5726  0.5084 -0.2039
13641TIP3    H162414   5.475   5.801  12.471 -0.4845 -0.4721 -1.3235
13641TIP3    H262415   5.489   5.951  12.455  0.7411 -0.0888  2.4025
13642TIP3   OH262416   1.816   0.951  14.781 -0.0541 -0.4877  0.3257
13642TIP3    H162417   1.835   0.862  14.751 -1.0187 -0.6139  0.0480
13642TIP3    H262418   1.726   0.947  14.814 -0.3917  0.5580 -0.4037
13643TIP3   OH262419   0.164   3.773  13.407  0.1977 -0.3442  0.5260
13643TIP3    H162420   0.119   3.704  13.456  0.5718 -0.6423  0.4565
13643TIP3    H262421   0.257   3.754  13.419  0.3026 -0.8659 -0.9097
13644TIP3   OH262422   3.448   2.254   3.842 -0.2960 -0.0483  0.1341
13644TIP3    H162423   3.412   2.199   3.773 -0.4415 -1.3578  1.2133
13644TIP3    H262424   3.429   2.207   3.923  1.8679  0.3153  0.9137
13645TIP3   OH262425   2.403   1.754   4.273 -0.2490  0.2340  0.2100
13645TIP3    H162426   2.431   1.838   4.311  0.7010 -0.1534  0.4023
13645TIP3    H262427   2.424   1.690   4.341  0.1695 -0.3031 -0.4243
13646TIP3   OH262428   2.983   6.230  16.193 -0.1550  0.4189 -0.2982
13646TIP3    H162429   2.920   6.188  16.253  0.6793  1.4862  1.4167
13646TIP3    H262430   2.954   6.321  16.188  0.2103  0.5046 -0.9574
13647TIP3   OH262431   6.684   5.995  13.252  0.1687 -0.0736 -0.1225
13647TIP3    H162432   6.737   6.028  13.325  0.0635  0.2527 -0.1886
13647TIP3    H262433   6.704   6.054  13.179 -0.9970  0.6583  0.1103
13648TIP3   OH262434   0.969   0.737  12.767 -0.3624  0.2138  0.1670
13648TIP3    H162435   1.058   0.765  12.787 -0.0160 -0.7399  0.0131
13648TIP3    H262436   0.914   0.784  12.830  0.1208  1.6474 -0.4373
13649TIP3   OH262437   6.772   5.186  14.685 -0.5659  0.0436 -0.2566
13649TIP3    H162438   6.832   5.190  14.611  1.0847  1.7311  1.0851
13649TIP3    H262439   6.740   5.275  14.696 -1.4511 -0.3415  0.5565
13650TIP3   OH262440   6.097   1.280   6.141 -0.0735 -0.6282  0.3994
13650TIP3    H162441   6.050   1.329   6.209 -1.5550 -2.2759  0.6177
13650TIP3    H262442   6.185   1.267   6.178  0.6921  2.4648 -0.0044
13651TIP3   OH262443   4.293   0.245   5.439  0.1316  0.1518  0.0505
13651TIP3    H162444   4.284   0.287   5.354  1.6636 -0.7249 -0.5666
13651TIP3    H262445   4.280   0.317   5.502  0.0651  1.0148 -0.9181
13652TIP3   OH262446   0.338   2.579  16.573 -0.2658 -0.3879  0.0862
13652TIP3    H162447   0.284   2.657  16.561  0.9242  0.3870 -0.3539
13652TIP3    H262448   0.387   2.570  16.492  0.9808 -0.5224  0.8258
13653TIP3   OH262449   6.145   4.965  11.314  0.6421 -0.1146 -0.0948
13653TIP3    H162450   6.066   4.933  11.356  0.7736  1.1805  1.2213
13653TIP3    H262451   6.213   4.957  11.382  1.4159 -0.2375 -0.8616
13654TIP3   OH262452   0.857   1.305   2.144  0.3800  0.0258  0.2747
13654TIP3    H162453   0.863   1.238   2.076 -1.1026  1.1898 -1.0525
13654TIP3    H262454   0.873   1.257   2.226  0.7567 -1.6623 -0.7387
13655TIP3   OH262455   3.634   1.586   2.686 -0.8395  0.0505  0.5544
13655TIP3    H162456   3.708   1.646   2.687 -0.1422 -0.7002 -1.2663
13655TIP3    H262457   3.640   1.538   2.768 -0.0673  0.8753  0.9958
13656TIP3   OH262458   0.217   6.229  16.313  0.2331  0.0400  0.2202
13656TIP3    H162459   0.288   6.215  16.376  0.9046  1.5903 -0.1433
13656TIP3    H262460   0.172   6.308  16.344  0.2541  0.5348 -0.9461
13657TIP3   OH262461   2.898   0.645   4.808 -0.2519 -0.0510  0.4731
13657TIP3    H162462   2.987   0.677   4.793  0.5638 -2.5088 -0.4422
13657TIP3    H262463   2.863   0.702   4.876  2.4396  0.3017  1.6914
13658TIP3   OH262464   3.190   5.340   3.432  0.3362  0.4407  0.0426
13658TIP3    H162465   3.199   5.421   3.483 -2.2229  0.5890  0.3899
13658TIP3    H262466   3.111   5.354   3.380 -1.5872 -2.6611  1.8128
13659TIP3   OH262467   3.857   1.627  15.022  0.4941 -0.0920 -0.0838
13659TIP3    H162468   3.888   1.689  15.087  1.7456 -0.1347 -0.6275
13659TIP3    H262469   3.930   1.615  14.962 -0.7353  0.2341 -1.7410
13660TIP3   OH262470   4.419   3.782  10.780 -0.8835 -0.3927  0.0097
13660TIP3    H162471   4.443   3.860  10.831  0.5583 -0.7764 -0.0226
13660TIP3    H262472   4.351   3.812  10.721 -1.4169  0.4722  1.0223
13661TIP3   OH262473   3.767   1.002   0.034  0.5833 -0.2665  0.4643
13661TIP3    H162474   3.764   1.055   0.113  0.7914  0.7115 -0.1655
13661TIP3    H262475   3.721   1.054  -0.032 -1.0081 -1.7705  0.3181
13662TIP3   OH262476   4.919   6.316   3.842 -0.5927 -0.7869  0.1807
13662TIP3    H162477   4.853   6.260   3.883 -0.1830 -1.8035 -0.4915
13662TIP3    H262478   5.002   6.271   3.859  0.1440  1.1899  2.2462
13663TIP3   OH262479   3.437   1.315  13.745  0.5289  0.3586  0.5652
13663TIP3    H162480   3.376   1.246  13.720 -1.2327  1.4669  1.5978
13663TIP3    H262481   3.490   1.330  13.667 -1.0962 -0.0690 -0.6704
13664TIP3   OH262482   3.942   2.289  13.785  0.1620 -0.2159  0.3910
13664TIP3    H162483   3.850   2.281  13.812 -0.0225 -0.3719 -0.2669
13664TIP3    H262484   3.981   2.347  13.850 -0.3214 -0.4260  0.8752
13665TIP3   OH262485   0.867   1.762  15.598 -0.3846  0.0888  0.2806
13665TIP3    H162486   0.889   1.669  15.593  0.0475  0.2179 -0.2713
13665TIP3    H262487   0.814   1.770  15.678 -1.9672 -0.9551 -0.6075
13666TIP3   OH262488   0.246   6.701  13.657 -0.2259  0.2332  0.5750
13666TIP3    H162489   0.172   6.740  13.609 -0.8047 -2.0037 -0.4748
13666TIP3    H262490   0.293   6.776  13.692 -0.1139  2.0665 -2.9857
13667TIP3   OH262491   2.754   3.752  15.257 -0.5113 -0.0832  0.8909
13667TIP3    H162492   2.792   3.712  15.335  1.0532  0.1719  0.3074
13667TIP3    H262493   2.660   3.752  15.273 -0.3204 -1.2047  2.2114
13668TIP3   OH262494   0.221   0.574   2.088 -0.2976 -0.3066  0.3239
13668TIP3    H162495   0.312   0.601   2.076 -0.3972  0.1886  0.6550
13668TIP3    H262496   0.174   0.613   2.014 -0.0441 -1.6149 -0.5677
13669TIP3   OH262497   0.824   2.283  13.029  0.4147 -0.0815 -0.3547
13669TIP3    H162498   0.742   2.250  13.066  0.0364  0.2585 -0.8804
13669TIP3    H262499   0.889   2.269  13.098  0.0891 -1.1366 -0.2476
13670TIP3   OH262500   4.761   4.519  11.534 -0.4219 -0.0178  0.5056
13670TIP3    H162501   4.692   4.458  11.507 -0.5641 -0.1530  1.1535
13670TIP3    H262502   4.718   4.605  11.533 -0.1106  0.1495 -0.8102
13671TIP3   OH262503   0.704   5.631   3.614  0.2266 -0.0755 -0.5267
13671TIP3    H162504   0.793   5.641   3.647  1.2125 -0.7377 -2.8275
13671TIP3    H262505   0.714   5.615   3.520 -2.3693  0.7696 -1.0416
13672TIP3   OH262506   1.130   4.380   3.627 -0.6918  0.3343 -0.2603
13672TIP3    H162507   1.120   4.470   3.597 -1.4580  1.1365  2.1861
13672TIP3    H262508   1.088   4.378   3.713  2.1037 -1.5339  1.2160
13673TIP3   OH262509   4.303   5.468  16.497 -0.2175 -0.2377  0.5485
13673TIP3    H162510   4.398   5.472  16.490 -0.2429 -0.8373 -0.3904
13673TIP3    H262511   4.286   5.394  16.555 -0.1227 -1.4729 -0.9419
13674TIP3   OH262512   1.751   0.313  16.868 -0.2099 -0.1392  0.6334
13674TIP3    H162513   1.810   0.291  16.796 -1.8281  0.1742 -0.8689
13674TIP3    H262514   1.762   0.242  16.931 -0.8970 -2.0810 -1.3158
13675TIP3   OH262515   6.458   6.350   0.716 -0.0459 -0.1559 -0.3169
13675TIP3    H162516   6.509   6.270   0.706 -2.2884 -1.7727  0.3734
13675TIP3    H262517   6.418   6.343   0.802 -2.7286  0.1270 -1.4286
13676TIP3   OH262518   2.381   3.657  13.489  0.4107 -0.3482  0.3296
13676TIP3    H162519   2.427   3.641  13.572  0.1537 -0.2521  0.4919
13676TIP3    H262520   2.358   3.570  13.457  0.3367 -0.3760  0.4581
13677TIP3   OH262521   6.552   5.730   5.472  0.1463  0.7963  0.5656
13677TIP3    H162522   6.541   5.696   5.560  0.8660  0.0055  0.3672
13677TIP3    H262523   6.626   5.791   5.479 -0.9556  2.1729  0.8605
13678TIP3   OH262524   5.714   4.580  16.026 -0.4168 -0.0617  0.2031
13678TIP3    H162525   5.638   4.636  16.007 -0.3615 -0.3114 -0.8133
13678TIP3    H262526   5.687   4.493  15.999  0.1957 -0.1718 -0.0780
13679TIP3   OH262527   5.400   2.180  14.044 -0.2017  0.0916 -0.3428
13679TIP3    H162528   5.464   2.133  14.097  0.9387  2.5074  0.5492
13679TIP3    H262529   5.362   2.244  14.103 -1.2562  0.7388 -1.6622
13680TIP3   OH262530   5.426   0.059   5.188  0.4865  0.2892 -0.3149
13680TIP3    H162531   5.413   0.004   5.110  1.1687  0.3605 -0.4844
13680TIP3    H262532   5.341   0.058   5.232  0.6566 -1.4780  0.0616
13681TIP3   OH262533   2.184   4.147   0.530  0.1784 -0.2237 -0.0784
13681TIP3    H162534   2.230   4.098   0.598  0.3794  0.0444 -0.0178
13681TIP3    H262535   2.102   4.100   0.517  0.2650 -0.4369  0.1483
13682TIP3   OH262536   6.059   3.641  14.373 -0.2360 -0.5989 -0.8314
13682TIP3    H162537   6.154   3.631  14.372 -0.2109 -0.3675 -0.8768
13682TIP3    H262538   6.026   3.564  14.327 -0.0652 -0.6234 -0.9145
13683TIP3   OH262539   3.596   0.771  16.905  0.3041 -0.0062 -0.1656
13683TIP3    H162540   3.637   0.845  16.860  2.7801 -0.9450  0.4202
13683TIP3    H262541   3.549   0.812  16.978  1.3196  1.0434 -0.0629
13684TIP3   OH262542   3.702   0.580   2.457 -0.4895 -0.1820  0.0624
13684TIP3    H162543   3.797   0.569   2.448 -0.7827 -1.9451 -1.8836
13684TIP3    H262544   3.679   0.642   2.388 -0.6540  1.3585  1.4321
13685TIP3   OH262545   4.206   1.419   2.884 -0.0825  0.4696  0.0505
13685TIP3    H162546   4.247   1.467   2.956  1.6913  0.2401 -0.7601
13685TIP3    H262547   4.233   1.466   2.805  0.4604 -0.9705 -0.6619
13686TIP3   OH262548   3.406   2.789   0.706 -0.8662  0.2987 -0.0598
13686TIP3    H162549   3.357   2.842   0.643 -2.4296  0.9435  1.6140
13686TIP3    H262550   3.434   2.851   0.773 -2.1705 -0.8231  1.6102
13687TIP3   OH262551   1.707   3.287   1.385 -0.1145  0.1826  0.2442
13687TIP3    H162552   1.803   3.295   1.388 -0.0374  0.4495 -1.7395
13687TIP3    H262553   1.677   3.339   1.460  1.2652  0.5796  0.5555
13688TIP3   OH262554   2.694   3.483   1.482  0.3024 -0.0502 -0.0589
13688TIP3    H162555   2.720   3.440   1.401 -2.6517  2.0105 -2.2889
13688TIP3    H262556   2.613   3.440   1.507 -0.5157  1.4269 -0.0511
13689TIP3   OH262557   0.456   6.642   5.364 -0.0413  1.2847 -0.0845
13689TIP3    H162558   0.523   6.710   5.355  0.9988  0.3206  0.1540
13689TIP3    H262559   0.493   6.581   5.428  1.6428 -2.5149 -4.1872
13690TIP3   OH262560   0.398   3.431  11.583  0.0848  0.3988  0.2415
13690TIP3    H162561   0.426   3.352  11.537  0.0500 -0.6709  2.0011
13690TIP3    H262562   0.444   3.502  11.538 -1.0176 -0.3992 -2.3315
13691TIP3   OH262563   0.323   4.575  14.642 -0.1429 -0.0989 -0.2244
13691TIP3    H162564   0.360   4.521  14.713 -1.6668 -2.6650 -1.2210
13691TIP3    H262565   0.373   4.656  14.644  2.1613 -1.4575  1.5743
13692TIP3   OH262566   1.045   1.516  14.405  1.2294  0.0587  0.4067
13692TIP3    H162567   1.103   1.547  14.475 -2.4026  4.1037  2.0755
13692TIP3    H262568   1.047   1.586  14.340 -1.1197 -0.0015  0.1879
13693TIP3   OH262569   4.391   1.665   1.197  0.0767 -0.0160  0.3039
13693TIP3    H162570   4.486   1.675   1.207  0.0170 -0.6409  1.9273
13693TIP3    H262571   4.364   1.621   1.278 -1.5166 -0.3943 -0.4024
13694TIP3   OH262572   6.761   3.438   1.865  0.1884  0.4148 -0.1077
13694TIP3    H162573   6.716   3.389   1.796 -1.2021  1.4811 -0.0141
13694TIP3    H262574   6.821   3.375   1.904 -2.7540 -1.8535  1.1968
13695TIP3   OH262575   6.594   3.629   4.374 -0.2457 -0.0987  0.6281
13695TIP3    H162576   6.598   3.710   4.424  1.2560  1.7340 -2.2167
13695TIP3    H262577   6.523   3.644   4.311  0.4009 -0.7710 -0.2706
13696TIP3   OH262578   3.861   6.494  13.645  0.0437 -0.1640 -0.1663
13696TIP3    H162579   3.846   6.491  13.551 -2.9140  2.2402  0.0891
13696TIP3    H262580   3.900   6.580  13.661 -1.7318  0.5024  0.9515
13697TIP3   OH262581   2.907   2.544   2.461  0.1112  0.0023 -0.1726
13697TIP3    H162582   2.960   2.596   2.400 -1.1077  1.9858  0.3568
13697TIP3    H262583   2.913   2.591   2.544 -1.6570 -0.2649  0.1462
13698TIP3   OH262584   4.989   0.912  14.468  0.0693 -0.1781 -0.1759
13698TIP3    H162585   5.008   0.891  14.560 -0.5093  1.2477  0.2911
13698TIP3    H262586   4.893   0.906  14.462  0.1183 -0.4233 -0.7342
13699TIP3   OH262587   2.286   1.733  12.466  0.5308  0.0039 -0.1539
13699TIP3    H162588   2.347   1.735  12.392 -0.1941  0.3157 -0.7543
13699TIP3    H262589   2.308   1.811  12.517  0.6901  0.0729 -0.3243
13700TIP3   OH262590   6.534   0.375  11.367 -0.9432  0.6835  0.4189
13700TIP3    H162591   6.461   0.320  11.397 -0.6211 -0.5930 -1.0332
13700TIP3    H262592   6.582   0.395  11.447 -1.7642 -0.1356  1.1474
13701TIP3   OH262593   6.127   1.529  10.702 -0.7982 -0.1978 -0.0606
13701TIP3    H162594   6.050   1.540  10.759  1.1663  1.1858  2.5478
13701TIP3    H262595   6.146   1.616  10.669  0.7371 -0.1162  0.9269
13702TIP3   OH262596   6.373   0.033   1.711  0.3942 -0.4839 -1.0568
13702TIP3    H162597   6.380  -0.060   1.732  0.9864 -0.4677 -1.1639
13702TIP3    H262598   6.368   0.036   1.615 -0.7429 -0.4642 -1.0121
13703TIP3   OH262599   0.608   4.664   5.160  0.4460 -0.6584 -0.3278
13703TIP3    H162600   0.514   4.650   5.173 -0.5515  3.1915 -1.8514
13703TIP3    H262601   0.630   4.734   5.221  1.2618  1.2254 -2.6338
13704TIP3   OH262602   0.065   6.738   5.816  0.0896  0.5203  0.5959
13704TIP3    H162603   0.077   6.739   5.911  3.3296  0.8406  0.2819
13704TIP3    H262604   0.092   6.824   5.787 -0.5837  0.3337 -0.6908
13705TIP3   OH262605   6.471   2.753   1.038  0.1322 -0.4423  0.7370
13705TIP3    H162606   6.531   2.711   1.099  0.8745  0.2502  0.5206
13705TIP3    H262607   6.384   2.737   1.073  0.5133 -0.5658  1.6485
13706TIP3   OH262608   0.516   0.291   0.634 -1.1691 -0.0002 -0.0939
13706TIP3    H162609   0.450   0.221   0.625  0.0859 -1.2493  0.0705
13706TIP3    H262610   0.493   0.354   0.565 -2.5671 -0.3563  0.0068
13707TIP3   OH262611   0.800   5.416  14.556 -0.4642 -0.0122  0.0825
13707TIP3    H162612   0.894   5.434  14.558 -0.1425 -1.4310 -0.6716
13707TIP3    H262613   0.766   5.473  14.486  0.0024 -0.1672 -0.2753
13708TIP3   OH262614   3.522   5.435  12.880  0.7768  0.3391  0.0403
13708TIP3    H162615   3.471   5.356  12.900  0.6401  0.4467  0.1238
13708TIP3    H262616   3.613   5.409  12.892  0.7545  0.0908 -0.2939
13709TIP3   OH262617   2.939   5.278   2.429 -0.6188 -0.3776 -0.4475
13709TIP3    H162618   2.955   5.299   2.521 -1.0151  0.4307 -0.5505
13709TIP3    H262619   2.982   5.348   2.380  2.4105 -2.4682 -1.0707
13710TIP3   OH262620   1.821   2.560   6.221  0.1429  0.0571 -0.8389
13710TIP3    H162621   1.730   2.532   6.208  0.6576 -1.9425 -0.5637
13710TIP3    H262622   1.833   2.561   6.316 -0.1989  2.5977 -0.7736
13711TIP3   OH262623   4.779   2.075   1.697 -0.3607  0.0770 -0.3715
13711TIP3    H162624   4.850   2.061   1.634  0.0778  0.4558  0.0260
13711TIP3    H262625   4.702   2.091   1.643 -0.3448 -1.2167 -0.8215
13712TIP3   OH262626   0.151   3.992  11.124 -0.5987  0.1739 -0.6048
13712TIP3    H162627   0.190   3.928  11.184 -0.6248  1.4970  0.9064
13712TIP3    H262628   0.062   4.003  11.155  0.2872  3.2853  1.3436
13713TIP3   OH262629   3.584   3.788  15.543 -0.9176 -0.3261 -0.2455
13713TIP3    H162630   3.563   3.881  15.535 -1.1002 -0.2846  0.5907
13713TIP3    H262631   3.659   3.785  15.602  1.1149 -0.5297 -2.6563
13714TIP3   OH262632   6.311   3.561  16.776  0.1769  0.3871 -0.5064
13714TIP3    H162633   6.228   3.593  16.812 -0.4955 -2.5325  0.8544
13714TIP3    H262634   6.378   3.597  16.834 -0.3638  0.7201 -0.0762
13715TIP3   OH262635   4.246   6.110   2.989  0.5754  0.1968 -0.0004
13715TIP3    H162636   4.211   6.161   3.062  1.0950 -2.0236  1.9000
13715TIP3    H262637   4.172   6.056   2.960  0.8018 -0.0856 -0.0511
13716TIP3   OH262638   2.910   3.981  13.056  0.3385 -0.1952  0.3401
13716TIP3    H162639   2.839   3.923  13.026 -0.0391 -0.3682  1.5147
13716TIP3    H262640   2.898   4.061  13.006 -0.1013 -0.5707 -0.1690
13717TIP3   OH262641   0.767   0.182  14.347  0.3707 -0.2226 -0.0899
13717TIP3    H162642   0.684   0.150  14.310  0.8735 -0.3400 -1.1468
13717TIP3    H262643   0.743   0.261  14.395 -0.1206  0.7365 -1.8342
13718TIP3   OH262644   5.190   0.278   0.465 -0.0646 -0.4258  0.0561
13718TIP3    H162645   5.120   0.279   0.530 -1.4248  0.3282 -1.3264
13718TIP3    H262646   5.237   0.197   0.480  0.3054  0.1860  2.5791
13719TIP3   OH262647   1.830   0.605   2.433 -0.6465  0.2204  0.2337
13719TIP3    H162648   1.835   0.686   2.383  1.6601  0.1261  0.2173
13719TIP3    H262649   1.856   0.536   2.372 -1.8612 -0.4693  0.4507
13720TIP3   OH262650   1.830   5.339  13.765  0.0382  0.8028  0.2759
13720TIP3    H162651   1.867   5.276  13.703  1.0422 -1.4391  2.9671
13720TIP3    H262652   1.906   5.374  13.812 -0.8239  0.4851  1.9677
13721TIP3   OH262653   4.110   4.111   0.360  0.3820 -0.5007  0.1579
13721TIP3    H162654   4.198   4.088   0.389  0.8382 -1.1009 -1.5707
13721TIP3    H262655   4.107   4.085   0.268 -1.8913 -1.2879  0.3803
13722TIP3   OH262656   2.487   4.559  10.842 -0.5801  0.1486  0.1172
13722TIP3    H162657   2.425   4.492  10.811 -0.7914  0.2214  0.3850
13722TIP3    H262658   2.530   4.589  10.762 -0.7487 -0.0437 -0.0489
13723TIP3   OH262659   4.860   1.776  11.919  0.0886  0.1131  0.8566
13723TIP3    H162660   4.871   1.685  11.892  1.6645  0.6712 -0.5119
13723TIP3    H262661   4.940   1.797  11.967  1.0217  1.5430 -1.2041
13724TIP3   OH262662   2.707   1.402  12.828  0.2109  0.3658  0.0404
13724TIP3    H162663   2.632   1.342  12.826  0.4787 -0.0965  1.8624
13724TIP3    H262664   2.679   1.478  12.777 -1.1466 -0.1890 -0.0794
13725TIP3   OH262665   6.626   2.829  12.287  0.0723 -0.1576 -0.4952
13725TIP3    H162666   6.573   2.783  12.352 -1.3557  0.9965 -0.7949
13725TIP3    H262667   6.708   2.849  12.332 -1.1409  1.2409  1.2222
13726TIP3   OH262668   6.595   1.754  11.533  0.2635  0.2427 -0.1252
13726TIP3    H162669   6.641   1.740  11.615  0.1611 -0.4782 -0.1831
13726TIP3    H262670   6.664   1.763  11.467  0.3401  0.4943 -0.0108
13727TIP3   OH262671   2.623   4.460  14.763 -0.0148  0.1232  0.6194
13727TIP3    H162672   2.563   4.534  14.774  2.1559  1.7553  2.5851
13727TIP3    H262673   2.623   4.416  14.848  0.3001 -0.8656  0.1248
13728TIP3   OH262674   1.431   1.549   0.997  0.0917  0.5134 -0.4585
13728TIP3    H162675   1.478   1.551   1.080  0.4630 -0.4146 -0.6299
13728TIP3    H262676   1.393   1.461   0.993 -0.1393  0.6366 -1.1508
13729TIP3   OH262677   5.507   6.451   5.497  0.0528  0.0126 -0.1223
13729TIP3    H162678   5.531   6.448   5.589  1.0066  1.1946 -0.3196
13729TIP3    H262679   5.567   6.389   5.454 -0.1592 -0.2739 -0.0112
13730TIP3   OH262680   4.469   1.667   4.611  0.0118 -0.2149 -0.1535
13730TIP3    H162681   4.413   1.709   4.546  0.8350 -0.5170 -1.0875
13730TIP3    H262682   4.522   1.738   4.647  0.4586 -0.2398 -0.7562
13731TIP3   OH262683   4.438   6.281   1.867  0.1186  0.9435  0.2358
13731TIP3    H162684   4.428   6.376   1.869  2.4851  1.2597  2.2957
13731TIP3    H262685   4.419   6.254   1.957 -2.9239 -0.9498 -0.8255
13732TIP3   OH262686   2.044   2.992  16.290  0.1631 -0.1859 -0.2642
13732TIP3    H162687   1.998   3.074  16.272 -0.2470 -0.3124  0.1715
13732TIP3    H262688   2.003   2.928  16.231 -0.2432 -0.3024  0.1353
13733TIP3   OH262689   1.845   1.183   2.069 -0.2126  0.3404 -0.1089
13733TIP3    H162690   1.800   1.171   1.985 -0.5289  2.2746 -0.2634
13733TIP3    H262691   1.915   1.118   2.068  0.3070  0.8473 -2.2437
13734TIP3   OH262692   2.658   4.798   1.003 -0.2279 -0.4833 -0.6329
13734TIP3    H162693   2.633   4.707   1.019 -1.9129  0.1399  0.5034
13734TIP3    H262694   2.750   4.802   1.031 -0.9239 -1.2124  2.0679
13735TIP3   OH262695   6.540   3.586   0.826 -0.0141  0.3043  0.1795
13735TIP3    H162696   6.596   3.595   0.904  0.3385  0.3451 -0.0737
13735TIP3    H262697   6.568   3.504   0.786  1.2763  1.2886 -1.0393
13736TIP3   OH262698   6.152   3.133   5.148 -0.6565 -0.1411 -0.0541
13736TIP3    H162699   6.149   3.102   5.058 -0.5814  0.1125 -0.1421
13736TIP3    H262700   6.061   3.151   5.171 -0.7038 -0.4501  0.0054
13737TIP3   OH262701   1.883   2.386   0.469  0.2159  0.5345 -0.4305
13737TIP3    H162702   1.926   2.464   0.504 -1.1637 -0.5349  4.4536
13737TIP3    H262703   1.791   2.411   0.459 -0.1262 -0.2282  0.5881
13738TIP3   OH262704   2.335   4.176  17.097  0.0795  0.1057  0.4562
13738TIP3    H162705   2.325   4.116  17.023 -0.6146 -0.7035  1.1954
13738TIP3    H262706   2.390   4.247  17.062  0.9647 -0.9743 -0.4164
13739TIP3   OH262707   3.394   3.549  12.574 -0.5617  0.3315 -0.0043
13739TIP3    H162708   3.328   3.615  12.594 -0.7028  0.4821 -0.9012
13739TIP3    H262709   3.421   3.569  12.484 -0.8255 -1.0114 -0.4090
13740TIP3   OH262710   1.950   1.290   0.733 -0.6285 -0.4515  0.0114
13740TIP3    H162711   1.990   1.281   0.819 -1.9072 -0.4984  0.6267
13740TIP3    H262712   1.894   1.367   0.741  0.0863  0.2250 -1.1348
13741TIP3   OH262713   6.303   4.827  13.835 -0.0845 -0.1442 -0.3163
13741TIP3    H162714   6.378   4.789  13.880 -1.0480  0.0097  1.5184
13741TIP3    H262715   6.309   4.793  13.746  1.6307 -0.8661  0.0308
13742TIP3   OH262716   5.240   4.477   0.480  0.2277  1.1535 -0.3200
13742TIP3    H162717   5.197   4.392   0.468  1.1722  0.7878 -1.3345
13742TIP3    H262718   5.320   4.457   0.528  0.7672  1.3536 -1.1083
13743TIP3   OH262719   2.204   1.768  14.987  0.0104  0.0760 -0.6190
13743TIP3    H162720   2.196   1.685  14.940 -1.9700 -0.1763  0.0729
13743TIP3    H262721   2.115   1.804  14.987  0.0945  0.5164  2.0562
13744TIP3   OH262722   3.519   2.007   5.018 -0.6512  0.5298 -0.1004
13744TIP3    H162723   3.487   1.920   4.994  0.9872 -0.1654  0.1403
13744TIP3    H262724   3.454   2.067   4.981 -1.1744 -0.7306 -1.3184
13745TIP3   OH262725   4.157   2.041  14.283  0.3174 -1.0417 -0.2598
13745TIP3    H162726   4.155   1.991  14.202 -1.2995 -1.8148  0.2205
13745TIP3    H262727   4.153   1.976  14.353  0.1006 -0.3280  0.4137
13746TIP3   OH262728   2.118   6.052  16.393  0.1747 -0.4486 -0.8229
13746TIP3    H162729   2.120   6.147  16.405 -1.4501 -0.1621 -2.3510
13746TIP3    H262730   2.048   6.022  16.451 -1.0260 -0.3487 -2.1794
13747TIP3   OH262731   4.505   3.356   3.021  0.2781 -0.0114  0.1682
13747TIP3    H162732   4.555   3.379   2.943 -0.9456 -0.2942 -0.7301
13747TIP3    H262733   4.480   3.264   3.008  1.9961 -0.8302  1.9960
13748TIP3   OH262734   1.896   3.210  16.230  0.3371  0.3387  0.1314
13748TIP3    H162735   1.856   3.277  16.287 -1.5808 -0.2250 -0.4858
13748TIP3    H262736   1.877   3.239  16.141 -0.0032 -0.7171 -0.1566
13749TIP3   OH262737   3.683   6.200   1.430 -0.0021  0.1049 -0.8218
13749TIP3    H162738   3.597   6.198   1.472  0.7124 -1.5101  0.6780
13749TIP3    H262739   3.666   6.236   1.343 -1.6581  3.0094  0.5322
13750TIP3   OH262740   0.334   4.642   4.120 -0.6019 -0.1150  0.1109
13750TIP3    H162741   0.331   4.604   4.033  1.0184  1.1244 -0.5530
13750TIP3    H262742   0.261   4.704   4.122 -0.0083  0.6594 -0.8199
13751TIP3   OH262743   4.932   3.590   1.654  0.3169  0.3129  0.5177
13751TIP3    H162744   4.923   3.603   1.748 -0.0166  1.4599  0.3544
13751TIP3    H262745   4.987   3.663   1.625  0.8383 -0.3169 -0.1046
13752TIP3   OH262746   3.098   0.994   3.182  0.2986  0.6284  0.2629
13752TIP3    H162747   3.028   1.015   3.120  0.2579  0.9519  0.4159
13752TIP3    H262748   3.052   0.978   3.265  0.4802  2.1474  0.6998
13753TIP3   OH262749   4.523   5.712   5.308  0.4558  0.2867 -0.0508
13753TIP3    H162750   4.529   5.707   5.403 -1.2597 -1.1780  0.0335
13753TIP3    H262751   4.605   5.753   5.281  1.3665 -0.0702  1.9929
13754TIP3   OH262752   5.227   6.217  13.609  0.4185  0.3100 -0.2501
13754TIP3    H162753   5.321   6.237  13.613  0.4041  0.2245  1.1496
13754TIP3    H262754   5.185   6.295  13.646 -0.0554  0.2744 -0.7093
13755TIP3   OH262755   2.231   2.177  14.817  0.2416 -0.1366 -0.3617
13755TIP3    H162756   2.228   2.090  14.776  2.5878 -0.9829  1.1018
13755TIP3    H262757   2.144   2.188  14.855  1.0218 -3.8086  3.0994
13756TIP3   OH262758   0.536   0.141   2.754  0.2839  0.3560 -0.0543
13756TIP3    H162759   0.582   0.070   2.709 -0.5105 -1.8816  2.3955
13756TIP3    H262760   0.592   0.162   2.829  0.0144  1.6386 -0.1894
13757TIP3   OH262761   6.012   5.185  14.247  0.3000  0.4232 -0.3986
13757TIP3    H162762   5.996   5.249  14.317 -0.7458 -0.3924  0.1312
13757TIP3    H262763   6.101   5.204  14.217  1.3961 -0.1480  2.1952
13758TIP3   OH262764   3.439   2.083  11.341  0.5900 -0.1740 -0.0985
13758TIP3    H162765   3.497   2.158  11.325  0.9724 -0.7173 -1.3857
13758TIP3    H262766   3.421   2.086  11.435  0.3985  1.6705 -0.1588
13759TIP3   OH262767   1.280   2.431  10.345  0.1394 -0.0917 -0.0078
13759TIP3    H162768   1.227   2.351  10.347  0.9629 -0.6400  0.8651
13759TIP3    H262769   1.360   2.407  10.391  0.0071  1.5214  1.1440
13760TIP3   OH262770   5.761   6.707   4.615 -0.3341  0.3734  0.2803
13760TIP3    H162771   5.791   6.792   4.647  2.8400 -0.8129  0.8581
13760TIP3    H262772   5.817   6.689   4.539 -0.3423 -1.5176  0.6729
13761TIP3   OH262773   1.667   1.414   4.072  0.6411 -0.4844 -0.3564
13761TIP3    H162774   1.650   1.361   3.994 -0.8656  0.1839 -0.5063
13761TIP3    H262775   1.745   1.374   4.111  0.4616 -1.8349 -1.3161
13762TIP3   OH262776   2.141   1.412   5.058 -0.1743  0.1790  0.5167
13762TIP3    H162777   2.114   1.473   5.127  0.7558 -0.4566  1.4794
13762TIP3    H262778   2.195   1.348   5.104  1.6935  0.5538 -1.0461
13763TIP3   OH262779   3.346   6.713   5.643 -0.1287  0.0176  0.2674
13763TIP3    H162780   3.419   6.696   5.702 -1.2657 -1.4824  1.3274
13763TIP3    H262781   3.268   6.687   5.693 -1.1675 -0.9391 -1.7243
13764TIP3   OH262782   6.472   0.019  15.631  0.0654  0.4179  0.7540
13764TIP3    H162783   6.566   0.035  15.630  0.2731 -0.6394  1.7590
13764TIP3    H262784   6.462  -0.070  15.598 -0.8735  1.5377 -2.3052
13765TIP3   OH262785   5.839   1.484   3.399  0.3916  0.5493 -0.1740
13765TIP3    H162786   5.853   1.576   3.375  1.2288  0.4057 -0.2672
13765TIP3    H262787   5.923   1.442   3.382 -0.2601 -0.4464 -1.0539
13766TIP3   OH262788   5.900   3.479  13.492  0.2512  0.0062 -0.0791
13766TIP3    H162789   5.824   3.532  13.468  1.9434  3.8641  2.1230
13766TIP3    H262790   5.948   3.466  13.410 -0.2009  2.1087 -0.7385
13767TIP3   OH262791   4.703   5.438   5.622  0.0276 -0.5174 -0.5269
13767TIP3    H162792   4.630   5.469   5.676 -0.1276  0.6301 -1.3543
13767TIP3    H262793   4.661   5.390   5.551  0.2582 -2.6185  0.6494
13768TIP3   OH262794   4.562   1.955   1.874  0.5100 -0.0748  0.0485
13768TIP3    H162795   4.510   2.033   1.894 -0.0166 -0.2524 -0.5856
13768TIP3    H262796   4.651   1.977   1.903 -0.2806 -0.6085  3.3509
13769TIP3   OH262797   3.818   3.100   1.008  0.9220  0.3450 -0.3813
13769TIP3    H162798   3.909   3.112   1.035  0.9987  1.0440 -0.9391
13769TIP3    H262799   3.786   3.188   0.992 -0.1052  0.1669  0.5811
13770TIP3   OH262800   2.288   3.778  13.944  0.3002  0.1489  0.3235
13770TIP3    H162801   2.321   3.868  13.953 -0.0766  0.5356 -1.5796
13770TIP3    H262802   2.322   3.732  14.021  3.7168  0.9729 -0.5013
13771TIP3   OH262803   1.863   3.987  12.637 -0.2069  0.6416 -0.2716
13771TIP3    H162804   1.787   4.012  12.690 -1.3546 -0.9105 -1.0713
13771TIP3    H262805   1.889   4.067  12.592 -3.1716  0.7566 -2.0972
13772TIP3   OH262806   0.614   5.858   1.180 -0.7015 -0.3177 -0.1998
13772TIP3    H162807   0.606   5.767   1.210 -1.6331 -0.6538 -1.3859
13772TIP3    H262808   0.641   5.850   1.089 -0.8243  0.6002 -0.3210
13773TIP3   OH262809   5.111   2.162  16.448 -1.0467  0.3724  0.5133
13773TIP3    H162810   5.028   2.161  16.496 -1.3375 -0.7053  0.0105
13773TIP3    H262811   5.095   2.223  16.375 -1.8330 -0.7469 -0.2898
13774TIP3   OH262812   6.701   0.016  16.917 -0.5991 -0.0157 -0.1461
13774TIP3    H162813   6.609   0.043  16.920 -0.3430  1.1310 -1.5534
13774TIP3    H262814   6.750   0.096  16.933  0.1636 -0.3143 -0.9536
13775TIP3   OH262815   2.902   5.421   1.914 -0.6791  0.0644 -0.5082
13775TIP3    H162816   2.807   5.418   1.922 -0.7805  1.4924 -0.9060
13775TIP3    H262817   2.933   5.345   1.964 -1.9916 -0.0595  0.1570
13776TIP3   OH262818   3.791   0.642   0.660  0.2300 -0.5261  0.3239
13776TIP3    H162819   3.746   0.694   0.727 -0.1362 -0.4992  0.0563
13776TIP3    H262820   3.808   0.558   0.704  1.5946  0.0995  1.0414
13777TIP3   OH262821   0.072   1.275  16.066 -0.5430 -0.3381  0.2090
13777TIP3    H162822   0.143   1.212  16.052  0.3046  0.6406 -0.0045
13777TIP3    H262823  -0.005   1.220  16.084 -0.2904 -1.5029 -1.9709
13778TIP3   OH262824   5.115   5.033  13.380 -0.2167 -0.4597  0.0685
13778TIP3    H162825   5.054   4.982  13.434  1.4258 -0.2104  2.3019
13778TIP3    H262826   5.098   5.124  13.404  0.2977 -0.3137 -0.1131
13779TIP3   OH262827   4.829   2.989   0.704 -0.6702  0.3675 -0.5394
13779TIP3    H162828   4.802   2.978   0.795  0.3103  0.8205 -0.1844
13779TIP3    H262829   4.924   2.975   0.705 -0.8905 -1.8207 -1.8440
13780TIP3   OH262830   3.391   6.358   2.494 -0.2434 -0.1873  0.2411
13780TIP3    H162831   3.361   6.394   2.577  0.4477  0.1923  0.3382
13780TIP3    H262832   3.477   6.398   2.480 -0.6009  0.2032 -0.9512
13781TIP3   OH262833   2.281   0.461   3.822 -0.3641  0.5329 -0.0346
13781TIP3    H162834   2.211   0.526   3.816 -0.7500  0.0530 -0.8870
13781TIP3    H262835   2.238   0.378   3.803  0.3519  0.1766 -0.1365
13782TIP3   OH262836   3.797   0.173   3.284 -0.3136 -0.3667  0.4747
13782TIP3    H162837   3.850   0.186   3.206 -0.6833 -0.9364  0.1257
13782TIP3    H262838   3.827   0.090   3.321  1.6487  1.0866  2.3899
13783TIP3   OH262839   2.548   0.286   0.586 -0.4943 -0.4856  0.1701
13783TIP3    H162840   2.494   0.350   0.539 -1.3160 -1.5500 -0.3661
13783TIP3    H262841   2.524   0.201   0.549  2.2568 -0.9590 -0.8072
13784TIP3   OH262842   4.487   2.836   1.302  0.7323 -0.7168  0.2599
13784TIP3    H162843   4.435   2.772   1.350 -1.2277  1.3446  1.0727
13784TIP3    H262844   4.491   2.912   1.360 -0.0614  1.1718 -1.9848
13785TIP3   OH262845   1.966   6.506  11.401 -0.3735 -0.4257  0.4864
13785TIP3    H162846   1.972   6.542  11.490 -0.0375 -1.7554  1.0278
13785TIP3    H262847   2.050   6.528  11.361 -0.2328 -0.4544  0.7574
13786TIP3   OH262848   5.131   3.451  11.450  0.1690  0.1028 -0.0671
13786TIP3    H162849   5.148   3.512  11.379  1.7491 -1.4126 -1.0702
13786TIP3    H262850   5.036   3.457  11.465  0.1705  2.2052 -0.6096
13787TIP3   OH262851   2.387   5.613  12.774  0.9725 -0.0191 -0.7976
13787TIP3    H162852   2.355   5.639  12.687  0.8678 -1.8171 -1.3433
13787TIP3    H262853   2.482   5.609  12.765  0.9183 -1.0337 -1.1191
13788TIP3   OH262854   1.592   2.360   4.276  0.1608 -0.1267 -0.1527
13788TIP3    H162855   1.547   2.411   4.209 -1.4022 -0.6803  0.4290
13788TIP3    H262856   1.525   2.300   4.310  0.5330  0.9561  2.7765
13789TIP3   OH262857   3.322   3.586   2.885 -0.1602 -0.2210 -0.9040
13789TIP3    H162858   3.325   3.566   2.791  0.5565  0.7628 -1.1032
13789TIP3    H262859   3.246   3.538   2.917  0.3517 -1.6488 -1.7304
13790TIP3   OH262860   0.285   3.621   4.595  0.1347  0.4038  0.1044
13790TIP3    H162861   0.201   3.577   4.578  0.0932  0.8213 -0.8712
13790TIP3    H262862   0.260   3.711   4.617  0.3157  0.4867 -0.0296
13791TIP3   OH262863   0.702   1.581  15.445 -0.2864  0.4724 -0.4539
13791TIP3    H162864   0.674   1.653  15.501 -0.8421 -0.0350 -0.0656
13791TIP3    H262865   0.625   1.562  15.390 -0.0921  0.2792 -0.6628
13792TIP3   OH262866   2.197   1.760  13.241  0.3189 -0.7318 -0.0967
13792TIP3    H162867   2.223   1.829  13.303 -0.1587 -1.3724  0.8303
13792TIP3    H262868   2.160   1.691  13.296  1.9701 -2.3136 -0.8669
13793TIP3   OH262869   1.291   6.246  14.323  0.2374  0.3337  0.2891
13793TIP3    H162870   1.272   6.212  14.411 -1.1783  2.7580  0.9957
13793TIP3    H262871   1.211   6.228  14.274  0.5782  0.0768 -0.1787
13794TIP3   OH262872   3.146   2.973   4.845  0.6120 -0.4970  0.5776
13794TIP3    H162873   3.068   2.977   4.788  0.4083  0.4933  0.9116
13794TIP3    H262874   3.159   2.879   4.860  0.2128 -0.7438 -0.4751
13795TIP3   OH262875   4.522   6.666  15.288  0.0189  0.3078 -0.0629
13795TIP3    H162876   4.534   6.738  15.350 -0.3617  0.7995 -0.5507
13795TIP3    H262877   4.535   6.587  15.341  0.2869  0.7238  0.5117
13796TIP3   OH262878   3.998   6.829  14.567  0.1699 -0.3855  0.4944
13796TIP3    H162879   4.056   6.799  14.497 -0.0062  0.9517 -0.2676
13796TIP3    H262880   3.947   6.752  14.591  0.0986 -0.8463 -0.9939
13797TIP3   OH262881   4.972   0.438  13.078 -0.1637 -0.5506  0.0089
13797TIP3    H162882   4.923   0.373  13.128  0.7491 -2.5049 -1.4493
13797TIP3    H262883   5.058   0.397  13.064  0.5038  1.0432 -0.8667
13798TIP3   OH262884   2.213   1.793   1.979  0.3413  0.5945 -0.0226
13798TIP3    H162885   2.285   1.804   1.918  0.7464 -0.6172  0.2090
13798TIP3    H262886   2.198   1.698   1.982  0.8750  0.5224  2.3598
13799TIP3   OH262887   3.981   6.852  15.217 -0.0459  0.0309  0.5046
13799TIP3    H162888   3.917   6.895  15.160  0.4537 -0.0648 -0.1401
13799TIP3    H262889   3.974   6.898  15.301 -0.9190  0.0487  0.4216
13800TIP3   OH262890   1.719   5.471  15.539  0.1509  0.2242 -0.4066
13800TIP3    H162891   1.652   5.424  15.489 -0.5391 -0.1518  0.8483
13800TIP3    H262892   1.801   5.450  15.494 -0.5550  0.8258 -2.0748
13801TIP3   OH262893   0.828   5.908  13.610  0.2636  0.2637 -0.0225
13801TIP3    H162894   0.868   5.940  13.529 -0.2262  1.9232  0.3483
13801TIP3    H262895   0.839   5.981  13.672 -0.4268 -0.5126  1.0431
13802TIP3   OH262896   0.898   3.319  15.733  0.0090  0.2406  0.3218
13802TIP3    H162897   0.959   3.393  15.738  0.0307  0.2219  0.3412
13802TIP3    H262898   0.814   3.355  15.759  0.1344  0.1310  0.9068
13803TIP3   OH262899   3.848   6.787   3.943  0.1530 -0.0886  0.3529
13803TIP3    H162900   3.862   6.709   3.996 -2.3807 -0.2496  0.8814
13803TIP3    H262901   3.888   6.858   3.993 -0.6357 -0.5196  1.6172
13804TIP3   OH262902   3.718   6.336   2.082  1.2719  0.2844  0.2917
13804TIP3    H162903   3.765   6.376   2.155  1.3924  0.5639  0.0663
13804TIP3    H262904   3.755   6.248   2.075  1.4718  0.3594  0.3800
13805TIP3   OH262905   6.178   3.473  16.016  0.2128  0.0890 -0.4582
13805TIP3    H162906   6.202   3.536  15.948  2.8214  0.4347  0.6672
13805TIP3    H262907   6.239   3.490  16.088 -2.4973 -0.1274  2.1277
13806TIP3   OH262908   4.472   4.536  14.867  0.1553  0.2114  0.0692
13806TIP3    H162909   4.532   4.602  14.832 -0.0133  0.5325  0.3707
13806TIP3    H262910   4.495   4.529  14.959 -0.9015  1.0746  0.4310
13807TIP3   OH262911   2.793   0.563  15.994  0.2903 -0.0543  0.3373
13807TIP3    H162912   2.790   0.611  15.912  2.2169  2.2687  1.4903
13807TIP3    H262913   2.809   0.631  16.060  0.4479 -2.0223  2.4234
13808TIP3   OH262914   6.121   0.674   4.854 -0.0305  0.2419  0.3570
13808TIP3    H162915   6.039   0.706   4.892 -1.1214 -0.9728 -0.8648
13808TIP3    H262916   6.189   0.725   4.898 -1.4346  1.4053  1.2903
13809TIP3   OH262917   2.628   2.191   3.604  0.0397 -0.4791  0.5868
13809TIP3    H162918   2.706   2.159   3.558 -0.3108  0.1043 -0.4495
13809TIP3    H262919   2.661   2.260   3.662  0.5544 -1.5425  1.5937
13810TIP3   OH262920   0.795   4.118  14.003 -0.2495 -0.4873  0.1134
13810TIP3    H162921   0.703   4.144  14.013 -0.7090 -2.1004  0.4482
13810TIP3    H262922   0.796   4.026  14.029  1.2324 -0.8658 -1.1763
13811TIP3   OH262923   2.078   0.953  15.357  0.2015  0.0022  0.3688
13811TIP3    H162924   2.111   0.938  15.268  1.8449  0.2685  0.8916
13811TIP3    H262925   2.137   0.901  15.413 -2.1066 -1.9053  1.1728
13812TIP3   OH262926   6.829   1.406  15.031 -0.1869  0.1008 -0.9428
13812TIP3    H162927   6.885   1.439  14.961  0.1704  0.8343 -0.3162
13812TIP3    H262928   6.801   1.484  15.079  0.8594 -0.4991  0.7017
13813TIP3   OH262929   4.552   1.937   4.630 -0.1254 -0.5932  0.1115
13813TIP3    H162930   4.508   1.996   4.569 -1.1045 -1.3756  0.0409
13813TIP3    H262931   4.645   1.949   4.612 -0.4023 -1.1360 -1.8585
13814TIP3   OH262932   4.776   4.638  14.259 -0.0885  0.0938  0.3568
13814TIP3    H162933   4.746   4.691  14.185 -2.9031 -0.3767  1.0351
13814TIP3    H262934   4.849   4.688  14.296  1.8587  0.0359 -3.0270
13815TIP3   OH262935   4.004   6.190   6.217 -0.0913 -0.0420 -0.1774
13815TIP3    H162936   4.077   6.156   6.269 -0.0443  0.1181 -0.1389
13815TIP3    H262937   3.939   6.219   6.281 -0.6831 -1.2412 -0.2106
13816TIP3   OH262938   1.463   3.093   2.991 -0.3973 -0.0347  0.6955
13816TIP3    H162939   1.394   3.156   3.012  1.6653  1.5771  3.3369
13816TIP3    H262940   1.506   3.075   3.075  1.6428 -1.8844 -0.6156
13817TIP3   OH262941   6.166   5.419  17.118  0.0083  0.4798  0.5008
13817TIP3    H162942   6.226   5.424  17.043  1.7044 -0.3442  1.7304
13817TIP3    H262943   6.217   5.453  17.192 -1.7182  1.5505  1.2635
13818TIP3   OH262944   6.116   2.809  11.999 -0.5328 -0.5652 -0.7160
13818TIP3    H162945   6.027   2.816  11.965 -0.5258  1.6977 -0.4475
13818TIP3    H262946   6.108   2.831  12.092  0.5578  2.4868 -1.2087
13819TIP3   OH262947   4.997   5.580   4.533  0.1097  0.3908 -0.1741
13819TIP3    H162948   5.042   5.568   4.449 -0.4958 -0.6254 -0.3809
13819TIP3    H262949   4.904   5.579   4.510 -0.1922 -2.4292  0.6995
13820TIP3   OH262950   0.976   3.094  13.307  0.3527 -0.0156  0.2373
13820TIP3    H162951   1.002   3.174  13.262 -1.2948  0.6202  0.3308
13820TIP3    H262952   0.952   3.122  13.395  0.7766 -0.7851  0.6051
13821TIP3   OH262953   6.672   4.034   4.883 -0.1318 -0.3213  0.0329
13821TIP3    H162954   6.722   4.115   4.870 -0.5222  0.0173  0.6138
13821TIP3    H262955   6.590   4.062   4.923 -1.2049 -0.7770 -1.7324
13822TIP3   OH262956   0.764   2.362   4.881 -0.1934 -0.3356  0.2108
13822TIP3    H162957   0.741   2.269   4.881  0.1328 -0.4174 -0.1446
13822TIP3    H262958   0.837   2.368   4.943 -2.3881  0.2478  2.9404
13823TIP3   OH262959   1.685   2.084   2.315 -0.0003 -0.0528 -0.8748
13823TIP3    H162960   1.615   2.149   2.308 -0.6750 -0.6014  0.3111
13823TIP3    H262961   1.763   2.134   2.339 -0.7685  0.2675  1.2342
13824TIP3   OH262962   1.453   2.852  15.379  0.7542 -0.4986 -0.2763
13824TIP3    H162963   1.439   2.791  15.451  0.7503 -1.4643 -1.0579
13824TIP3    H262964   1.379   2.837  15.320  0.3445  0.8233 -0.1377
13825TIP3   OH262965   4.208   1.084   4.569  0.7506  0.2860  0.4649
13825TIP3    H162966   4.260   1.004   4.577  1.8292  0.7913 -1.1708
13825TIP3    H262967   4.248   1.145   4.630  0.6560 -0.0393  0.8568
13826TIP3   OH262968   5.816   2.094  15.796  0.5569  0.4227  0.0101
13826TIP3    H162969   5.823   2.000  15.812 -2.6815 -0.2792 -1.8635
13826TIP3    H262970   5.761   2.126  15.869 -0.0758  0.4332 -0.4630
13827TIP3   OH262971   2.455   2.519  11.133  0.2030  0.2777 -0.3007
13827TIP3    H162972   2.479   2.586  11.069  2.0172 -0.7925 -0.8037
13827TIP3    H262973   2.361   2.532  11.147  0.7428  4.3225  1.2589
13828TIP3   OH262974   2.167   0.693   0.211 -0.2984  0.1733 -0.1382
13828TIP3    H162975   2.261   0.702   0.199  0.6635 -0.9346  4.6912
13828TIP3    H262976   2.140   0.775   0.252 -0.8819 -0.5075  0.8751
13829TIP3   OH262977   1.938   1.474   2.045 -0.1644 -0.4158 -0.1291
13829TIP3    H162978   1.978   1.523   2.117 -0.8178 -0.2895  0.1552
13829TIP3    H262979   1.920   1.388   2.082 -0.0919 -0.4949 -0.2772
13830TIP3   OH262980   1.338   4.353  12.281 -0.6013 -0.0480 -0.5542
13830TIP3    H162981   1.340   4.258  12.272 -0.0982  0.0346 -1.4118
13830TIP3    H262982   1.419   4.383  12.240 -0.3382  0.7012  0.4765
13831TIP3   OH262983   0.753   3.721   5.502 -0.4612 -0.2822 -0.0605
13831TIP3    H162984   0.841   3.742   5.469 -0.4692 -1.2998 -0.7847
13831TIP3    H262985   0.714   3.667   5.434 -0.7233 -1.9261  1.3316
13832TIP3   OH262986   0.313   5.613  14.779  0.7271 -0.0390 -0.0033
13832TIP3    H162987   0.327   5.703  14.809  1.5818 -0.6996  1.7111
13832TIP3    H262988   0.344   5.613  14.689  0.2191  1.4975 -0.2144
13833TIP3   OH262989   1.739   5.793   2.556  0.3868 -0.1427  0.3729
13833TIP3    H162990   1.818   5.846   2.565 -0.1596  0.9194 -0.7906
13833TIP3    H262991   1.722   5.762   2.645  0.8989  1.4079  1.0604
13834TIP3   OH262992   3.763   3.525  13.134  0.4166 -0.2137 -0.4502
13834TIP3    H162993   3.855   3.549  13.145  0.1804  0.6186 -0.1954
13834TIP3    H262994   3.715   3.601  13.165 -0.3585 -0.4048 -1.1464
13835TIP3   OH262995   6.061   3.330  11.645  0.2920  0.3635 -0.7331
13835TIP3    H162996   6.048   3.266  11.715  0.4305  0.8638 -0.2433
13835TIP3    H262997   6.142   3.304  11.603  1.2683  1.1758  0.5471
13836TIP3   OH262998   6.558   1.292   2.251  0.4521  0.1305 -0.6904
13836TIP3    H162999   6.611   1.282   2.172  1.2915  1.2911 -0.2966
13836TIP3    H263000   6.621   1.296   2.323 -0.2927 -0.7706  0.0470
13837TIP3   OH263001   1.596   1.994  10.850  0.0791 -0.0335  0.1848
13837TIP3    H163002   1.593   2.076  10.897  1.9485  1.1958 -1.6321
13837TIP3    H263003   1.506   1.979  10.821  0.2076  3.8319 -3.1991
13838TIP3   OH263004   3.736   2.558   2.580 -0.4716 -0.3122 -0.3050
13838TIP3    H163005   3.788   2.506   2.520 -0.4426  0.3867 -0.9055
13838TIP3    H263006   3.664   2.592   2.527 -1.2341 -0.8097  0.3803
13839TIP3   OH263007   2.478   5.971   1.206  0.4398 -0.3720 -1.0111
13839TIP3    H163008   2.481   5.914   1.283  0.5149 -1.2474 -1.6467
13839TIP3    H263009   2.469   5.911   1.132  1.6740  0.3751 -1.7980
13840TIP3   OH263010   5.284   6.396   3.807 -0.2276  0.1155 -0.7295
13840TIP3    H163011   5.267   6.429   3.895  1.8326  1.3751 -0.7290
13840TIP3    H263012   5.218   6.329   3.793 -0.9629  0.2805  1.5531
13841TIP3   OH263013   6.483   3.082  14.178 -0.2267 -0.0905  0.1880
13841TIP3    H163014   6.529   3.020  14.235 -1.4096  0.1518  1.4447
13841TIP3    H263015   6.520   3.167  14.200 -2.2551  0.3357  2.3694
13842TIP3   OH263016   6.243   3.152   1.910  0.0688 -0.0740  0.4876
13842TIP3    H163017   6.275   3.095   1.840  1.1599  2.5655 -1.3473
13842TIP3    H263018   6.156   3.118   1.930  0.4074 -1.9811 -0.9119
13843TIP3   OH263019   1.920   0.108  11.030  0.1271 -0.2624 -0.0045
13843TIP3    H163020   1.960   0.167  11.093  0.4289 -1.2520  0.7435
13843TIP3    H263021   1.987   0.095  10.963  0.7433 -1.1840  0.7692
13844TIP3   OH263022   1.814   0.582   1.966  0.1573  0.1773 -0.3018
13844TIP3    H163023   1.883   0.647   1.981  1.6213 -1.0708 -1.3346
13844TIP3    H263024   1.831   0.514   2.031  0.3522 -0.4889 -1.0453
13845TIP3   OH263025   5.612   0.047  16.199  0.1140  0.0990  0.3536
13845TIP3    H163026   5.588  -0.044  16.180  1.7731 -0.3009 -0.0224
13845TIP3    H263027   5.695   0.041  16.246  1.2394  1.4450 -1.3123
13846TIP3   OH263028   5.244   5.941   3.712 -0.0626 -0.4413  0.3478
13846TIP3    H163029   5.151   5.929   3.693 -0.2955 -0.1100  1.2463
13846TIP3    H263030   5.279   5.851   3.718 -0.2541 -0.5613 -0.2904
13847TIP3   OH263031   2.230   2.529  15.710 -0.2288 -0.0871 -0.2324
13847TIP3    H163032   2.325   2.545  15.702 -0.1198 -0.9081 -0.6578
13847TIP3    H263033   2.214   2.530  15.804 -0.2139  2.3156 -0.1712
13848TIP3   OH263034   2.875   1.769  16.763 -0.1170  0.0344  0.1977
13848TIP3    H163035   2.962   1.736  16.740 -0.0177  1.4970 -1.7729
13848TIP3    H263036   2.814   1.712  16.715 -0.3770 -1.3901  2.0592
13849TIP3   OH263037   0.809   4.414  13.216 -0.2038 -0.4130  0.0896
13849TIP3    H163038   0.901   4.389  13.212 -0.0597  0.1666 -0.3851
13849TIP3    H263039   0.809   4.509  13.207 -0.6887 -0.1051  2.7056
13850TIP3   OH263040   3.972   0.238   1.982  0.0543  0.0452  0.0958
13850TIP3    H163041   3.905   0.304   2.002 -0.4992 -0.7318  0.8986
13850TIP3    H263042   3.996   0.202   2.068  0.3744 -0.7742 -0.3273
13851TIP3   OH263043   3.144   4.390  12.309  0.2969 -0.6981  0.2825
13851TIP3    H163044   3.231   4.358  12.287  0.3977 -0.5760  0.5047
13851TIP3    H263045   3.087   4.353  12.241  0.8787  1.2121 -1.3432
13852TIP3   OH263046   3.786   1.538  15.759 -0.1041  0.4791  0.0480
13852TIP3    H163047   3.843   1.557  15.833  0.3891 -1.1069  0.1156
13852TIP3    H263048   3.829   1.580  15.685 -0.6673  2.1817  0.6595
13853TIP3   OH263049   4.143   4.742   2.637  0.0207  0.0500  0.3503
13853TIP3    H163050   4.085   4.698   2.700  0.3199  2.1318  2.2350
13853TIP3    H263051   4.155   4.830   2.674  1.2350  0.9729 -2.0402
13854TIP3   OH263052   5.083   1.214   3.641 -0.2354  0.4490 -0.0105
13854TIP3    H163053   5.050   1.249   3.723  0.3195  0.2321  0.3122
13854TIP3    H263054   5.090   1.119   3.656  0.6629  0.5038 -0.0088
13855TIP3   OH263055   2.964   5.367   3.284 -0.4617  0.0353  0.7586
13855TIP3    H163056   2.942   5.453   3.249 -0.0150  0.3795  1.3015
13855TIP3    H263057   2.880   5.323   3.297 -0.7009  0.4814  0.6994
13856TIP3   OH263058   1.516   3.045   0.677 -0.3306  0.6188 -0.1203
13856TIP3    H163059   1.468   3.108   0.624 -2.3609 -1.6213 -1.1375
13856TIP3    H263060   1.461   3.032   0.755 -0.3307 -0.3881 -0.2720
13857TIP3   OH263061   0.361   4.117   5.131 -0.4320 -0.3281 -0.2869
13857TIP3    H163062   0.292   4.131   5.195  0.1889 -1.8481  0.7567
13857TIP3    H263063   0.442   4.122   5.181  0.3841  2.4107 -1.6376
13858TIP3   OH263064   3.422   5.474  13.530 -0.3622 -0.4584 -0.4517
13858TIP3    H163065   3.402   5.398  13.584 -0.4629  0.7514  1.2978
13858TIP3    H263066   3.396   5.549  13.583  0.0831  0.8310 -1.9612
13859TIP3   OH263067   4.000   2.709  12.195  0.1833  0.2661  0.1158
13859TIP3    H163068   3.956   2.673  12.272  1.8578 -3.2552 -0.3569
13859TIP3    H263069   3.949   2.677  12.121 -0.8957  2.8779 -0.3761
13860TIP3   OH263070   2.546   4.775  13.935 -0.0692  0.1380 -0.5641
13860TIP3    H163071   2.461   4.816  13.919 -0.3082 -0.4839 -0.9201
13860TIP3    H263072   2.610   4.842  13.911 -0.4548  0.4370 -0.7676
13861TIP3   OH263073   0.335   0.703   5.656  0.4895  0.5626  0.2126
13861TIP3    H163074   0.239   0.703   5.652  0.4851  0.5507  0.3233
13861TIP3    H263075   0.355   0.668   5.743  0.6514 -3.2138 -1.1346
13862TIP3   OH263076   1.251   6.244  15.159 -0.1279 -0.7858 -0.3740
13862TIP3    H163077   1.236   6.150  15.174  1.1735 -1.1990 -1.5182
13862TIP3    H263078   1.274   6.251  15.067 -2.8901  1.0410 -1.0426
13863TIP3   OH263079   0.760   1.177   3.117 -0.0915 -0.4060 -0.2685
13863TIP3    H163080   0.685   1.168   3.058 -1.5498  1.5620  1.1225
13863TIP3    H263081   0.810   1.250   3.081 -0.0156 -0.3396 -0.0311
13864TIP3   OH263082   3.983   3.662  15.492 -0.7469 -0.4007 -0.0829
13864TIP3    H163083   4.019   3.641  15.406  1.8985 -1.3587  1.1415
13864TIP3    H263084   3.895   3.626  15.491 -0.1481 -1.9491 -1.8165
13865TIP3   OH263085   4.961   3.624  12.759 -0.0286 -0.2202  0.3473
13865TIP3    H163086   4.871   3.656  12.757  0.4558  1.1526 -0.9159
13865TIP3    H263087   4.987   3.631  12.851 -0.4422  1.6495  0.3554
13866TIP3   OH263088   3.339   0.220  15.452 -0.4688  0.7245  0.3792
13866TIP3    H163089   3.396   0.170  15.392 -2.3826 -1.2388  0.0936
13866TIP3    H263090   3.387   0.301  15.467  0.8193  0.6655 -2.6191
13867TIP3   OH263091   5.419   6.044  10.854  0.5210  0.1579 -0.5155
13867TIP3    H163092   5.476   6.024  10.928 -2.0306  2.1984  2.3001
13867TIP3    H263093   5.368   5.964  10.840  1.0373 -0.2592 -0.0537
13868TIP3   OH263094   0.220   1.033  14.990  0.1699 -0.1754  0.0711
13868TIP3    H163095   0.304   1.021  15.034  0.5195  3.0143  0.5649
13868TIP3    H263096   0.241   1.037  14.897  0.2729 -1.1913  0.0441
13869TIP3   OH263097   1.016   5.297   6.266  0.5981 -0.0119  0.0828
13869TIP3    H163098   1.093   5.301   6.209  0.5885 -0.9278 -0.0141
13869TIP3    H263099   0.955   5.240   6.219  0.5369 -0.6711  0.9415
13870TIP3   OH263100   3.404   4.123   0.902 -0.4861  0.0424  0.0648
13870TIP3    H163101   3.324   4.176   0.904  0.3173  1.3774 -0.8898
13870TIP3    H263102   3.475   4.187   0.911  0.5313 -0.8805 -1.0476
13871TIP3   OH263103   3.961   4.555  15.762  0.2437  0.4249  0.3940
13871TIP3    H163104   4.041   4.509  15.785  1.7009  1.8307 -1.4966
13871TIP3    H263105   3.962   4.559  15.667 -0.6298  2.8553  0.4126
13872TIP3   OH263106   0.552   1.051  13.602  0.3613 -0.1404  0.4372
13872TIP3    H163107   0.499   0.971  13.602  0.5607 -0.2754 -0.1568
13872TIP3    H263108   0.541   1.088  13.515 -0.8013  1.2190  1.1166
13873TIP3   OH263109   1.123   5.346   1.616  0.8368  0.0288 -0.3595
13873TIP3    H163110   1.144   5.321   1.706 -1.9183  1.5807  0.8553
13873TIP3    H263111   1.190   5.411   1.593 -0.7815  2.9451  2.3463
13874TIP3   OH263112   4.372   1.224   4.732 -0.4132  0.3258 -1.0575
13874TIP3    H163113   4.404   1.290   4.671  0.2315  1.3265  0.3235
13874TIP3    H263114   4.410   1.248   4.816 -1.5581 -0.8107 -0.1745
13875TIP3   OH263115   1.215   6.071  16.125  0.2447 -0.7671 -0.2367
13875TIP3    H163116   1.177   6.033  16.046 -0.6397 -2.0543  0.7635
13875TIP3    H263117   1.170   6.027  16.197 -0.4150  1.7753  1.0249
13876TIP3   OH263118   0.845   5.365   5.191 -0.1707 -0.1862  0.5257
13876TIP3    H163119   0.789   5.307   5.140  0.7137 -1.7844  1.2963
13876TIP3    H263120   0.799   5.373   5.275 -1.8048  2.7185 -0.4975
13877TIP3   OH263121   4.038   1.951  15.525  0.4720 -0.2212 -0.4532
13877TIP3    H163122   3.970   1.949  15.458  0.6784  1.9807 -0.8130
13877TIP3    H263123   4.119   1.966  15.477  0.6006  1.5783  0.2409
13878TIP3   OH263124   3.086   2.889  15.848  0.0952  0.5243  0.7295
13878TIP3    H163125   3.037   2.826  15.902 -0.0689 -1.0738 -1.1627
13878TIP3    H263126   3.155   2.836  15.807  3.9249  2.7262  3.6065
13879TIP3   OH263127   3.268   4.765   2.934  0.0920 -0.0905 -0.0768
13879TIP3    H163128   3.323   4.810   2.870  1.4986 -0.7126  0.6587
13879TIP3    H263129   3.251   4.679   2.896 -0.6257  0.2020 -0.4300
13880TIP3   OH263130   1.738   6.771  16.199  0.4495  0.2245 -0.1446
13880TIP3    H163131   1.820   6.754  16.153  0.5744  0.2424  0.0681
13880TIP3    H263132   1.762   6.771  16.291  0.0242 -0.7493 -0.0287
13881TIP3   OH263133   6.452   5.341  14.937  0.2833  0.1251  0.8366
13881TIP3    H163134   6.514   5.322  14.867  0.7901  1.1290  0.9946
13881TIP3    H263135   6.414   5.256  14.959  1.3279 -0.4543  0.4794
13882TIP3   OH263136   1.550   3.727   4.930  0.4605  0.3836  0.4362
13882TIP3    H163137   1.522   3.817   4.914  1.5274  0.6645  0.0880
13882TIP3    H263138   1.586   3.698   4.847 -0.0625 -0.4430  0.4895
13883TIP3   OH263139   3.323   1.504   6.155  0.0356 -0.0769 -0.2901
13883TIP3    H163140   3.307   1.585   6.203 -1.6983 -0.9462  0.7036
13883TIP3    H263141   3.250   1.447   6.179  0.9782 -1.7955 -1.2875
13884TIP3   OH263142   1.324   1.091   0.001 -0.1841 -0.0536 -0.0824
13884TIP3    H163143   1.243   1.064  -0.043  0.2362  0.5812 -1.2750
13884TIP3    H263144   1.357   1.010   0.041 -1.6725 -0.2264  0.9024
13885TIP3   OH263145   1.467   1.613   5.039 -0.2916 -0.8708  0.9507
13885TIP3    H163146   1.454   1.671   4.964  2.8044 -1.3141 -0.0759
13885TIP3    H263147   1.396   1.550   5.034  0.1021 -1.2297 -2.0133
13886TIP3   OH263148   0.052   3.637   1.772  0.0839 -0.2660 -0.4267
13886TIP3    H163149  -0.022   3.666   1.719 -0.5334 -1.0433  0.0018
13886TIP3    H263150   0.027   3.551   1.805  1.8292 -1.2706 -1.5634
13887TIP3   OH263151   3.790   2.984   4.079  0.2460  0.4232  0.6409
13887TIP3    H163152   3.732   2.973   4.003  1.9996  0.2744 -0.7484
13887TIP3    H263153   3.838   3.064   4.060  1.2936 -0.0605  1.2023
13888TIP3   OH263154   1.748   4.131  12.132  0.0432  0.5369 -0.2455
13888TIP3    H163155   1.731   4.205  12.073 -1.1036  0.9697  0.5997
13888TIP3    H263156   1.821   4.160  12.186  0.6665  0.3962 -0.9841
13889TIP3   OH263157   3.353   3.979  17.014  0.4345  0.1557  0.2459
13889TIP3    H163158   3.391   4.008  16.931  2.0410  0.6538  1.1197
13889TIP3    H263159   3.315   3.893  16.993  0.6918  0.3231 -1.0283
13890TIP3   OH263160   4.480   3.181   1.876 -0.0910  0.0657  0.0242
13890TIP3    H163161   4.537   3.258   1.871 -0.7111  0.5845  0.6257
13890TIP3    H263162   4.407   3.209   1.932  0.1035 -1.2420  0.9790
13891TIP3   OH263163   5.386   3.065   5.697  0.2903 -0.2983  0.2083
13891TIP3    H163164   5.446   2.998   5.731  0.7802 -0.6950 -1.3393
13891TIP3    H263165   5.422   3.147   5.729  1.5881 -0.5498 -0.5042
13892TIP3   OH263166   3.625   2.980   6.181  0.0340 -0.5169 -0.8451
13892TIP3    H163167   3.567   2.955   6.252  1.5600 -0.9754  0.2725
13892TIP3    H263168   3.676   3.054   6.216 -0.4287  0.4359 -2.0978
13893TIP3   OH263169   6.441   0.738   3.539  0.1232  0.0399  0.2411
13893TIP3    H163170   6.474   0.725   3.628 -1.4176  1.6638  1.0994
13893TIP3    H263171   6.371   0.674   3.530 -0.7053  0.8520  0.7639
13894TIP3   OH263172   0.039   6.116  14.719  0.5525 -0.0331  0.3271
13894TIP3    H163173   0.035   6.188  14.782 -0.2919 -0.2740  0.5613
13894TIP3    H263174  -0.037   6.061  14.740 -0.1033  0.2101 -1.2911
13895TIP3   OH263175   4.830   2.068   3.215 -0.7435 -0.4110 -0.3948
13895TIP3    H163176   4.739   2.085   3.239 -0.4724 -0.7566  0.9853
13895TIP3    H263177   4.862   2.010   3.285  0.3103 -0.9208 -1.2769
13896TIP3   OH263178   1.873   3.943  15.829  0.1936  0.0907  0.1454
13896TIP3    H163179   1.778   3.950  15.837  0.1083 -0.7953 -0.0894
13896TIP3    H263180   1.903   3.923  15.917  0.2948  1.5543  0.4839
13897TIP3   OH263181   5.440   6.699   1.344 -0.2615 -0.3022  0.1192
13897TIP3    H163182   5.496   6.624   1.322  0.5219  0.6587 -1.3732
13897TIP3    H263183   5.447   6.707   1.439  0.7460 -1.2857  0.1531
13898TIP3   OH263184   2.915   3.106  15.018 -0.0706 -0.0820  0.4475
13898TIP3    H163185   2.956   3.044  14.957 -0.7766  0.7244 -0.8939
13898TIP3    H263186   2.828   3.122  14.982 -0.6750  0.1223  1.9050
13899TIP3   OH263187   1.926   5.976  11.776  0.2191 -0.0393 -0.0100
13899TIP3    H163188   1.930   5.994  11.870 -0.3721 -0.4134  0.0904
13899TIP3    H263189   1.922   5.880  11.770 -3.0875  0.0071 -0.2458
13900TIP3   OH263190   3.775   6.627  14.855  0.0748 -0.4730  0.2885
13900TIP3    H163191   3.769   6.623  14.760 -0.4646 -2.8082  0.3504
13900TIP3    H263192   3.743   6.714  14.878  1.0811  0.4763 -1.6926
13901TIP3   OH263193   5.931   4.844  11.459  0.5536 -0.4964 -0.2370
13901TIP3    H163194   5.902   4.901  11.530  0.1593 -1.1829  0.1696
13901TIP3    H263195   5.850   4.810  11.422  0.7917 -1.1399 -0.1753
13902TIP3   OH263196   6.695   2.096   4.783  0.2064 -0.1540  0.3522
13902TIP3    H163197   6.610   2.097   4.826  0.7420 -0.9393  1.4941
13902TIP3    H263198   6.739   2.019   4.819  0.5632 -1.0757 -1.9134
13903TIP3   OH263199   2.183   1.454   2.929  0.2186 -0.4951 -0.1030
13903TIP3    H163200   2.119   1.396   2.887  1.1697  0.0187 -2.4054
13903TIP3    H263201   2.252   1.396   2.960  0.1391 -0.7880 -0.4681
13904TIP3   OH263202   4.221   2.009   4.954 -0.0739  0.2088 -0.8649
13904TIP3    H163203   4.180   2.087   4.991  0.8993  1.0572 -1.5231
13904TIP3    H263204   4.227   2.028   4.860  1.7397  0.0844 -0.8004
13905TIP3   OH263205   4.266   1.538  15.536 -0.1215  0.4541 -0.0515
13905TIP3    H163206   4.353   1.543  15.498  0.6754  0.8732  1.7504
13905TIP3    H263207   4.213   1.496  15.468  1.8079 -1.2264 -0.6267
13906TIP3   OH263208   5.624   0.285   3.518  0.2538  0.2647 -0.6991
13906TIP3    H163209   5.529   0.291   3.518  0.3040  1.1303 -0.7024
13906TIP3    H263210   5.654   0.375   3.529  1.0761  0.0552 -1.1410
13907TIP3   OH263211   4.814   5.717  16.962  0.4304 -0.1827 -0.1626
13907TIP3    H163212   4.877   5.696  16.894 -1.1729 -0.5776 -1.6011
13907TIP3    H263213   4.748   5.648  16.957 -0.5807  0.6664  0.6922
13908TIP3   OH263214   0.553   2.484   3.627  0.9915  0.2283 -0.6988
13908TIP3    H163215   0.632   2.433   3.644 -0.2416 -1.8947 -1.0274
13908TIP3    H263216   0.570   2.569   3.668  3.6421  0.0567 -1.2633
13909TIP3   OH263217   2.653   2.933   3.024  0.4554  0.2912  0.1451
13909TIP3    H163218   2.679   2.847   3.056 -1.7399 -0.3107  0.4489
13909TIP3    H263219   2.638   2.921   2.930  0.9563  0.5660  0.0241
13910TIP3   OH263220   2.339   6.340   0.778 -0.3545  0.2210 -0.0140
13910TIP3    H163221   2.335   6.254   0.736  0.6514 -0.6683  1.6293
13910TIP3    H263222   2.417   6.337   0.832 -0.1274  2.3138 -0.1649
13911TIP3   OH263223   3.791   1.245  11.355  0.6110 -0.0225  0.4541
13911TIP3    H163224   3.851   1.172  11.372 -1.7145 -2.2968 -0.4554
13911TIP3    H263225   3.721   1.234  11.419 -0.7539  0.2118 -0.9521
13912TIP3   OH263226   4.239   1.646   5.834  0.5235  0.4040  0.0803
13912TIP3    H163227   4.232   1.690   5.749 -1.3537  2.9776  1.4298
13912TIP3    H263228   4.325   1.671   5.867  0.4326  1.1276 -0.2066
13913TIP3   OH263229   6.276   5.690  16.295  0.5066  0.2203 -0.6824
13913TIP3    H163230   6.278   5.665  16.387 -0.9993 -0.6982 -0.8529
13913TIP3    H263231   6.185   5.715  16.279  1.0310  1.6599 -1.6192
13914TIP3   OH263232   6.814   0.405  16.797  0.0633 -0.4552 -0.0241
13914TIP3    H163233   6.800   0.460  16.720  1.5010  0.6141  0.4521
13914TIP3    H263234   6.892   0.353  16.777  0.3128 -0.3391  0.6121
13915TIP3   OH263235   6.547   1.949  14.417 -0.2925  0.0948 -0.1570
13915TIP3    H163236   6.454   1.941  14.400  0.1967 -1.2086 -2.6859
13915TIP3    H263237   6.572   1.866  14.457 -0.3334  0.8599  1.5912
13916TIP3   OH263238   1.395   3.543   5.055 -0.1637 -0.0797  0.1084
13916TIP3    H163239   1.446   3.615   5.017 -0.3727  1.5850  2.6715
13916TIP3    H263240   1.355   3.499   4.980  2.3858  0.5820 -1.7654
13917TIP3   OH263241   4.329   2.929   3.720 -0.3049  0.4826  0.1300
13917TIP3    H163242   4.304   3.001   3.778 -1.2612 -0.2070  0.5979
13917TIP3    H263243   4.424   2.937   3.713 -0.2267  0.9319  1.3375
13918TIP3   OH263244   1.270   2.167   1.319  0.2283 -0.0762  0.2140
13918TIP3    H163245   1.261   2.258   1.291 -0.3506 -0.0028  0.6151
13918TIP3    H263246   1.364   2.152   1.323  0.3212  0.2516 -0.6679
13919TIP3   OH263247   1.358   4.075   3.231  0.0221  0.6737 -0.1414
13919TIP3    H163248   1.292   4.133   3.267 -0.8252 -0.3786  0.0291
13919TIP3    H263249   1.430   4.134   3.205 -0.8597  1.7974 -0.1011
13920TIP3   OH263250   3.553   2.098   1.146 -0.2840 -0.4171  0.9694
13920TIP3    H163251   3.591   2.168   1.198 -0.3169  0.8582 -0.6485
13920TIP3    H263252   3.626   2.039   1.128  0.2624  0.3870  0.4907
13921TIP3   OH263253   1.504   4.606   5.750  0.1896  0.0580 -0.9168
13921TIP3    H163254   1.507   4.653   5.667 -0.6006  0.2495 -0.8480
13921TIP3    H263255   1.437   4.652   5.801  2.0193  1.2070  0.6012
13922TIP3   OH263256   6.259   4.381   3.035 -0.1483  0.1305  0.2077
13922TIP3    H163257   6.296   4.459   3.077  0.3338  1.6637 -2.8496
13922TIP3    H263258   6.305   4.308   3.077 -0.0202  1.4490  2.5727
13923TIP3   OH263259   1.886   0.874   2.275 -0.1556 -0.1536  0.9354
13923TIP3    H163260   1.838   0.938   2.327 -1.4485  1.1800 -1.6897
13923TIP3    H263261   1.941   0.926   2.217 -1.5383 -1.2604 -1.5485
13924TIP3   OH263262   6.182   0.290  13.646  1.0924  0.5737 -0.3469
13924TIP3    H163263   6.264   0.331  13.619  0.6888  0.7946 -1.2987
13924TIP3    H263264   6.152   0.244  13.568  0.1481  0.7698 -0.1124
13925TIP3   OH263265   3.692   1.123   1.476  0.4108 -0.0342 -0.3288
13925TIP3    H163266   3.692   1.064   1.551  1.4666  0.6073  0.1973
13925TIP3    H263267   3.776   1.169   1.482 -0.1441  1.1023 -1.0544
13926TIP3   OH263268   0.930   2.593   0.626  0.0296  0.2385 -0.3215
13926TIP3    H163269   0.900   2.504   0.647 -1.0807  0.4910 -0.7856
13926TIP3    H263270   0.978   2.620   0.704 -2.3862  0.4335  1.1989
13927TIP3   OH263271   3.546   3.432   6.122  0.1706  0.7552 -0.5467
13927TIP3    H163272   3.485   3.376   6.074  0.1375  0.1416  0.1969
13927TIP3    H263273   3.633   3.396   6.103  0.2078  0.8730 -0.6069
13928TIP3   OH263274   1.223   5.528   6.405 -0.4129  0.0876  0.3952
13928TIP3    H163275   1.236   5.451   6.349  0.1966  1.5109 -1.5126
13928TIP3    H263276   1.210   5.491   6.493 -0.9370 -2.2159 -0.5657
13929TIP3   OH263277   2.718   4.839  11.680 -0.1123  0.0956 -0.0191
13929TIP3    H163278   2.677   4.761  11.718  1.8296 -0.3432  1.3356
13929TIP3    H263279   2.727   4.818  11.587  0.7835 -1.5309  0.3931
13930TIP3   OH263280   1.277   2.999  15.746 -0.1084  0.2749  0.2166
13930TIP3    H163281   1.248   3.015  15.656  1.8824 -0.2079 -0.5650
13930TIP3    H263282   1.198   3.012  15.799 -1.1412  1.4299 -1.4893
13931TIP3   OH263283   0.095   6.758  15.722 -0.8744  0.0846  0.3614
13931TIP3    H163284   0.130   6.677  15.685 -0.6372 -0.1242  1.0299
13931TIP3    H263285   0.171   6.801  15.761 -0.8208  1.0865 -0.7890
13932TIP3   OH263286   2.709   4.252  10.807 -0.5414 -0.1351  0.1393
13932TIP3    H163287   2.633   4.268  10.863 -2.4939 -1.8032 -1.8356
13932TIP3    H263288   2.721   4.334  10.758 -2.2383 -0.3682 -0.7423
13933TIP3   OH263289   6.220   0.175  14.312  0.5987  0.0493 -0.1383
13933TIP3    H163290   6.219   0.138  14.224  2.3752 -0.3579 -0.0410
13933TIP3    H263291   6.220   0.099  14.370  0.3502  0.2877  0.1760
13934TIP3   OH263292   4.487   2.020  15.574 -0.0688 -0.7510 -0.4874
13934TIP3    H163293   4.543   1.949  15.542 -0.0128 -1.8970  1.9076
13934TIP3    H263294   4.531   2.100  15.547  0.9145 -1.6141 -1.5535
13935TIP3   OH263295   6.752   2.349  16.998  0.1175  0.2210 -0.6978
13935TIP3    H163296   6.726   2.427  16.948 -0.3482  0.3403 -0.2797
13935TIP3    H263297   6.766   2.380  17.087  1.9167  0.1841 -0.9478
13936TIP3   OH263298   6.069   6.433   0.508 -0.0953 -0.1475  0.5470
13936TIP3    H163299   6.010   6.359   0.523 -0.3316 -0.5399 -1.9251
13936TIP3    H263300   6.029   6.482   0.436  1.6692  0.5962  0.0062
13937TIP3   OH263301   0.341   6.468   3.985  0.3882 -0.4505 -1.0794
13937TIP3    H163302   0.346   6.548   4.037 -1.5531 -0.3281 -1.0159
13937TIP3    H263303   0.323   6.499   3.896 -0.9450 -0.8234 -0.9498
13938TIP3   OH263304   1.199   6.077  12.304 -0.5398  0.0187 -0.7339
13938TIP3    H163305   1.279   6.128  12.319 -0.9981  0.2729  1.1007
13938TIP3    H263306   1.164   6.112  12.222  0.8218  0.4221 -1.1835
13939TIP3   OH263307   1.141   5.577  16.830  0.2992  0.7471 -0.3170
13939TIP3    H163308   1.077   5.585  16.759  1.0651  0.3941 -1.0697
13939TIP3    H263309   1.190   5.497  16.810  0.1866  0.3553  0.9039
13940TIP3   OH263310   4.274   4.660   5.949  0.0831  0.0004 -0.0578
13940TIP3    H163311   4.351   4.711   5.925  0.8799 -0.5901  1.1440
13940TIP3    H263312   4.304   4.601   6.018 -1.0422 -1.4040 -0.6975
13941TIP3   OH263313   4.031   6.176   2.293  0.4524 -0.2107 -0.0574
13941TIP3    H163314   4.015   6.264   2.258 -0.0863 -0.1807  0.2563
13941TIP3    H263315   3.974   6.119   2.241 -0.1651 -0.2005  0.5961
13942TIP3   OH263316   3.410   0.318  16.139  0.0655  0.1728  0.5721
13942TIP3    H163317   3.380   0.239  16.094 -2.0159  1.7407 -0.9885
13942TIP3    H263318   3.402   0.387  16.074 -1.0747  2.2121  2.7183
13943TIP3   OH263319   3.463   5.882   5.061 -0.8288 -0.3378  0.8323
13943TIP3    H163320   3.391   5.825   5.088 -0.1812 -1.4026  0.3374
13943TIP3    H263321   3.541   5.844   5.100 -0.3785  0.1637  0.4392
13944TIP3   OH263322   4.681   5.949   5.715  0.6612 -0.2507  0.1859
13944TIP3    H163323   4.697   5.948   5.810  3.2505 -0.2419 -0.1709
13944TIP3    H263324   4.686   6.041   5.691  0.7423 -0.3199 -0.0638
13945TIP3   OH263325   1.045   0.937  14.741 -1.0079  0.3393 -0.5098
13945TIP3    H163326   1.031   0.848  14.773 -0.9927  0.7566  0.7084
13945TIP3    H263327   1.131   0.934  14.698  0.2031  0.2930  1.7403
13946TIP3   OH263328   3.730   5.896   4.224 -0.2206 -0.1237  0.8529
13946TIP3    H163329   3.686   5.981   4.234 -0.7291 -0.5268  2.2212
13946TIP3    H263330   3.800   5.898   4.289  0.3707 -0.3914  0.2354
13947TIP3   OH263331   0.196   3.778   0.480 -0.1875 -0.0327  0.1855
13947TIP3    H163332   0.125   3.839   0.462 -0.2547  0.5810  2.2402
13947TIP3    H263333   0.264   3.800   0.416 -0.4024  1.9154  0.5719
13948TIP3   OH263334   0.596   4.913   4.765 -0.1421  0.3823  0.0776
13948TIP3    H163335   0.590   4.958   4.681  0.1200  1.2135  0.4902
13948TIP3    H263336   0.651   4.836   4.748 -0.1527  0.5051 -0.5207
13949TIP3   OH263337   5.962   1.617  14.860 -0.5939 -0.5489 -0.3384
13949TIP3    H163338   5.933   1.708  14.863  1.7759  0.3058 -0.9239
13949TIP3    H263339   5.917   1.574  14.932 -2.5106  0.8245 -0.6471
13950TIP3   OH263340   4.678   6.676  13.791  0.3639 -0.1484  0.0444
13950TIP3    H163341   4.669   6.623  13.870  0.1003 -0.1867 -0.0126
13950TIP3    H263342   4.594   6.720  13.782  1.1610  1.7928  1.1800
13951TIP3   OH263343   6.228   5.521   2.359 -0.0145  0.3949  0.0682
13951TIP3    H163344   6.298   5.461   2.332  0.6662  0.5918  1.2977
13951TIP3    H263345   6.173   5.531   2.281  0.7506 -0.5744 -0.6219
13952TIP3   OH263346   4.006   6.177   3.740  0.1298  0.3327  0.2133
13952TIP3    H163347   3.953   6.165   3.819  1.5611 -0.0214  1.1583
13952TIP3    H263348   4.072   6.242   3.764  0.0187  0.9299 -1.0092
13953TIP3   OH263349   0.522   3.415   1.139  0.2437 -0.0907  0.1868
13953TIP3    H163350   0.607   3.391   1.104  0.9483  2.5343 -0.1261
13953TIP3    H263351   0.484   3.333   1.170  2.1282 -1.5890 -1.2486
13954TIP3   OH263352   0.478   0.312   6.012 -0.2387 -0.2080 -0.0932
13954TIP3    H163353   0.567   0.292   6.043  0.0026  0.8577 -0.0241
13954TIP3    H263354   0.490   0.388   5.955 -1.0011 -0.6367 -0.8458
13955TIP3   OH263355   5.339   0.798   2.511 -0.9917  0.1591  0.4434
13955TIP3    H163356   5.359   0.761   2.596 -0.3259 -0.6857 -0.0655
13955TIP3    H263357   5.255   0.759   2.487 -1.5110  0.9194  0.9999
13956TIP3   OH263358   5.780   3.844   5.143 -0.3130 -0.0172  0.5501
13956TIP3    H163359   5.844   3.794   5.194 -0.7703 -0.8635  0.3232
13956TIP3    H263360   5.822   3.929   5.128  0.8475 -0.6092  0.2553
13957TIP3   OH263361   0.976   5.323   0.763 -0.0624 -0.1279 -0.2252
13957TIP3    H163362   1.038   5.322   0.691  0.6998 -0.7634  0.4138
13957TIP3    H263363   0.975   5.233   0.795  0.0394  0.2539  0.8979
13958TIP3   OH263364   4.035   1.526  11.566 -0.3289  0.4468 -1.0116
13958TIP3    H163365   4.051   1.571  11.483 -0.8463 -0.1716 -1.4610
13958TIP3    H263366   3.939   1.526  11.575 -0.2561  3.0145  1.0076
13959TIP3   OH263367   1.604   5.051  15.145 -0.6211  0.0022 -0.0193
13959TIP3    H163368   1.690   5.081  15.175  0.2700 -0.6129 -1.7407
13959TIP3    H263369   1.619   5.026  15.053 -2.7073  0.0905 -0.4343
13960TIP3   OH263370   2.131   4.139  10.950  0.3412 -0.3518 -0.0279
13960TIP3    H163371   2.135   4.159  10.857  0.8428 -0.4906 -0.0391
13960TIP3    H263372   2.040   4.157  10.975 -0.3251 -2.1627 -0.9517
13961TIP3   OH263373   1.616   1.403   5.177 -0.3884  0.5546 -0.2544
13961TIP3    H163374   1.710   1.412   5.197 -0.9175  0.7128  2.5979
13961TIP3    H263375   1.600   1.468   5.109  1.5796  0.4606 -0.8793
13962TIP3   OH263376   2.527   5.085  11.676 -0.4725  0.1857  0.0881
13962TIP3    H163377   2.604   5.029  11.675 -0.1137  0.6706  0.1118
13962TIP3    H263378   2.507   5.097  11.769  0.3137  1.2438  0.1463
13963TIP3   OH263379   2.609   2.768  14.176 -0.0336 -0.1708 -0.5456
13963TIP3    H163380   2.612   2.725  14.090 -0.3038  0.8263 -1.0677
13963TIP3    H263381   2.672   2.720  14.229  0.5350 -0.4614 -1.4640
13964TIP3   OH263382   5.632   0.914   2.573 -0.2901 -0.3808 -0.2692
13964TIP3    H163383   5.554   0.969   2.573  0.9472  1.4724 -0.3615
13964TIP3    H263384   5.640   0.885   2.664 -0.8702 -0.2667 -0.1783
13965TIP3   OH263385   5.776   2.241  11.943  0.3828  0.1118 -0.9281
13965TIP3    H163386   5.728   2.191  12.009  0.5295 -0.1705 -1.0348
13965TIP3    H263387   5.737   2.215  11.859 -0.3598  1.0785 -0.9048
13966TIP3   OH263388   5.506   4.137   2.698  0.4876  0.1466  0.7363
13966TIP3    H163389   5.458   4.219   2.681 -0.1205 -0.5613 -1.3318
13966TIP3    H263390   5.449   4.069   2.663  1.7701 -1.0058  0.8089
13967TIP3   OH263391   6.016   2.815  13.992 -0.0644 -0.3101 -0.7292
13967TIP3    H163392   6.060   2.890  14.033 -1.7791  1.0811 -1.3296
13967TIP3    H263393   5.977   2.768  14.066 -0.0137  0.0905 -0.4386
13968TIP3   OH263394   5.896   2.582  15.420 -0.1853 -0.4101  0.1339
13968TIP3    H163395   5.872   2.595  15.512 -0.9765 -2.3417  0.2467
13968TIP3    H263396   5.874   2.665  15.377  1.6089  1.1019  1.9020
13969TIP3   OH263397   1.294   5.735   1.105  0.1995  0.0588  0.2032
13969TIP3    H163398   1.240   5.808   1.136  0.8292  0.1377  1.1627
13969TIP3    H263399   1.256   5.658   1.146  0.5232  0.0548  0.4965
13970TIP3   OH263400   2.134   6.047   1.100 -0.0269 -0.4278 -0.6262
13970TIP3    H163401   2.154   5.996   1.022 -2.3532  0.1052 -1.6570
13970TIP3    H263402   2.175   6.132   1.085  1.1917 -0.9520 -0.3445
13971TIP3   OH263403   0.907   5.952   4.854  0.0478 -0.4004  0.7078
13971TIP3    H163404   0.951   5.998   4.926  0.1518 -1.5749  1.4221
13971TIP3    H263405   0.829   6.004   4.836  0.6245  0.5397  0.8819
13972TIP3   OH263406   4.645   1.507  11.465  0.9439 -0.1809  0.2150
13972TIP3    H163407   4.628   1.598  11.442  0.9962  0.5345  2.7186
13972TIP3    H263408   4.739   1.495  11.447  1.0071  0.3487  0.1870
13973TIP3   OH263409   2.752   2.301  16.785  0.1060 -0.1574  0.8190
13973TIP3    H163410   2.735   2.216  16.827  0.3264 -0.2204  0.7831
13973TIP3    H263411   2.679   2.313  16.725  0.3235 -0.5542  0.4640
13974TIP3   OH263412   3.456   4.410   1.520 -0.1648  0.6421  0.0675
13974TIP3    H163413   3.487   4.365   1.598  1.8917  1.6047 -0.1147
13974TIP3    H263414   3.362   4.391   1.516  0.0943 -1.1986  1.5398
13975TIP3   OH263415   0.840   6.735  14.991 -0.7790 -0.0463 -0.1684
13975TIP3    H163416   0.878   6.823  14.982 -1.6472  0.3205 -0.3998
13975TIP3    H263417   0.746   6.749  14.981 -0.9349 -0.9991 -0.1168
13976TIP3   OH263418   2.355   0.594   5.752 -0.1312 -0.4881 -0.3981
13976TIP3    H163419   2.272   0.641   5.746  0.4031  0.5663  0.1132
13976TIP3    H263420   2.338   0.520   5.810 -0.6354 -0.0947 -0.0396
13977TIP3   OH263421   0.225   4.012  15.030 -0.0422  0.1410  0.5391
13977TIP3    H163422   0.196   3.938  14.978 -0.4889  0.8762 -0.2701
13977TIP3    H263423   0.275   4.067  14.970  1.1761  0.0061  1.3739
13978TIP3   OH263424   2.684   6.054   1.817 -0.2211  0.0277 -0.0107
13978TIP3    H163425   2.598   6.087   1.791 -0.1646  0.6042  0.5026
13978TIP3    H263426   2.721   6.018   1.737 -1.0874 -0.5651 -0.1590
13979TIP3   OH263427   5.331   4.344   2.215  0.5474 -0.3481 -0.0414
13979TIP3    H163428   5.286   4.264   2.239 -0.1018 -0.1653 -0.5915
13979TIP3    H263429   5.415   4.340   2.260  0.4556 -1.2582  0.0581
13980TIP3   OH263430   1.254   0.151   3.444 -0.0656 -0.8418 -0.3982
13980TIP3    H163431   1.303   0.099   3.507 -0.0726 -0.2742  0.0817
13980TIP3    H263432   1.179   0.184   3.492 -0.4581 -0.9935 -0.9007
13981TIP3   OH263433   6.209   3.980   2.666 -0.0432 -0.1807 -0.0147
13981TIP3    H163434   6.154   3.930   2.606 -1.3527 -1.3462  2.0497
13981TIP3    H263435   6.165   4.065   2.673 -0.9639 -0.6967  0.7043
13982TIP3   OH263436   1.972   6.069  15.647 -0.4102  0.1339  0.0906
13982TIP3    H163437   2.043   6.106  15.594 -0.6444 -0.6253 -0.7935
13982TIP3    H263438   2.010   6.059  15.734  0.1776  0.8717 -0.0677
13983TIP3   OH263439   4.243   0.480   0.774  0.3261 -0.4353  1.0190
13983TIP3    H163440   4.159   0.461   0.816  0.1878 -0.1175  0.8897
13983TIP3    H263441   4.232   0.447   0.684 -0.5095  1.6849  0.2827
13984TIP3   OH263442   5.273   4.738   1.341 -0.1740  0.0362  0.3465
13984TIP3    H163443   5.241   4.657   1.301  0.5284  0.1556 -0.4858
13984TIP3    H263444   5.198   4.798   1.336 -0.6002 -0.4589  0.6994
13985TIP3   OH263445   3.083   6.642   3.272 -0.2658 -0.5851 -0.3177
13985TIP3    H163446   3.161   6.656   3.325 -0.0414 -0.5682 -0.6515
13985TIP3    H263447   3.111   6.658   3.182 -0.7658 -0.1138 -0.3979
13986TIP3   OH263448   5.947   6.296   5.561 -0.2830 -0.0415 -0.0214
13986TIP3    H163449   6.039   6.306   5.585 -0.3755 -0.5522  0.5867
13986TIP3    H263450   5.929   6.203   5.575 -1.6415  0.5125  2.7219
13987TIP3   OH263451   6.659   3.609  12.050  0.3678  0.2428  0.3102
13987TIP3    H163452   6.638   3.540  11.988 -1.1558  0.7825  0.1772
13987TIP3    H263453   6.652   3.567  12.136  0.5982 -0.0337  0.1977
13988TIP3   OH263454   3.749   0.579  12.646  1.0190 -0.0594 -0.1025
13988TIP3    H163455   3.734   0.546  12.734  0.1826  1.2462  0.2687
13988TIP3    H263456   3.732   0.505  12.589  0.3877 -0.5915  0.7641
13989TIP3   OH263457   3.142   6.588   4.287 -0.0428 -0.8044  0.5327
13989TIP3    H163458   3.054   6.624   4.282  0.5806  0.9013  1.1515
13989TIP3    H263459   3.156   6.570   4.380  1.0499  1.1414  0.7949
13990TIP3   OH263460   3.874   4.216  12.000 -0.3399  0.7943  0.1660
13990TIP3    H163461   3.935   4.198  12.072 -0.6526  0.6984  0.4105
13990TIP3    H263462   3.873   4.311  11.993  0.5655  0.7635 -0.4740
13991TIP3   OH263463   4.077   3.604  12.807  0.2857  0.2184  0.1691
13991TIP3    H163464   4.017   3.592  12.733  0.0378  2.1158  0.0041
13991TIP3    H263465   4.164   3.607  12.767  0.1106  1.8133 -0.1790
13992TIP3   OH263466   6.777   1.926  16.574 -0.0710 -0.0377  0.7174
13992TIP3    H163467   6.684   1.904  16.577  0.1515 -0.9891  0.8622
13992TIP3    H263468   6.812   1.872  16.503  0.0321  1.7067 -0.6386
13993TIP3   OH263469   1.671   5.346   0.899  0.4502  0.7863  0.0668
13993TIP3    H163470   1.719   5.422   0.865  0.6699  1.5569  1.9570
13993TIP3    H263471   1.716   5.324   0.980 -0.8080 -0.1579  0.5381
13994TIP3   OH263472   3.299   3.607   0.186  0.1351 -0.2399  0.3040
13994TIP3    H163473   3.311   3.702   0.186  1.6844 -0.3964 -0.8751
13994TIP3    H263474   3.387   3.572   0.196 -0.5486 -1.5981  2.1394
13995TIP3   OH263475   6.836   5.892   1.040  0.1595  0.0798  0.0425
13995TIP3    H163476   6.861   5.970   0.991  0.2257  0.6058  0.8858
13995TIP3    H263477   6.880   5.902   1.125  2.9405 -2.4916 -0.9195
13996TIP3   OH263478   0.550   6.380  15.377 -0.2496 -0.3916 -0.3586
13996TIP3    H163479   0.513   6.341  15.297  0.4104  1.9766 -1.9596
13996TIP3    H263480   0.479   6.436  15.410  0.6116  1.4170 -1.4155
13997TIP3   OH263481   3.321   2.052  12.750  0.7508 -0.3968  0.2041
13997TIP3    H163482   3.373   2.130  12.770 -0.0870 -0.1367  1.5432
13997TIP3    H263483   3.381   1.994  12.704  1.6361  0.6964 -0.0529
13998TIP3   OH263484   2.756   2.022  11.454  0.3078 -0.5931 -0.0681
13998TIP3    H163485   2.790   2.111  11.449 -0.4170 -0.2779  0.3675
13998TIP3    H263486   2.783   1.990  11.541 -0.4809 -0.3353  0.2871
13999TIP3   OH263487   5.030   0.154  15.657 -0.5176  0.4182 -0.1406
13999TIP3    H163488   4.974   0.175  15.731  1.1054  1.8472  0.7659
13999TIP3    H263489   5.066   0.238  15.629  1.2342 -0.4136 -0.5675
14000TIP3   OH263490   1.494   2.219  15.829 -0.3946 -0.0730 -0.0864
14000TIP3    H163491   1.574   2.214  15.775 -1.3877 -0.1499 -1.6179
14000TIP3    H263492   1.520   2.184  15.914  1.7573  1.8728  0.1402
14001TIP3   OH263493   2.493   2.167  13.915 -0.2613 -0.4216 -0.3648
14001TIP3    H163494   2.530   2.196  13.832  1.0004  0.5970  0.5287
14001TIP3    H263495   2.417   2.114  13.890  1.1053 -1.6102 -2.2158
14002TIP3   OH263496   3.870   5.258   0.291  0.6197 -0.2627  0.4015
14002TIP3    H163497   3.900   5.191   0.230 -0.6309 -0.3549 -0.1409
14002TIP3    H263498   3.841   5.210   0.368 -0.4561 -0.3743 -0.0628
14003TIP3   OH263499   4.736   0.585  12.443  0.0509 -0.4919  0.2830
14003TIP3    H163500   4.802   0.654  12.448 -1.4090  1.0324 -0.0490
14003TIP3    H263501   4.727   0.553  12.533 -1.6388  2.2455  1.2185
14004TIP3   OH263502   6.130   4.531  11.093 -0.2194  0.2823 -0.0101
14004TIP3    H163503   6.206   4.563  11.142 -1.4037  0.2989  1.9254
14004TIP3    H263504   6.142   4.436  11.090 -0.3784  0.2231  0.8096
14005TIP3   OH263505   3.536   6.341  12.580  0.8715 -0.0646 -0.2595
14005TIP3    H163506   3.478   6.358  12.655  0.0718 -2.4502 -0.2707
14005TIP3    H263507   3.552   6.428  12.543 -0.9690  0.9014  1.0367
14006TIP3   OH263508   3.836   6.828   5.779 -0.4420  0.0368  0.0474
14006TIP3    H163509   3.779   6.819   5.856 -1.8111 -0.1162 -0.9333
14006TIP3    H263510   3.787   6.785   5.708  0.8766 -0.0272 -0.8667
14007TIP3   OH263511   2.038   4.738   1.010  0.5837  0.2109  0.6215
14007TIP3    H163512   2.122   4.716   0.970 -0.0615 -1.0593 -0.0839
14007TIP3    H263513   1.987   4.778   0.940 -0.2455 -1.2422  0.3440
14008TIP3   OH263514   6.134   0.906   3.572 -0.0460  0.2113 -0.0839
14008TIP3    H163515   6.073   0.904   3.646  1.6988 -1.9696  1.4388
14008TIP3    H263516   6.128   0.995   3.538 -1.7064  0.9799  2.0154
14009TIP3   OH263517   5.363   3.448   3.887 -0.1368  0.1753 -0.0846
14009TIP3    H163518   5.445   3.493   3.909 -0.8494  1.6079 -0.3100
14009TIP3    H263519   5.326   3.423   3.971 -0.5461  1.4807  0.1333
14010TIP3   OH263520   3.504   4.300  13.046  0.2630 -0.0876  0.0935
14010TIP3    H163521   3.432   4.296  13.109  1.2059  1.1379  1.3187
14010TIP3    H263522   3.569   4.358  13.087  1.2183  0.2065 -1.7138
14011TIP3   OH263523   2.270   2.032  14.416  0.2571  0.3648 -0.4288
14011TIP3    H163524   2.245   2.118  14.451  0.6600 -0.1601  1.2468
14011TIP3    H263525   2.211   2.018  14.343 -1.3859  1.0661  0.7146
14012TIP3   OH263526   2.650   3.894  13.975  0.1254  0.0835  0.3814
14012TIP3    H163527   2.691   3.854  14.051  1.1979  1.1483  0.3909
14012TIP3    H263528   2.714   3.885  13.905  0.2310  1.4128  0.2895
14013TIP3   OH263529   4.071   1.105   5.930  0.1763 -0.7624 -0.3242
14013TIP3    H163530   4.046   1.046   6.001 -0.7611 -1.2541 -1.0339
14013TIP3    H263531   4.056   1.193   5.965  0.3499 -0.9795  0.3032
14014TIP3   OH263532   4.972   5.335  15.595  0.0224  0.3124  0.0529
14014TIP3    H163533   4.976   5.428  15.618 -0.5438  0.2131  0.5895
14014TIP3    H263534   4.892   5.327  15.543  0.4123  0.2366 -0.5407
14015TIP3   OH263535   1.709   4.274   3.376  0.6212  0.1430  0.2728
14015TIP3    H163536   1.663   4.190   3.376  1.3893 -0.2884 -0.0141
14015TIP3    H263537   1.652   4.333   3.328  1.0440 -0.7668 -1.4123
14016TIP3   OH263538   3.696   0.015  14.324  0.2614  0.1571 -0.4091
14016TIP3    H163539   3.724  -0.076  14.307 -1.2795 -0.5890  0.8222
14016TIP3    H263540   3.605   0.007  14.350  0.0954  2.0979 -0.3033
14017TIP3   OH263541   6.523   3.580  16.531  0.3748  0.6330 -0.3073
14017TIP3    H163542   6.505   3.493  16.567 -0.5783  0.6154 -0.7920
14017TIP3    H263543   6.544   3.565  16.439 -1.1321  1.0145 -0.7410
14018TIP3   OH263544   4.862   3.034   2.400  0.2968 -0.2329 -0.0370
14018TIP3    H163545   4.799   3.056   2.332  0.4771 -0.1711 -0.1855
14018TIP3    H263546   4.945   3.069   2.368  0.2126  0.6071  0.6405
14019TIP3   OH263547   3.692   2.698  11.192  0.2483  0.0180 -0.2764
14019TIP3    H163548   3.687   2.655  11.107  0.3894  0.2782 -0.4190
14019TIP3    H263549   3.784   2.696  11.216  0.0996 -0.7828  0.2553
14020TIP3   OH263550   6.468   2.242  12.850  0.1151 -0.6333  0.3250
14020TIP3    H163551   6.511   2.328  12.855 -0.8443 -0.2097  2.1595
14020TIP3    H263552   6.508   2.191  12.920 -0.7879 -0.9706  0.6030
14021TIP3   OH263553   6.072   3.873   2.421  0.0709 -0.0431 -0.0866
14021TIP3    H163554   6.087   3.794   2.370  0.6288  0.7105 -1.1197
14021TIP3    H263555   5.977   3.877   2.432  0.1217 -1.7281  1.4333
14022TIP3   OH263556   1.389   5.193   3.606 -0.1709 -0.3769  0.6932
14022TIP3    H163557   1.389   5.128   3.677  0.4601  0.6716  1.6832
14022TIP3    H263558   1.480   5.195   3.576 -0.2259 -0.0622  0.5486
14023TIP3   OH263559   4.422   4.204  11.205 -0.0696  0.6442 -0.0327
14023TIP3    H163560   4.361   4.204  11.131  0.8876  0.8870 -0.8499
14023TIP3    H263561   4.476   4.126  11.191  0.0349  0.6274  0.4701
14024TIP3   OH263562   6.633   1.034  14.449  0.6406 -0.2274 -0.2600
14024TIP3    H163563   6.603   1.119  14.481 -0.2615 -0.2359 -1.0434
14024TIP3    H263564   6.659   1.050  14.358 -2.9900 -1.4227 -1.7028
14025TIP3   OH263565   6.134   0.690   2.996 -0.0073 -0.0602 -0.1722
14025TIP3    H163566   6.072   0.648   2.937 -2.7066 -1.4833  3.2884
14025TIP3    H263567   6.203   0.625   3.008 -0.3009 -0.4361 -0.4959
14026TIP3   OH263568   1.374   6.583   2.360 -0.1869  0.2246  0.4258
14026TIP3    H163569   1.327   6.623   2.434 -0.5359  0.0565  0.3012
14026TIP3    H263570   1.304   6.550   2.303  0.0651  1.1492 -0.4304
14027TIP3   OH263571   3.849   1.269  12.219  0.4316  0.4041  0.2217
14027TIP3    H163572   3.933   1.288  12.178  0.9342 -1.2259  0.4151
14027TIP3    H263573   3.864   1.283  12.313  0.9507 -1.2497  0.4233
14028TIP3   OH263574   3.472   2.111   4.563 -0.2413  0.1391  0.6677
14028TIP3    H163575   3.565   2.114   4.586  0.0370 -2.3580  0.0833
14028TIP3    H263576   3.442   2.027   4.596 -2.6928  1.4522  2.0705
14029TIP3   OH263577   3.102   5.963   4.297  0.1397 -0.3044  0.4127
14029TIP3    H163578   3.184   5.983   4.252 -0.0958  0.2711  0.2226
14029TIP3    H263579   3.035   5.976   4.230 -0.1319 -0.4668  0.6523
14030TIP3   OH263580   1.583   3.111  16.078 -0.2446 -0.7648  0.5313
14030TIP3    H163581   1.615   3.025  16.052 -0.2212 -0.2941 -1.1284
14030TIP3    H263582   1.654   3.171  16.055 -1.7174  0.1432 -2.0556
14031TIP3   OH263583   2.792   1.760  13.171  0.1046  0.2755  0.1306
14031TIP3    H163584   2.760   1.784  13.258 -1.0314  0.9451 -0.4464
14031TIP3    H263585   2.713   1.742  13.121  0.5783  2.1020 -1.3887
14032TIP3   OH263586   2.688   1.664  11.352  0.0807 -0.4176  0.3809
14032TIP3    H163587   2.711   1.583  11.397  0.2201 -1.8141 -2.0125
14032TIP3    H263588   2.595   1.676  11.370 -0.1824 -1.6898 -0.0130
14033TIP3   OH263589   1.579   1.078  16.013 -0.1106 -0.1084  0.3417
14033TIP3    H163590   1.485   1.068  15.994 -0.4975  0.8188  1.6655
14033TIP3    H263591   1.584   1.087  16.108  1.2889  0.2701  0.2580
14034TIP3   OH263592   0.262   4.878  12.735  0.6082 -0.1086 -0.0966
14034TIP3    H163593   0.176   4.885  12.693  0.0858  3.1051  1.2271
14034TIP3    H263594   0.319   4.934  12.682  1.4812 -0.8728  0.0092
14035TIP3   OH263595   3.962   1.908  14.068 -0.3179 -0.0720  0.5573
14035TIP3    H163596   4.023   1.836  14.081  0.7015  0.6908  0.1951
14035TIP3    H263597   3.919   1.919  14.152 -0.6980 -1.2848  0.5258
14036TIP3   OH263598   4.492   2.818   0.582 -0.1257 -0.5485  0.1178
14036TIP3    H163599   4.525   2.730   0.562 -0.3865 -0.7677  0.6495
14036TIP3    H263600   4.452   2.810   0.668 -0.8585 -0.0979 -0.1692
14037TIP3   OH263601   5.692   6.793  10.614  0.2962  0.5272 -0.4207
14037TIP3    H163602   5.694   6.865  10.551  0.6623 -0.6447 -1.8004
14037TIP3    H263603   5.612   6.745  10.592 -0.4075  0.9589  1.0485
14038TIP3   OH263604   6.786   1.141   4.522 -0.1419 -0.1425 -0.1135
14038TIP3    H163605   6.709   1.088   4.542  0.6106 -0.9059  0.9235
14038TIP3    H263606   6.817   1.170   4.608  0.1938  0.9431 -0.5823
14039TIP3   OH263607   6.630   1.061   1.567  0.1132  0.1406 -0.2207
14039TIP3    H163608   6.673   1.063   1.481 -0.0136 -0.3034 -0.2977
14039TIP3    H263609   6.686   1.115   1.623  0.7967 -0.4518 -0.3186
14040TIP3   OH263610   5.238   5.376  16.339 -0.2737  0.0960 -0.7555
14040TIP3    H163611   5.225   5.421  16.256  0.4839  2.2785  0.2328
14040TIP3    H263612   5.320   5.328  16.329  1.0622  2.2438 -0.5571
14041TIP3   OH263613   2.074   1.796  17.085  0.1665 -0.0475 -0.4261
14041TIP3    H163614   1.998   1.783  17.028  1.4848  0.1822 -2.3288
14041TIP3    H263615   2.102   1.707  17.108 -0.2139 -0.1455 -0.3290
14042TIP3   OH263616   5.056   4.701   1.773  0.0988 -0.3402 -0.1926
14042TIP3    H163617   5.086   4.753   1.848  0.3307  1.6342 -1.5867
14042TIP3    H263618   4.988   4.755   1.733 -2.0103 -2.6056  0.1242
14043TIP3   OH263619   2.391   1.319   4.524  0.1157 -0.6634  0.4104
14043TIP3    H163620   2.387   1.236   4.570  0.4317 -0.7805  0.2236
14043TIP3    H263621   2.304   1.328   4.485 -0.1827 -0.5219  1.0955
14044TIP3   OH263622   3.301   1.678   5.329  0.5694 -0.2458 -0.7587
14044TIP3    H163623   3.218   1.724   5.312  0.9151  0.0980 -1.5539
14044TIP3    H263624   3.274   1.591   5.359 -0.1394  0.9602  2.4746
14045TIP3   OH263625   1.177   4.900   1.155 -0.2046  0.5302 -0.1028
14045TIP3    H163626   1.216   4.969   1.208  0.9490 -1.2631  1.5149
14045TIP3    H263627   1.091   4.934   1.131  0.1717  2.3485  0.9262
14046TIP3   OH263628   6.226   4.999  15.568  0.0736  0.0785  0.4692
14046TIP3    H163629   6.229   5.089  15.535 -1.4049 -1.1379 -3.6384
14046TIP3    H263630   6.135   4.985  15.590  0.4850 -0.1573  2.1109
14047TIP3   OH263631   4.886   3.869  15.589 -0.8308 -0.2867  0.7420
14047TIP3    H163632   4.794   3.845  15.576 -0.6638 -0.1746 -0.8056
14047TIP3    H263633   4.886   3.965  15.584 -0.4532 -0.3457 -0.6353
14048TIP3   OH263634   0.969   5.250  14.977  0.7736 -0.2332  0.4834
14048TIP3    H163635   1.025   5.212  14.909 -0.7905 -0.2308 -0.8883
14048TIP3    H263636   1.002   5.340  14.987  1.2946 -0.3656  0.0264
14049TIP3   OH263637   2.120   3.354  15.243  0.2759 -0.4192  0.2863
14049TIP3    H163638   2.043   3.298  15.257  0.4069 -0.1165  2.7512
14049TIP3    H263639   2.194   3.298  15.265  0.5986 -0.0811  0.0577
14050TIP3   OH263640   1.389   0.691   6.136  0.3628  0.5416  0.4015
14050TIP3    H163641   1.451   0.694   6.062  0.0742 -0.2279  0.1141
14050TIP3    H263642   1.323   0.757   6.114  0.8463  1.0667  0.5001
14051TIP3   OH263643   6.228   6.848   2.764  0.1424 -0.3423 -0.2465
14051TIP3    H163644   6.290   6.914   2.732  0.9051 -1.1289 -0.4150
14051TIP3    H263645   6.205   6.797   2.687 -1.9577  0.8911 -0.5126
14052TIP3   OH263646   5.773   4.484   5.447 -0.1488 -0.1007  0.4962
14052TIP3    H163647   5.800   4.434   5.524  1.3612  0.9750  0.6977
14052TIP3    H263648   5.830   4.453   5.377 -1.0426 -0.5695 -0.0511
14053TIP3   OH263649   4.355   4.420   1.896  0.2601  0.0841  0.4136
14053TIP3    H163650   4.353   4.495   1.837 -1.3949 -0.3658 -0.1539
14053TIP3    H263651   4.404   4.450   1.972  2.9772  0.5089 -1.3722
14054TIP3   OH263652   2.604   0.622   3.343  0.2982 -0.7479  0.3612
14054TIP3    H163653   2.551   0.611   3.264  1.8713 -0.2537 -0.8061
14054TIP3    H263654   2.599   0.537   3.387 -2.2912 -0.4154  0.8858
14055TIP3   OH263655   1.391   0.111   4.730  0.2175  0.1979 -0.2712
14055TIP3    H163656   1.396   0.175   4.659  0.2392  0.7057  0.1786
14055TIP3    H263657   1.346   0.158   4.801  0.7115 -0.1101  0.2569
14056TIP3   OH263658   3.401   0.424  15.877  0.0611  0.3632 -0.2286
14056TIP3    H163659   3.318   0.458  15.842 -0.9023 -2.1361 -0.6228
14056TIP3    H263660   3.448   0.501  15.906 -1.9568  1.9843 -0.9832
14057TIP3   OH263661   2.319   5.682  14.529 -0.4067 -0.3498  0.0203
14057TIP3    H163662   2.345   5.590  14.532  1.4594  0.0958  3.5127
14057TIP3    H263663   2.237   5.686  14.577  0.2324 -0.0815  1.1304
14058TIP3   OH263664   5.293   2.096   0.208  0.0103 -0.0242 -0.2954
14058TIP3    H163665   5.298   2.004   0.236  1.5433  0.5395  1.5133
14058TIP3    H263666   5.271   2.092   0.115  0.7793 -2.2592 -0.4351
14059TIP3   OH263667   3.638   0.955  15.498 -0.1896  0.0836 -0.5024
14059TIP3    H163668   3.599   0.973  15.413 -0.9978 -0.0539 -0.1702
14059TIP3    H263669   3.658   1.041  15.534  1.0319  0.1207 -1.2124
14060TIP3   OH263670   5.583   0.633  14.424  0.0400  0.5350 -0.0930
14060TIP3    H163671   5.552   0.549  14.390 -2.1946  1.4303 -0.4334
14060TIP3    H263672   5.652   0.660  14.363 -1.4572  0.4445 -1.9075
14061TIP3   OH263673   1.929   4.608   2.958  0.0489  0.2772  0.2249
14061TIP3    H163674   1.867   4.628   3.027 -2.3114 -0.4506 -1.5584
14061TIP3    H263675   1.935   4.512   2.958 -2.6043 -0.0433 -2.5491
14062TIP3   OH263676   0.646   4.530   2.492  0.3599  0.1508 -0.0899
14062TIP3    H163677   0.707   4.461   2.515  0.0997  0.7431  2.7760
14062TIP3    H263678   0.692   4.582   2.425  1.5279 -1.3576 -0.5063
14063TIP3   OH263679   2.262   2.988   3.754 -0.2065  0.0994  0.2953
14063TIP3    H163680   2.329   2.957   3.814 -0.6140 -1.2417  0.0770
14063TIP3    H263681   2.184   3.000   3.808 -0.4840 -0.7975  0.1058
14064TIP3   OH263682   1.622   5.755   4.209 -0.0204  0.2060  0.8007
14064TIP3    H163683   1.670   5.673   4.206 -0.6260 -0.1239 -0.3916
14064TIP3    H263684   1.667   5.813   4.148 -0.2130  0.4155  0.8538
14065TIP3   OH263685   6.377   5.284  12.420  0.1298 -0.2982  0.4822
14065TIP3    H163686   6.338   5.266  12.334  0.5247 -0.5237  0.3497
14065TIP3    H263687   6.470   5.266  12.409  0.3186  0.4879  0.7294
14066TIP3   OH263688   1.873   0.385  10.817 -0.4835  0.0336  1.0568
14066TIP3    H163689   1.797   0.342  10.777  0.4218 -0.1069 -0.6005
14066TIP3    H263690   1.942   0.320  10.813  0.5232  1.1177 -0.1897
14067TIP3   OH263691   6.753   2.315  13.069  0.1131 -0.7744  0.4299
14067TIP3    H163692   6.666   2.278  13.052 -0.4572  0.5407  0.4248
14067TIP3    H263693   6.766   2.381  13.001 -0.0870  1.0142  2.0600
14068TIP3   OH263694   1.544   5.556   5.672  0.3155 -0.0758  0.0747
14068TIP3    H163695   1.599   5.602   5.608  0.8693  0.0818  0.6467
14068TIP3    H263696   1.564   5.464   5.659 -0.7448 -0.1647 -1.0296
14069TIP3   OH263697   3.761   4.319  13.484  0.2137  0.1886  0.0154
14069TIP3    H163698   3.807   4.402  13.494  2.2920 -0.9724  0.7861
14069TIP3    H263699   3.825   4.261  13.443 -1.1023 -1.0994 -0.2792
14070TIP3   OH263700   0.317   6.662  10.955 -0.8287 -0.0703  0.4250
14070TIP3    H163701   0.253   6.600  10.922 -2.7474  2.2593 -0.5534
14070TIP3    H263702   0.304   6.662  11.050 -1.6948 -0.2298  0.3102
14071TIP3   OH263703   6.483   4.313  14.217 -0.2869  0.2802 -0.1211
14071TIP3    H163704   6.510   4.400  14.247 -0.5878  0.5476 -0.6116
14071TIP3    H263705   6.406   4.293  14.270 -0.2498  0.3392 -0.0454
14072TIP3   OH263706   4.544   4.563  11.197 -0.6727 -0.6486  0.1057
14072TIP3    H163707   4.470   4.578  11.255  0.5228  0.4889  1.3967
14072TIP3    H263708   4.586   4.484  11.231 -0.4080 -0.4073  0.3493
14073TIP3   OH263709   6.318   6.611  11.499 -0.7315  0.0799  0.5310
14073TIP3    H163710   6.335   6.698  11.462 -1.0946 -0.1835 -0.2795
14073TIP3    H263711   6.237   6.583  11.456  1.2363 -2.1967 -2.0502
14074TIP3   OH263712   0.597   2.491  14.670 -0.2967 -0.6917  0.1611
14074TIP3    H163713   0.690   2.511  14.662 -0.4276  0.2263  0.8636
14074TIP3    H263714   0.594   2.397  14.688  0.5325 -0.5740  0.9394
14075TIP3   OH263715   2.088   4.723   2.764  0.1564 -0.7337 -0.4752
14075TIP3    H163716   2.016   4.695   2.821 -0.1823 -0.5470 -0.8101
14075TIP3    H263717   2.101   4.815   2.786  2.2245 -1.4454  1.6629
14076TIP3   OH263718   1.280   6.670  14.264 -0.3246 -0.1213 -0.6738
14076TIP3    H163719   1.319   6.751  14.297 -0.5976  0.2135 -1.1620
14076TIP3    H263720   1.323   6.601  14.314 -0.6135  0.3617  0.2680
14077TIP3   OH263721   1.183   0.792  16.497 -0.1720  0.4340 -0.2318
14077TIP3    H163722   1.097   0.752  16.508 -0.5310  0.8812 -1.2618
14077TIP3    H263723   1.245   0.721  16.514 -0.7416  0.1160  0.5438
14078TIP3   OH263724   0.588   6.260  14.927 -0.5789  0.3997  0.1605
14078TIP3    H163725   0.499   6.243  14.894 -1.4842  2.2122  1.5231
14078TIP3    H263726   0.591   6.354  14.941  2.1742  0.6438 -1.4296
14079TIP3   OH263727   3.478   4.979  10.893 -0.2625 -0.3323  0.0318
14079TIP3    H163728   3.410   4.999  10.828  1.3986  2.4162 -1.0387
14079TIP3    H263729   3.545   4.932  10.843  0.0420 -0.1567  0.2702
14080TIP3   OH263730   5.180   6.840  16.480  0.1483 -0.1491  0.2071
14080TIP3    H163731   5.265   6.883  16.476 -0.4681  1.8303  3.7876
14080TIP3    H263732   5.163   6.830  16.574 -3.4334 -0.6849 -0.3620
14081TIP3   OH263733   5.873   0.496  14.420 -0.0356 -0.0029  0.1137
14081TIP3    H163734   5.846   0.568  14.363  0.0144  0.5511  0.7743
14081TIP3    H263735   5.879   0.421  14.362 -0.8767  0.3459 -0.4478
14082TIP3   OH263736   0.723   6.456   1.300 -0.0214 -0.2236  0.1093
14082TIP3    H163737   0.787   6.465   1.229 -0.3879 -1.1953 -0.3624
14082TIP3    H263738   0.763   6.502   1.373  0.2176  1.0914 -0.8103
14083TIP3   OH263739   0.862   2.719  16.935  0.2308  0.5518 -0.1847
14083TIP3    H163740   0.872   2.669  17.016 -1.3775 -1.0787 -0.9432
14083TIP3    H263741   0.924   2.792  16.945  0.8128 -0.1584  2.0509
14084TIP3   OH263742   5.781   5.513  15.458  0.3760 -0.1632  0.7194
14084TIP3    H163743   5.716   5.577  15.485  1.8523  2.1016 -0.7869
14084TIP3    H263744   5.753   5.485  15.371  0.1339 -1.0751  1.0731
14085TIP3   OH263745   6.763   4.057   0.035 -0.1913  0.3593  0.2131
14085TIP3    H163746   6.673   4.090   0.027 -0.0001  0.9843  0.5449
14085TIP3    H263747   6.770   4.032   0.127 -0.4555 -1.0126 -0.1144
14086TIP3   OH263748   2.753   3.822   1.494 -0.2810  0.6845  0.3423
14086TIP3    H163749   2.765   3.876   1.573  1.0113 -0.7592  1.1904
14086TIP3    H263750   2.727   3.737   1.527 -2.7898  0.8455 -1.0138
14087TIP3   OH263751   4.169   1.613  17.104  0.4926 -0.2465  0.6007
14087TIP3    H163752   4.218   1.566  17.171 -0.7736 -0.2392  1.5809
14087TIP3    H263753   4.151   1.698  17.143  0.9029  0.2736 -0.3072
14088TIP3   OH263754   6.611   5.746  15.626 -0.1218 -0.0977  0.2147
14088TIP3    H163755   6.556   5.702  15.562 -0.4380  0.9202 -0.2261
14088TIP3    H263756   6.591   5.839  15.615  1.6274  0.2925  0.0947
14089TIP3   OH263757   6.709   6.541  12.988  0.2208 -0.4032  0.3258
14089TIP3    H163758   6.689   6.544  12.894  0.1894 -0.8343  0.3188
14089TIP3    H263759   6.701   6.449  13.011  0.4731 -0.3293  0.7009
14090TIP3   OH263760   2.497   2.503   4.367  0.0322  0.1218  0.4614
14090TIP3    H163761   2.539   2.511   4.453 -1.0293 -0.2574  1.0393
14090TIP3    H263762   2.414   2.549   4.376 -0.7937 -1.2474  0.1374
14091TIP3   OH263763   5.841   4.236   4.778  0.1848  0.1296 -0.5048
14091TIP3    H163764   5.812   4.166   4.719 -0.8910 -0.0467  0.2017
14091TIP3    H263765   5.865   4.308   4.719 -0.2510 -0.2609 -1.1807
14092TIP3   OH263766   1.500   3.029   5.377 -0.2290  0.3652  0.2514
14092TIP3    H163767   1.437   2.988   5.317 -2.7838  2.2033  1.4745
14092TIP3    H263768   1.517   3.115   5.338 -0.1017  0.6712  0.9627
14093TIP3   OH263769   1.021   1.376   5.809  0.4371 -0.6700 -0.2064
14093TIP3    H163770   1.078   1.328   5.749  0.1388  1.1175 -2.0086
14093TIP3    H263771   1.049   1.467   5.801  0.0718 -0.3148  2.0761
14094TIP3   OH263772   1.098   4.970  13.136 -0.3840  0.4903  0.2712
14094TIP3    H163773   1.064   5.059  13.148 -1.9362 -0.1315  0.7079
14094TIP3    H263774   1.141   4.950  13.218 -2.7893 -0.2756  1.4466
14095TIP3   OH263775   5.208   5.888  14.941  0.4037  0.5341 -0.8516
14095TIP3    H163776   5.141   5.851  14.885  0.9411  0.3761 -1.4037
14095TIP3    H263777   5.266   5.814  14.962  0.2837  0.6169 -0.1922
14096TIP3   OH263778   0.504   6.314  11.674 -0.1047  0.2555 -0.0128
14096TIP3    H163779   0.561   6.255  11.624 -0.4907  0.7162 -1.0359
14096TIP3    H263780   0.565   6.371  11.722  0.2740 -0.3741  0.2602
14097TIP3   OH263781   3.127   4.421  13.000 -0.5227 -0.3040 -0.4014
14097TIP3    H163782   3.141   4.391  13.090  1.3672  0.1197 -0.4990
14097TIP3    H263783   3.113   4.340  12.950  0.7785 -0.7647 -0.0715
14098TIP3   OH263784   3.705   0.867  13.406 -0.5353 -0.1004  0.5740
14098TIP3    H163785   3.783   0.863  13.461  0.7973 -2.3758 -1.3054
14098TIP3    H263786   3.658   0.786  13.425 -1.9525  0.7702  0.9215
14099TIP3   OH263787   0.963   2.959   2.003  0.5446 -1.1017 -0.0934
14099TIP3    H163788   0.923   3.013   1.934  0.6032  1.6857  1.9035
14099TIP3    H263789   1.056   2.956   1.980  1.1714  2.5150  1.3243
14100TIP3   OH263790   0.612   0.937  14.133  0.0518  0.1841 -0.3420
14100TIP3    H163791   0.695   0.933  14.086 -0.0312 -1.0126 -0.4248
14100TIP3    H263792   0.552   0.980  14.073  0.5611  0.8812 -0.3545
14101TIP3   OH263793   1.986   0.302  12.023 -0.0968  0.0131  0.3933
14101TIP3    H163794   1.946   0.215  12.029  0.3676 -0.2108  0.2768
14101TIP3    H263795   1.965   0.332  11.934  0.4758 -0.3486  0.1282
14102TIP3   OH263796   2.780   2.751   3.473 -0.3983 -0.0749 -0.1946
14102TIP3    H163797   2.782   2.797   3.557  0.0324  0.9468 -0.7466
14102TIP3    H263798   2.746   2.816   3.411  0.4384 -0.4280 -1.0419
14103TIP3   OH263799   3.257   3.770   1.424  0.4274 -0.1313  0.0980
14103TIP3    H163800   3.236   3.803   1.337  0.1907 -1.2411 -0.2764
14103TIP3    H263801   3.175   3.780   1.474 -0.2058 -1.8198 -0.5458
14104TIP3   OH263802   6.332   0.015  12.826 -0.1188 -0.1040 -0.0694
14104TIP3    H163803   6.339   0.009  12.731  1.1962  3.0717 -0.2662
14104TIP3    H263804   6.409  -0.032  12.858 -0.7325 -1.4637 -0.4853
14105TIP3   OH263805   1.215   5.014   0.467 -0.6119  0.2216  0.3000
14105TIP3    H163806   1.251   4.982   0.385 -0.0731 -0.4341  0.7783
14105TIP3    H263807   1.269   4.974   0.535 -0.7290  1.1485  0.9677
14106TIP3   OH263808   0.101   6.207   4.655 -0.0739 -0.2324  0.4372
14106TIP3    H163809   0.143   6.121   4.661 -0.2235 -0.2575  1.1471
14106TIP3    H263810   0.007   6.187   4.651 -0.0605 -0.1465 -0.4635
14107TIP3   OH263811   4.174   0.767   0.528 -0.6119 -0.1052  0.4723
14107TIP3    H163812   4.112   0.829   0.488 -1.0908 -1.2990 -0.7451
14107TIP3    H263813   4.159   0.686   0.480  0.8912 -0.8223  1.1669
14108TIP3   OH263814   6.026   5.144  13.911  0.2320  0.0435  0.3470
14108TIP3    H163815   6.086   5.170  13.980 -0.0071 -0.6586  0.8241
14108TIP3    H263816   5.944   5.189  13.934 -0.0140 -0.6490  0.8493
14109TIP3   OH263817   1.931   5.700  11.758  0.1456 -0.4721 -0.0520
14109TIP3    H163818   1.851   5.647  11.752  0.5924 -1.2060  0.3369
14109TIP3    H263819   1.956   5.716  11.667  0.2641 -1.3387 -0.1825
14110TIP3   OH263820   1.903   0.325   0.708 -0.3124  0.0811 -0.5215
14110TIP3    H163821   1.870   0.237   0.689  1.5932 -0.3140 -2.4551
14110TIP3    H263822   1.920   0.363   0.622  0.4946  1.7106  0.3132
14111TIP3   OH263823   1.789   4.961  12.786  0.2524 -0.0243  0.3472
14111TIP3    H163824   1.851   5.006  12.729 -1.0293  2.0241  0.5000
14111TIP3    H263825   1.708   5.011  12.780 -0.5418 -0.9292  2.3802
14112TIP3   OH263826   1.013   0.905   1.226 -0.1145 -0.3087 -0.1823
14112TIP3    H163827   1.012   0.907   1.131 -1.9160 -2.4406 -0.3053
14112TIP3    H263828   0.958   0.979   1.253  1.8893  1.4486 -0.6426
14113TIP3   OH263829   0.247   4.077   0.917  0.3332 -0.1089  0.6336
14113TIP3    H163830   0.300   4.069   0.838 -0.6063 -0.7469  0.0429
14113TIP3    H263831   0.212   4.166   0.915  1.1974  0.2435  0.9190
14114TIP3   OH263832   2.079   5.172   4.028 -0.1250  0.6687  0.1701
14114TIP3    H163833   2.154   5.134   3.983  0.5632  2.1493  0.0082
14114TIP3    H263834   2.015   5.101   4.032 -0.1547  0.3444 -2.9698
14115TIP3   OH263835   6.624   5.995   3.051 -0.3375 -0.4573 -0.2501
14115TIP3    H163836   6.578   5.936   2.992 -1.0353  1.9657 -2.2886
14115TIP3    H263837   6.602   5.963   3.139 -0.4398 -3.3120 -1.2371
14116TIP3   OH263838   3.043   5.234  14.835 -0.0664  0.4683  0.0823
14116TIP3    H163839   3.070   5.321  14.807 -2.5813  1.3022 -0.0426
14116TIP3    H263840   3.110   5.175  14.801  2.6130  2.4371  1.5714
14117TIP3   OH263841   2.693   5.230   6.466 -0.1322 -0.0066  0.0361
14117TIP3    H163842   2.756   5.212   6.536 -0.2280 -1.6627 -0.2600
14117TIP3    H263843   2.736   5.296   6.411  0.0559  1.1164  1.4721
14118TIP3   OH263844   4.295   3.542   1.656 -0.1814 -0.1043 -0.2772
14118TIP3    H163845   4.219   3.485   1.663 -0.7279  0.7505  1.2780
14118TIP3    H263846   4.291   3.577   1.568 -1.0350 -0.8231 -0.5367
14119TIP3   OH263847   3.730   5.944   2.950 -0.1383  0.2587  0.2838
14119TIP3    H163848   3.650   5.987   2.919  0.4601  0.6149 -0.8147
14119TIP3    H263849   3.782   5.931   2.871  2.0635  2.4500  1.2427
14120TIP3   OH263850   2.301   1.529  14.202 -0.0170 -0.3817  0.0925
14120TIP3    H163851   2.377   1.542  14.145 -0.1054  1.4947  0.3515
14120TIP3    H263852   2.228   1.518  14.142 -0.4551  3.5125 -0.3733
14121TIP3   OH263853   6.600   3.528  14.513  0.2030  0.3667  0.1018
14121TIP3    H163854   6.593   3.544  14.419 -0.2843  2.6007  0.4657
14121TIP3    H263855   6.692   3.542  14.533  0.2934 -0.0392 -0.0107
14122TIP3   OH263856   1.377   2.349  11.023 -0.3479 -0.6914  0.5939
14122TIP3    H163857   1.350   2.431  10.980 -0.6397  0.2469  2.4227
14122TIP3    H263858   1.401   2.291  10.952 -0.9631  0.7038 -0.8209
14123TIP3   OH263859   1.671   0.231   0.216 -0.2059  0.0312 -0.0544
14123TIP3    H163860   1.580   0.260   0.218 -0.9006 -1.9878  0.9450
14123TIP3    H263861   1.669   0.150   0.165  0.6375 -1.0823  1.5910
14124TIP3   OH263862   5.898   4.860  10.656  0.3017  0.6283  0.6795
14124TIP3    H163863   5.860   4.838  10.741 -2.6287  1.3900 -0.2805
14124TIP3    H263864   5.884   4.955  10.648  1.5192  0.7536 -0.2148
14125TIP3   OH263865   1.290   4.904  10.487 -0.4074 -0.2011  0.1706
14125TIP3    H163866   1.273   4.875  10.398  0.8058  1.6415 -0.7479
14125TIP3    H263867   1.323   4.994  10.477  1.0625 -0.3979  2.3567
14126TIP3   OH263868   4.052   3.447   0.359 -0.1421  0.5384 -0.0469
14126TIP3    H163869   4.102   3.528   0.360  0.9853 -0.1235 -0.8913
14126TIP3    H263870   4.072   3.407   0.275 -0.9410 -0.4650  0.2130
14127TIP3   OH263871   6.598   4.824  12.457  0.1887 -0.2270 -0.4612
14127TIP3    H163872   6.620   4.899  12.511 -0.5001 -1.0057  0.9386
14127TIP3    H263873   6.539   4.771  12.510  1.0607 -2.0408 -1.1868
14128TIP3   OH263874   6.372   3.953   2.876 -0.4440 -0.3132  0.4678
14128TIP3    H163875   6.316   3.940   2.800  1.1150  1.8176 -1.1622
14128TIP3    H263876   6.316   3.999   2.939 -1.8044 -2.2618  0.7827
14129TIP3   OH263877   4.335   0.841  12.218 -0.2646  0.4179 -0.1920
14129TIP3    H163878   4.290   0.776  12.272  0.3123 -0.9063 -1.2509
14129TIP3    H263879   4.424   0.845  12.254 -0.4932  1.1464  0.3046
14130TIP3   OH263880   4.973   1.358  14.068  0.3328 -0.3847  0.0386
14130TIP3    H163881   4.927   1.300  14.007  2.7521 -0.4972 -1.8215
14130TIP3    H263882   5.010   1.299  14.133  1.3974 -0.7899 -0.9070
14131TIP3   OH263883   2.817   1.165   0.243  0.2410  0.4655 -0.2265
14131TIP3    H163884   2.814   1.073   0.215  1.8245  0.2285  0.3148
14131TIP3    H263885   2.766   1.167   0.324  1.2583 -0.2148  0.4539
14132TIP3   OH263886   2.934   1.358  15.884 -0.0904  0.4138 -0.3761
14132TIP3    H163887   3.005   1.412  15.849  0.2949 -0.4806 -0.9964
14132TIP3    H263888   2.857   1.386  15.835 -0.2352  1.5594  0.4680
14133TIP3   OH263889   0.055   5.316   4.173  0.1373  0.0811 -0.0736
14133TIP3    H163890   0.088   5.397   4.212 -2.1957  0.9066  0.3855
14133TIP3    H263891   0.025   5.342   4.086 -2.0169  0.1219  0.6309
14134TIP3   OH263892   3.187   4.285  11.048  0.1867 -0.0432 -0.2876
14134TIP3    H163893   3.107   4.262  11.001 -1.0307  3.0990  0.0131
14134TIP3    H263894   3.251   4.304  10.980 -1.1391  3.0704 -0.8195
14135TIP3   OH263895   2.029   3.088   5.859 -0.1861 -0.0975 -0.4552
14135TIP3    H163896   1.974   3.111   5.784 -2.3903 -0.5789  0.9244
14135TIP3    H263897   2.037   3.169   5.908  0.9646  0.1337 -0.9944
14136TIP3   OH263898   5.522   2.101   3.905  0.1368 -0.6659 -0.1697
14136TIP3    H163899   5.460   2.066   3.842  0.2144  1.2334 -1.3891
14136TIP3    H263900   5.527   2.194   3.884  2.6529 -0.5734  0.5103
14137TIP3   OH263901   2.289   0.231   0.372 -0.1723  0.1614  0.7311
14137TIP3    H163902   2.236   0.177   0.314  1.8226  1.3717 -2.5249
14137TIP3    H263903   2.323   0.170   0.438 -2.4984 -1.3181  0.6606
14138TIP3   OH263904   6.314   1.770   2.038  1.2021  0.1758 -0.6954
14138TIP3    H163905   6.332   1.839   1.974  1.2686  0.4555 -0.3766
14138TIP3    H263906   6.369   1.793   2.114 -0.0450  0.7253  0.0718
14139TIP3   OH263907   2.346   3.288  10.562 -0.0534  0.2803 -0.6970
14139TIP3    H163908   2.435   3.320  10.545 -0.3144  2.0080  0.8799
14139TIP3    H263909   2.357   3.218  10.626  0.2755 -0.6315 -1.7297
14140TIP3   OH263910   2.656   2.898  12.232 -0.5882  0.0147  0.5427
14140TIP3    H163911   2.608   2.817  12.246 -1.4454  0.5730  0.9468
14140TIP3    H263912   2.642   2.919  12.140  0.6540 -0.9080  0.1087
14141TIP3   OH263913   0.125   4.403   2.168 -0.1614  0.0927  0.1024
14141TIP3    H163914   0.054   4.437   2.223  0.9437  2.7834  0.0230
14141TIP3    H263915   0.116   4.452   2.086  2.1384  0.9980  0.3291
14142TIP3   OH263916   3.788   5.969   4.995  0.4904 -0.0661  0.0836
14142TIP3    H163917   3.750   5.959   4.908  0.1115  1.3373  0.0614
14142TIP3    H263918   3.858   6.033   4.984  0.5913 -0.0510  0.7680
14143TIP3   OH263919   4.569   3.903  11.364 -0.2803 -0.9047 -0.1596
14143TIP3    H163920   4.585   3.932  11.454  0.5638 -0.2511 -0.4977
14143TIP3    H263921   4.550   3.809  11.371 -0.3835 -0.8220  0.7091
14144TIP3   OH263922   0.341   2.714  16.019  0.2008  0.2386 -0.1910
14144TIP3    H163923   0.318   2.807  16.023  0.2637  0.3123 -1.1566
14144TIP3    H263924   0.437   2.713  16.018  0.3620 -0.0531  3.5360
14145TIP3   OH263925   4.612   1.619  16.100 -0.0565 -0.2488 -0.0932
14145TIP3    H163926   4.575   1.532  16.087  1.7076 -1.7594  3.5187
14145TIP3    H263927   4.695   1.617  16.052 -0.0416 -0.5627 -0.0550
14146TIP3   OH263928   0.403   2.628   4.430 -0.0187  0.1228  0.1262
14146TIP3    H163929   0.396   2.674   4.514  0.7750  0.3440  0.0812
14146TIP3    H263930   0.483   2.662   4.390 -0.6516  0.3820 -0.9570
14147TIP3   OH263931   2.567   3.994   3.860 -0.3435  0.0483 -0.2336
14147TIP3    H163932   2.568   4.067   3.798  0.5215  0.7619  0.6000
14147TIP3    H263933   2.571   4.035   3.946  0.2210 -0.9741  0.2463
14148TIP3   OH263934   1.912   2.930  14.172 -0.3278  0.5491  0.6024
14148TIP3    H163935   1.939   2.903  14.260 -0.4764  1.9833  1.1094
14148TIP3    H263936   1.947   3.018  14.161  0.2866  0.1399 -1.0712
14149TIP3   OH263937   4.595   6.133  12.814  0.3479  0.2475  0.4727
14149TIP3    H163938   4.551   6.068  12.760 -2.1552  0.8749  1.6023
14149TIP3    H263939   4.589   6.214  12.763  0.4821  0.2600  0.4784
14150TIP3   OH263940   1.793   1.095   1.805  0.0170  0.7155  0.2001
14150TIP3    H163941   1.767   1.004   1.794  1.4560  0.4029 -0.9586
14150TIP3    H263942   1.718   1.146   1.775 -0.4960 -0.0938  0.0933
14151TIP3   OH263943   5.443   4.565  15.211 -0.4834 -0.3609 -0.5481
14151TIP3    H163944   5.415   4.649  15.248  0.1374 -1.6599  3.3252
14151TIP3    H263945   5.489   4.589  15.131 -2.0510  2.7964 -0.6516
14152TIP3   OH263946   4.459   6.532  10.817 -0.2929 -0.5743  0.0651
14152TIP3    H163947   4.396   6.603  10.830 -0.4008 -0.2833 -1.7583
14152TIP3    H263948   4.437   6.468  10.885 -0.7194  0.7531  1.2283
14153TIP3   OH263949   6.463   6.426  13.316  0.1240 -0.8943 -1.0886
14153TIP3    H163950   6.418   6.472  13.245 -0.1520 -0.4674 -0.6452
14153TIP3    H263951   6.556   6.446  13.304 -0.0138 -0.0730 -0.7949
14154TIP3   OH263952   6.418   6.843  16.980  0.3266  0.1048 -0.4564
14154TIP3    H163953   6.397   6.927  17.020  1.9472  0.2899  0.0644
14154TIP3    H263954   6.346   6.827  16.918  1.4339  3.3181 -2.8247
14155TIP3   OH263955   5.107   4.685   5.224 -0.6187 -0.2464 -0.0194
14155TIP3    H163956   5.174   4.695   5.291 -1.8496 -0.1134  1.2399
14155TIP3    H263957   5.092   4.591   5.218 -2.4014 -0.1642  1.9192
14156TIP3   OH263958   1.364   5.256   5.093 -0.1732 -0.2479 -0.3792
14156TIP3    H163959   1.432   5.260   5.160 -0.7229  0.3956  0.1583
14156TIP3    H263960   1.381   5.175   5.046  2.5216  1.0679 -1.9269
14157TIP3   OH263961   6.152   1.820  10.626  0.6744 -0.1451  0.4510
14157TIP3    H163962   6.178   1.801  10.536  1.6042  0.0094  0.6778
14157TIP3    H263963   6.142   1.915  10.629 -0.0432 -0.2129  0.3375
14158TIP3   OH263964   5.241   6.437  16.243 -0.1199  0.2379 -0.5710
14158TIP3    H163965   5.179   6.434  16.316 -1.5581 -2.2118 -1.7711
14158TIP3    H263966   5.313   6.381  16.271  0.0536  0.5229 -0.4410
14159TIP3   OH263967   5.838   5.007  11.919 -0.4896 -0.5465 -0.7505
14159TIP3    H163968   5.809   5.066  11.849 -1.7177 -0.0805  0.0962
14159TIP3    H263969   5.930   4.990  11.900 -0.3504  0.8939 -1.5529
14160TIP3   OH263970   0.940   5.522  11.754 -0.0198 -0.2617 -0.0945
14160TIP3    H163971   0.846   5.504  11.750  0.2070 -1.4923 -0.4022
14160TIP3    H263972   0.951   5.580  11.829 -1.2105  1.2412 -1.0254
14161TIP3   OH263973   1.726   2.873  16.755  0.1713 -0.1927 -0.0005
14161TIP3    H163974   1.743   2.906  16.667 -1.3008 -0.9874 -0.6135
14161TIP3    H263975   1.765   2.938  16.813  0.4676  0.7506 -1.2285
14162TIP3   OH263976   6.781   6.103  15.707 -0.3199 -0.3589  0.1536
14162TIP3    H163977   6.793   6.080  15.799  2.1797  2.1391  0.6060
14162TIP3    H263978   6.702   6.157  15.705  1.3637  2.3730  1.5685
14163TIP3   OH263979   3.793   4.136  13.121 -0.3710  0.1367  0.7709
14163TIP3    H163980   3.801   4.231  13.130 -0.3595  0.0960  1.1993
14163TIP3    H263981   3.739   4.124  13.043  1.2227  0.4675 -0.4345
14164TIP3   OH263982   5.312   0.737  13.855 -0.0963  0.4164  0.3315
14164TIP3    H163983   5.372   0.664  13.847 -1.3664 -0.7463  1.0010
14164TIP3    H263984   5.368   0.815  13.856  1.4183 -0.6463  1.5750
14165TIP3   OH263985   0.016   6.797   3.165  0.3658  0.6822 -0.1867
14165TIP3    H163986   0.041   6.719   3.115  0.8384 -0.4109  1.6450
14165TIP3    H263987  -0.049   6.841   3.110 -0.2899 -1.2669 -1.0763
14166TIP3   OH263988   5.156   3.456  13.447  0.1602 -0.0291  0.2989
14166TIP3    H163989   5.088   3.523  13.442  0.8761  0.6304 -2.0781
14166TIP3    H263990   5.203   3.475  13.528  0.3013  2.3446 -0.2734
14167TIP3   OH263991   5.237   5.709  13.998 -0.1629  0.6659 -0.0426
14167TIP3    H163992   5.201   5.622  14.016  1.1141 -0.0636 -0.8387
14167TIP3    H263993   5.331   5.694  13.984  0.0682  2.1618 -0.3053
14168TIP3   OH263994   6.850   5.095   4.666 -0.9246  0.0421 -0.1781
14168TIP3    H163995   6.795   5.164   4.629 -1.3205 -0.1717  0.0086
14168TIP3    H263996   6.929   5.095   4.611  0.0003  2.0063  1.0215
14169TIP3   OH263997   5.482   3.598   6.700 -0.4659  0.2737  0.0812
14169TIP3    H163998   5.410   3.560   6.750  0.1235 -1.1165 -0.0743
14169TIP3    H263999   5.448   3.681   6.668 -0.9401  1.1229  2.6002
14170TIP3   OH264000   4.925   6.101  13.821  0.6620 -0.0708 -0.2776
14170TIP3    H164001   4.927   6.196  13.829 -3.2284  0.0967  0.9242
14170TIP3    H264002   4.925   6.084  13.726  0.8656  1.1724 -0.5069
14171TIP3   OH264003   4.762   1.929  11.683 -0.1157  0.4198 -0.3118
14171TIP3    H164004   4.698   1.869  11.721 -0.5758  0.0183 -1.6455
14171TIP3    H264005   4.843   1.911  11.730 -0.2908 -1.1213 -0.5274
14172TIP3   OH264006   5.815   6.568  11.072 -0.5830  0.5930  0.1802
14172TIP3    H164007   5.785   6.490  11.119 -0.1351 -0.5271 -1.2864
14172TIP3    H264008   5.895   6.593  11.116 -0.4452 -0.1187  0.3552
14173TIP3   OH264009   6.167   3.536   0.793 -0.6170 -0.5346  0.2417
14173TIP3    H164010   6.094   3.585   0.830 -0.1526  0.5333 -0.2041
14173TIP3    H264011   6.224   3.603   0.755  0.0558 -1.4268 -0.3698
14174TIP3   OH264012   3.031   5.565  14.174 -0.6663  0.2339 -0.4047
14174TIP3    H164013   3.043   5.475  14.145  0.7624  0.7673 -1.5827
14174TIP3    H264014   3.077   5.569  14.258  1.6542  0.4650 -1.5837
14175TIP3   OH264015   1.861   4.922  12.273 -0.4053 -0.0986 -0.1676
14175TIP3    H164016   1.872   4.938  12.180 -0.2201 -0.3035 -0.1813
14175TIP3    H264017   1.799   4.990  12.302  3.6546  3.7314  0.7142
14176TIP3   OH264018   4.599   0.503   1.109 -0.1117  0.0853  0.1638
14176TIP3    H164019   4.548   0.423   1.104  3.5234 -2.3946 -1.3788
14176TIP3    H264020   4.626   0.509   1.201 -1.9532  0.7488  0.7133
14177TIP3   OH264021   1.268   1.350  10.840  0.6050  0.0004 -0.2217
14177TIP3    H164022   1.275   1.276  10.781  0.8424 -1.1216  1.1600
14177TIP3    H264023   1.174   1.368  10.845  0.6005  0.2925 -1.1232
14178TIP3   OH264024   0.502   5.402  11.026  0.2091  0.0589 -0.4470
14178TIP3    H164025   0.590   5.366  11.014  0.6418  0.1314  2.0077
14178TIP3    H264026   0.448   5.354  10.963  1.6908 -1.3049 -0.7486
14179TIP3   OH264027   3.247   2.295   0.719  0.2554 -0.2750 -0.1790
14179TIP3    H164028   3.152   2.293   0.712 -0.0664 -2.3803  2.7219
14179TIP3    H264029   3.267   2.379   0.760 -0.3528  0.1783 -0.8131
14180TIP3   OH264030   6.459   1.748  14.007 -0.2702 -0.0977 -0.1085
14180TIP3    H164031   6.409   1.780  13.932 -0.4926 -2.3474 -0.9883
14180TIP3    H264032   6.402   1.761  14.082  0.2607  2.9492 -0.0931
14181TIP3   OH264033   2.614   4.858  12.919 -0.4883 -0.3693  0.0747
14181TIP3    H164034   2.708   4.852  12.939  0.1899  0.6707 -2.4269
14181TIP3    H264035   2.593   4.773  12.880  0.5722  0.7534 -3.2972
14182TIP3   OH264036   0.165   5.175   5.130 -0.2924  0.0540 -0.0646
14182TIP3    H164037   0.125   5.243   5.184 -2.0978 -0.7293 -0.3428
14182TIP3    H264038   0.093   5.142   5.076  1.0679 -0.3869 -1.7182
14183TIP3   OH264039   0.364   4.233   3.006  0.6210  0.2955 -0.2358
14183TIP3    H164040   0.309   4.305   3.038  0.9859 -0.3125  1.8866
14183TIP3    H264041   0.453   4.266   3.014  0.8333 -0.6135  1.4475
14184TIP3   OH264042   0.401   0.806   2.199 -0.1150  0.0775  0.0615
14184TIP3    H164043   0.472   0.772   2.143  0.1862  0.8915 -0.0640
14184TIP3    H264044   0.432   0.790   2.288 -0.3058 -0.6373  0.0062
14185TIP3   OH264045   2.581   3.633   0.579 -0.3906 -0.2642  0.8557
14185TIP3    H164046   2.652   3.594   0.630 -1.7271 -1.8202  1.6146
14185TIP3    H264047   2.612   3.721   0.558  1.1451 -0.3938  2.3880
14186TIP3   OH264048   0.053   4.226  15.728  0.4059  0.7651  0.3352
14186TIP3    H164049   0.133   4.238  15.677 -0.5107  0.4895 -1.2250
14186TIP3    H264050  -0.001   4.303  15.707 -0.8882 -0.4283 -0.8811
14187TIP3   OH264051   4.390   3.937  16.943 -0.1031 -0.7012 -0.2575
14187TIP3    H164052   4.378   3.989  17.023 -0.2564 -1.5270  0.2727
14187TIP3    H264053   4.302   3.923  16.910  0.0444  0.9278 -1.4471
14188TIP3   OH264054   1.518   6.371  11.170  0.4130  0.4639  0.1948
14188TIP3    H164055   1.524   6.300  11.106 -2.0054  1.5225 -1.3327
14188TIP3    H264056   1.582   6.347  11.238 -0.6956 -3.4977  0.1031
14189TIP3   OH264057   3.451   0.233   4.095 -0.6406 -0.3741 -0.4265
14189TIP3    H164058   3.520   0.300   4.085  0.0508 -0.9469  0.3519
14189TIP3    H264059   3.499   0.152   4.111 -1.4845 -0.4940  1.9319
14190TIP3   OH264060   5.826   5.340   1.435  0.7827 -0.1014  0.3350
14190TIP3    H164061   5.880   5.305   1.365 -0.1171  1.0960 -1.0078
14190TIP3    H264062   5.754   5.384   1.390 -0.4467 -0.2795  2.0384
14191TIP3   OH264063   3.812   3.586  15.117 -0.3482 -0.2324 -0.3751
14191TIP3    H164064   3.719   3.569  15.099 -0.3981 -0.8811  0.3926
14191TIP3    H264065   3.817   3.681  15.128 -1.2145 -0.2995  0.9551
14192TIP3   OH264066   5.554   6.411   0.013 -0.2601  0.1477 -0.1337
14192TIP3    H164067   5.521   6.495  -0.017  1.5710  0.2559 -2.0479
14192TIP3    H264068   5.521   6.348  -0.051 -0.2663 -0.3622  0.3592
14193TIP3   OH264069   0.186   0.435  11.754 -0.0137 -0.5034 -0.1735
14193TIP3    H164070   0.179   0.447  11.849 -1.2088 -1.5611 -0.0902
14193TIP3    H264071   0.174   0.523  11.718 -1.2321 -0.3190  0.6112
14194TIP3   OH264072   4.606   4.608  16.442  0.5239  0.6905 -0.0222
14194TIP3    H164073   4.519   4.571  16.432  1.5650 -1.6065 -1.5193
14194TIP3    H264074   4.634   4.629  16.353  2.5320 -1.4017  0.0120
14195TIP3   OH264075   3.962   0.164  15.472  0.5013  0.2858  0.4821
14195TIP3    H164076   3.944   0.114  15.552 -0.9631  0.6725  0.4136
14195TIP3    H264077   3.906   0.241  15.479  0.5128  0.4210 -0.8149
14196TIP3   OH264078   6.771   5.936  11.018 -0.3811  0.7345  0.0728
14196TIP3    H164079   6.774   5.854  11.068  2.3495  0.4116 -0.4642
14196TIP3    H264080   6.759   5.907  10.927  0.2063  0.9332 -0.0733
14197TIP3   OH264081   2.678   6.855  15.187 -0.0897 -0.1978  0.1074
14197TIP3    H164082   2.724   6.888  15.265 -0.8431  1.1843  0.0015
14197TIP3    H264083   2.745   6.810  15.137  0.9060  0.7862  0.5123
14198TIP3   OH264084   1.143   1.116   4.211  0.2262  0.7160  0.0348
14198TIP3    H164085   1.202   1.051   4.174 -2.0386 -0.5750 -1.5452
14198TIP3    H264086   1.119   1.172   4.136 -1.5120  0.3938  0.3027
14199TIP3   OH264087   3.154   6.023   3.602 -0.0208  0.5268 -0.2835
14199TIP3    H164088   3.166   6.016   3.697  1.6968 -0.2876 -0.5224
14199TIP3    H264089   3.111   5.941   3.578  0.6200  0.2147 -0.3616
14200TIP3   OH264090   1.228   5.585  10.945 -0.1415 -0.3977 -0.5548
14200TIP3    H164091   1.239   5.678  10.925 -0.4516 -0.4912 -1.1849
14200TIP3    H264092   1.220   5.581  11.040  0.2414  0.1803 -0.4922
14201TIP3   OH264093   3.424   0.361  17.079  0.1718  0.1401 -0.2353
14201TIP3    H164094   3.519   0.352  17.071  0.1735  0.9852 -1.3452
14201TIP3    H264095   3.389   0.290  17.024  0.1374 -0.7116  0.8518
14202TIP3   OH264096   3.611   0.193  11.860 -0.1402 -0.3823 -0.5694
14202TIP3    H164097   3.539   0.214  11.800  2.1176  3.8694 -2.2346
14202TIP3    H264098   3.573   0.201  11.947 -1.5360  3.0369 -1.3513
14203TIP3   OH264099   0.795   1.414  13.668  0.4454  0.2232  0.1055
14203TIP3    H164100   0.718   1.413  13.610  2.0007  1.3485 -2.1604
14203TIP3    H264101   0.830   1.326  13.663  0.8941  0.4566 -1.2163
14204TIP3   OH264102   4.836   3.690  12.328 -0.0407 -0.0599 -0.1850
14204TIP3    H164103   4.853   3.618  12.390 -1.4993  0.3798  0.7745
14204TIP3    H264104   4.923   3.723  12.305  0.6210 -1.5795  0.0093
14205TIP3   OH264105   3.028   2.061   5.911  0.2691  0.4533  0.1733
14205TIP3    H164106   3.065   2.011   5.983 -1.1278 -0.1778  0.4920
14205TIP3    H264107   3.089   2.049   5.838  1.4711  0.7462  1.1146
14206TIP3   OH264108   6.370   4.921   1.162 -0.0882 -0.1073  0.0475
14206TIP3    H164109   6.296   4.893   1.110 -0.0043 -0.3738  0.0684
14206TIP3    H264110   6.333   4.943   1.248 -0.2010  0.1645 -0.0691
14207TIP3   OH264111   1.135   4.718  14.659 -0.1495  0.3933 -0.6106
14207TIP3    H164112   1.122   4.625  14.679 -0.6439  0.4096 -0.8241
14207TIP3    H264113   1.222   4.738  14.694 -1.2839  0.6500  2.3587
14208TIP3   OH264114   2.645   1.342  16.744 -0.1096  0.6209 -0.6436
14208TIP3    H164115   2.563   1.378  16.776 -0.2808  0.0564 -0.4367
14208TIP3    H264116   2.711   1.376  16.804 -0.4031 -0.2589  0.2074
14209TIP3   OH264117   2.061   5.330   4.705  0.0160  0.3000 -0.2819
14209TIP3    H164118   2.047   5.338   4.799 -0.5609  1.7464 -0.4654
14209TIP3    H264119   1.973   5.331   4.668  0.1376 -1.8854 -0.7708
14210TIP3   OH264120   1.004   0.130   2.281  0.0493  0.5630  0.1389
14210TIP3    H164121   1.010   0.122   2.376 -0.5951 -0.3205  0.1103
14210TIP3    H264122   1.005   0.225   2.265  1.6453  0.6991  0.9097
14211TIP3   OH264123   2.992   4.932  14.671 -0.5711  0.5201  0.2418
14211TIP3    H164124   3.008   4.895  14.584  0.0122  0.4051  0.3899
14211TIP3    H264125   2.942   4.865  14.717  1.4977 -0.6550  0.9093
14212TIP3   OH264126   3.089   6.674   4.774  0.2367  0.6692  0.2844
14212TIP3    H164127   3.182   6.667   4.793 -0.4408 -2.7649  3.5342
14212TIP3    H264128   3.053   6.726   4.846 -0.4822  1.1072 -0.3750
14213TIP3   OH264129   2.794   5.288  14.114 -0.7926 -0.1432 -0.0750
14213TIP3    H164130   2.747   5.359  14.070 -0.0294  0.1419 -0.4638
14213TIP3    H264131   2.726   5.228  14.142 -1.5010  0.9694  0.6884
14214TIP3   OH264132   2.111   2.176   2.630 -0.2615 -0.1557  0.0133
14214TIP3    H164133   2.021   2.145   2.640  0.1730 -1.0061  1.9572
14214TIP3    H264134   2.116   2.209   2.541 -2.7975  0.9458  0.1873
14215TIP3   OH264135   6.777   0.154   5.340 -0.5570  0.1141 -0.0517
14215TIP3    H164136   6.837   0.091   5.379 -0.8339 -0.2634 -0.2342
14215TIP3    H264137   6.785   0.232   5.396  1.1792  0.6105 -0.9084
14216TIP3   OH264138   2.490   1.399  17.086  0.1105 -0.1806 -0.1473
14216TIP3    H164139   2.423   1.395  17.018 -0.8016  0.8400  0.6479
14216TIP3    H264140   2.469   1.479  17.135  1.6878 -0.0423  0.3587
14217TIP3   OH264141   6.644   1.692  12.350  0.2197  0.2032  0.0844
14217TIP3    H164142   6.562   1.687  12.400 -0.8354  0.4936 -1.5018
14217TIP3    H264143   6.615   1.702  12.259  2.0314 -1.3542 -0.7278
14218TIP3   OH264144   1.219   5.788   0.383 -0.2495 -0.4400 -0.5113
14218TIP3    H164145   1.243   5.708   0.431 -1.5767 -1.5086 -1.5311
14218TIP3    H264146   1.293   5.803   0.324  1.0558  0.4584  1.2603
14219TIP3   OH264147   0.529   4.505   4.521  0.1096  0.2413  0.0363
14219TIP3    H164148   0.480   4.576   4.563 -2.4446 -1.7406  0.7220
14219TIP3    H264149   0.571   4.458   4.594  1.4144  0.7551 -0.3635
14220TIP3   OH264150   1.746   5.408  15.904 -0.2219 -0.0450  0.2526
14220TIP3    H164151   1.753   5.480  15.966  1.5254  0.7851 -0.8195
14220TIP3    H264152   1.705   5.446  15.827 -2.2411 -1.0333  0.7764
14221TIP3   OH264153   0.983   0.328  13.886  0.3539  0.3712 -0.0065
14221TIP3    H164154   0.957   0.337  13.794  1.2128 -0.7184 -0.3667
14221TIP3    H264155   0.925   0.261  13.921 -1.2261  2.0552  0.7806
14222TIP3   OH264156   4.157   5.328  12.766 -0.7249  0.0663  0.3648
14222TIP3    H164157   4.250   5.345  12.753 -0.6358 -1.2198 -0.8250
14222TIP3    H264158   4.152   5.239  12.800 -1.3396  1.3709  4.1060
14223TIP3   OH264159   2.494   1.575   4.453  0.0125 -0.3747 -0.0900
14223TIP3    H164160   2.460   1.486   4.463  0.6820 -0.6749 -0.3975
14223TIP3    H264161   2.470   1.619   4.535 -1.1456 -0.5486 -0.3259
14224TIP3   OH264162   5.721   4.489   3.797  0.6010 -0.2947  0.2145
14224TIP3    H164163   5.691   4.496   3.888 -0.3826  2.3669 -0.2309
14224TIP3    H264164   5.704   4.398   3.773 -0.3718 -0.7144  2.2693
14225TIP3   OH264165   0.268   1.482  11.479 -0.2884 -0.8268 -0.5638
14225TIP3    H164166   0.247   1.389  11.488 -2.5602 -0.4414 -1.3266
14225TIP3    H264167   0.270   1.515  11.569  1.7199 -1.7843 -0.1918
14226TIP3   OH264168   6.011   6.545  17.040 -0.0022 -0.0631 -0.4615
14226TIP3    H164169   5.938   6.574  17.095 -1.0955 -1.1871 -1.2683
14226TIP3    H264170   6.019   6.613  16.973 -1.3821 -0.6637 -1.2946
14227TIP3   OH264171   2.581   1.352   1.098 -0.8411 -0.3241  0.0961
14227TIP3    H164172   2.674   1.372   1.087 -0.9394 -0.3269 -0.8457
14227TIP3    H264173   2.570   1.265   1.060 -1.3448 -0.0534 -0.3891
14228TIP3   OH264174   4.539   2.020   4.024 -0.1169  0.1758 -0.1328
14228TIP3    H164175   4.560   2.101   4.070  1.5438  0.1434 -0.7689
14228TIP3    H264176   4.444   2.020   4.017 -0.1162  2.7548 -1.3367
14229TIP3   OH264177   5.276   2.000   5.150 -0.3158 -1.0057  0.1875
14229TIP3    H164178   5.301   1.943   5.223  1.3161 -1.3517 -0.6100
14229TIP3    H264179   5.267   2.087   5.189 -0.2797 -1.3285  0.9368
14230TIP3   OH264180   6.052   3.065   0.932 -0.4240  0.3259 -0.2444
14230TIP3    H164181   6.134   3.114   0.940 -0.2007 -0.0120 -0.4147
14230TIP3    H264182   5.989   3.129   0.899 -0.8091  1.1686  1.9672
14231TIP3   OH264183   2.474   0.476   2.697 -0.0723 -0.0234 -0.3442
14231TIP3    H164184   2.500   0.398   2.648 -0.8063  0.7311 -2.0168
14231TIP3    H264185   2.556   0.509   2.734  0.5356 -0.6051 -1.1274
14232TIP3   OH264186   2.112   0.161  13.218 -0.1264 -0.3142  0.0235
14232TIP3    H164187   2.087   0.087  13.162 -2.5636  0.3281  0.1485
14232TIP3    H264188   2.202   0.142  13.245  0.2067 -1.9173 -2.0211
14233TIP3   OH264189   3.525   0.107  15.251  0.0685 -0.3113  0.0837
14233TIP3    H164190   3.552   0.111  15.159 -0.0231 -0.5574  0.0434
14233TIP3    H264191   3.552   0.019  15.279  1.3270  0.2440  0.6847
14234TIP3   OH264192   0.424   1.134   0.642 -0.6451  0.1120  0.0418
14234TIP3    H164193   0.364   1.122   0.716  0.0979 -1.0257  0.4710
14234TIP3    H264194   0.407   1.060   0.584 -0.5405  0.4765 -0.4705
14235TIP3   OH264195   5.683   6.169   5.265 -0.0858  0.3439  0.1282
14235TIP3    H164196   5.616   6.135   5.324 -1.3969  1.5630 -0.5776
14235TIP3    H264197   5.719   6.245   5.311  1.6492 -0.9578  0.9903
14236TIP3   OH264198   5.345   4.337   4.627 -0.6226  0.7105  0.2541
14236TIP3    H164199   5.375   4.247   4.616 -1.4080  0.1965  2.0674
14236TIP3    H264200   5.406   4.388   4.573  0.5276 -0.7759  0.0632
14237TIP3   OH264201   6.024   0.424  17.085  0.5173  0.0720 -0.2396
14237TIP3    H164202   6.094   0.474  17.043 -0.0348  0.0752 -1.2014
14237TIP3    H264203   5.974   0.387  17.012 -2.1318  2.3145  0.2359
14238TIP3   OH264204   1.343   0.751   2.948  0.8446  0.5847 -0.5040
14238TIP3    H164205   1.398   0.748   3.026 -0.3177 -1.3084  0.3404
14238TIP3    H264206   1.298   0.835   2.953  0.1609  0.1687  1.3988
14239TIP3   OH264207   2.948   3.074   0.662  0.0533  0.4744  0.5866
14239TIP3    H164208   2.872   3.110   0.615  0.0391  1.2794  1.1989
14239TIP3    H264209   2.955   2.984   0.631  0.8511  1.3264 -1.9854
14240TIP3   OH264210   1.046   2.387   2.758 -0.2277  0.3496  0.1194
14240TIP3    H164211   1.115   2.370   2.693 -2.1431 -1.9878 -1.5163
14240TIP3    H264212   0.965   2.388   2.706 -1.7000  0.0183  2.3015
14241TIP3   OH264213   6.780   6.568   4.463 -0.7886  0.8307 -0.2685
14241TIP3    H164214   6.716   6.580   4.533 -1.4785  0.0750 -0.7463
14241TIP3    H264215   6.764   6.479   4.431  1.5947 -0.0231  0.6955
14242TIP3   OH264216   6.654   5.243  12.344  0.0678  0.3836  0.7915
14242TIP3    H164217   6.709   5.319  12.361 -0.3550  0.6154  1.1314
14242TIP3    H264218   6.691   5.204  12.265 -0.8151  1.9784 -0.4615
14243TIP3   OH264219   1.920   5.944   2.859  0.2478 -0.8584 -0.2121
14243TIP3    H164220   2.014   5.930   2.860  0.9429  2.6426  2.0682
14243TIP3    H264221   1.908   6.028   2.814 -1.0840  1.1556  3.4075
14244TIP3   OH264222   6.547   2.065   0.597 -0.7985 -0.3479 -0.2180
14244TIP3    H164223   6.464   2.108   0.613 -1.4348 -1.4464 -0.4465
14244TIP3    H264224   6.544   1.986   0.652  0.4843  0.0551  0.4767
14245TIP3   OH264225   2.131   5.650  16.261 -0.1942  0.1483 -0.0095
14245TIP3    H164226   2.122   5.698  16.178  1.0193 -1.3015 -1.0492
14245TIP3    H264227   2.106   5.560  16.239 -1.6749  0.1011  1.6929
14246TIP3   OH264228   0.738   1.967   1.316  0.4489 -0.9506 -0.3743
14246TIP3    H164229   0.808   1.938   1.374 -1.5252  0.5145  2.9848
14246TIP3    H264230   0.746   2.063   1.315 -2.1281 -0.6554  1.0727
14247TIP3   OH264231   1.256   1.479  13.764  0.5149 -0.0378 -0.5189
14247TIP3    H164232   1.220   1.545  13.706  0.2574  1.0059  0.7825
14247TIP3    H264233   1.202   1.401  13.749 -2.7938  1.5884  1.7183
14248TIP3   OH264234   5.606   1.824  12.746 -0.3192 -0.6556  0.1009
14248TIP3    H164235   5.619   1.850  12.838  1.4897 -1.8978  0.2318
14248TIP3    H264236   5.578   1.733  12.750  2.0340 -1.4831 -0.5955
14249TIP3   OH264237   1.017   1.449   3.204  0.2759 -0.2284 -1.1729
14249TIP3    H164238   0.922   1.451   3.207  0.2408  1.4973  2.6466
14249TIP3    H264239   1.043   1.537   3.176  0.7847 -0.6442 -2.0569
14250TIP3   OH264240   3.233   1.403  15.757  0.3409 -0.7203 -0.3206
14250TIP3    H164241   3.153   1.433  15.713  0.7420 -1.1220 -1.3612
14250TIP3    H264242   3.287   1.482  15.764 -0.7021 -0.1106  1.7412
14251TIP3   OH264243   5.545   5.596   0.669 -0.3774 -0.2290 -0.3537
14251TIP3    H164244   5.622   5.550   0.701 -0.6333 -0.7838 -0.5361
14251TIP3    H264245   5.516   5.649   0.744 -0.1047 -0.3876 -0.1375
14252TIP3   OH264246   0.019   2.476   1.018 -0.2889  0.8123  0.3668
14252TIP3    H164247   0.011   2.563   1.057 -1.8769  0.0955  1.8102
14252TIP3    H264248  -0.067   2.461   0.977  0.1660  0.1354 -0.3565
14253TIP3   OH264249   0.660   4.176  13.177 -0.2356 -0.1995  0.1268
14253TIP3    H164250   0.608   4.182  13.097  1.1600  0.7160 -0.7509
14253TIP3    H264251   0.744   4.216  13.154  0.4858 -0.6717  1.8110
14254TIP3   OH264252   5.904   2.599   4.413 -0.0581  0.0286 -0.4683
14254TIP3    H164253   5.866   2.584   4.327 -0.9003  1.0256 -0.2871
14254TIP3    H264254   5.930   2.691   4.412  2.9689 -0.6993 -0.7964
14255TIP3   OH264255   1.776   6.722   2.590  0.1837 -0.0320 -0.3110
14255TIP3    H164256   1.841   6.768   2.537 -0.3027 -0.0088 -0.8863
14255TIP3    H264257   1.809   6.632   2.596  0.1199 -0.0901 -0.8419
14256TIP3   OH264258   5.926   4.472   6.771 -0.2691  0.0226 -0.4490
14256TIP3    H164259   5.872   4.426   6.706 -2.7320 -0.0613  1.5006
14256TIP3    H264260   5.880   4.555   6.784  0.4907  0.2579  0.7897
14257TIP3   OH264261   0.221   4.066  13.121 -0.0534 -0.0827 -0.3430
14257TIP3    H164262   0.241   4.079  13.214 -0.2053 -1.4248 -0.1003
14257TIP3    H264263   0.170   4.144  13.096  1.6246  1.2353  0.1645
14258TIP3   OH264264   1.035   6.402  10.693  0.4999 -0.0479  0.7355
14258TIP3    H164265   1.012   6.325  10.641 -0.7862  0.2531  0.8167
14258TIP3    H264266   1.003   6.476  10.642 -3.0344  0.1593  2.9074
14259TIP3   OH264267   6.382   5.410   4.234  0.0404  0.3313  0.0334
14259TIP3    H164268   6.340   5.330   4.265 -0.5403  0.3109 -0.7521
14259TIP3    H264269   6.474   5.401   4.259 -0.5259  0.7671  2.5932
14260TIP3   OH264270   6.308   3.979  13.537 -0.5641  0.4545 -0.2743
14260TIP3    H164271   6.237   3.976  13.602  0.8730 -1.7402  1.3261
14260TIP3    H264272   6.304   3.894  13.493  1.4669 -0.0126  0.3498
14261TIP3   OH264273   4.087   1.706   5.534  0.0442 -0.2822 -0.0392
14261TIP3    H164274   4.003   1.668   5.560  2.4441 -4.3606  3.0287
14261TIP3    H264275   4.121   1.646   5.468  0.3979  1.6999 -1.7608
14262TIP3   OH264276   3.864   6.360   0.444  0.3375 -0.1738 -0.0509
14262TIP3    H164277   3.884   6.390   0.533 -4.3009  3.1029  0.2011
14262TIP3    H264278   3.771   6.337   0.446  0.7353 -2.9733 -3.4709
14263TIP3   OH264279   6.046   6.504   2.044 -0.2018  0.0740  0.1150
14263TIP3    H164280   6.009   6.576   2.093  0.0260  1.0010 -1.0155
14263TIP3    H264281   5.971   6.456   2.010 -0.4266 -1.7884  2.9232
14264TIP3   OH264282   3.539   3.686   3.803 -0.2567  0.3997 -0.6951
14264TIP3    H164283   3.463   3.714   3.854  0.8878  1.2270  0.6529
14264TIP3    H264284   3.610   3.683   3.867  0.8275 -0.4344 -1.8974
14265TIP3   OH264285   4.967   1.401  14.556 -0.5879 -0.8162  0.9284
14265TIP3    H164286   4.924   1.351  14.486 -0.5747  0.0612  0.2826
14265TIP3    H264287   5.032   1.454  14.510 -0.7758 -0.0148  1.5822
14266TIP3   OH264288   6.664   3.726   5.154 -0.6269 -0.3345 -0.5136
14266TIP3    H164289   6.619   3.663   5.210 -2.4425  0.0855 -1.4208
14266TIP3    H264290   6.674   3.681   5.070 -0.3666 -0.0128 -0.6583
14267TIP3   OH264291   3.533   3.345  10.842  0.5569 -0.9183 -0.0367
14267TIP3    H164292   3.534   3.325  10.748  0.7578  0.6410 -0.4017
14267TIP3    H264293   3.555   3.438  10.846 -0.4855 -0.7017  1.4873
14268TIP3   OH264294   5.580   4.455   2.277  0.0245  0.1194 -0.1419
14268TIP3    H164295   5.627   4.517   2.221 -0.1619  0.6463  0.2695
14268TIP3    H264296   5.613   4.473   2.365 -0.2627 -0.1464  0.0226
14269TIP3   OH264297   1.955   4.667   5.375 -0.4691 -0.2467  0.3855
14269TIP3    H164298   1.952   4.762   5.383 -2.4468 -0.3530  1.7957
14269TIP3    H264299   1.878   4.644   5.323  0.6279 -1.0404 -0.9600
14270TIP3   OH264300   4.086   6.201  14.864 -0.3129  0.6230  0.3263
14270TIP3    H164301   3.998   6.175  14.835 -0.9847 -0.1493  2.7833
14270TIP3    H264302   4.143   6.130  14.835 -0.8835  0.0660  0.5301
14271TIP3   OH264303   2.602   5.375  13.560 -0.0999 -0.0993  0.2943
14271TIP3    H164304   2.668   5.363  13.493  1.7055  0.0705  1.9469
14271TIP3    H264305   2.603   5.469  13.579 -0.6960 -0.1219  0.4737
14272TIP3   OH264306   6.320   3.210  16.715 -0.1921 -0.0416  0.1949
14272TIP3    H164307   6.343   3.287  16.663  2.1939 -0.1259  0.9850
14272TIP3    H264308   6.268   3.245  16.787  0.7708  0.8698  0.4792
14273TIP3   OH264309   0.822   4.440  12.843  0.4324 -0.0484  0.1633
14273TIP3    H164310   0.832   4.345  12.847 -1.4754 -0.2715  1.0097
14273TIP3    H264311   0.761   4.455  12.771  0.7603  0.5357  0.0045
14274TIP3   OH264312   3.456   4.919   0.297 -0.0626  0.1200  0.1036
14274TIP3    H164313   3.522   4.878   0.353  0.0465  0.7317  0.4321
14274TIP3    H264314   3.479   5.011   0.296  0.9160 -0.0858 -2.3142
14275TIP3   OH264315   6.270   3.527  10.551  0.1540 -0.2455 -0.5358
14275TIP3    H164316   6.194   3.531  10.493 -2.1065  0.7787  2.2705
14275TIP3    H264317   6.239   3.479  10.628  3.0994 -1.8155 -0.1819
14276TIP3   OH264318   4.426   0.048   5.562  0.2653 -0.3069  0.3151
14276TIP3    H164319   4.420  -0.023   5.498 -0.3002 -2.5975  2.7348
14276TIP3    H264320   4.365   0.115   5.529 -0.3507 -1.5969 -1.2866
14277TIP3   OH264321   2.573   0.839  12.939 -0.4071  0.3695  0.4766
14277TIP3    H164322   2.513   0.850  12.865 -1.3097 -1.4908  0.8503
14277TIP3    H264323   2.659   0.860  12.904 -1.0546  1.3588 -0.5803
14278TIP3   OH264324   6.789   5.233  11.137 -0.6399 -0.1405  0.0476
14278TIP3    H164325   6.698   5.237  11.108 -1.3904 -0.5686  2.1595
14278TIP3    H264326   6.795   5.299  11.207  0.6741 -0.1085 -0.0766
14279TIP3   OH264327   4.415   5.842   3.884  0.0653 -0.2352  0.5840
14279TIP3    H164328   4.356   5.886   3.822  1.4509  0.2452 -0.4698
14279TIP3    H264329   4.357   5.793   3.942 -1.3121 -0.8414 -1.2014
14280TIP3   OH264330   0.190   4.148   3.626 -0.1033 -0.3454  0.1718
14280TIP3    H164331   0.239   4.229   3.639  0.1709 -0.1880 -1.6022
14280TIP3    H264332   0.175   4.143   3.531  0.0378 -2.4514  0.1931
14281TIP3   OH264333   2.515   1.721   4.029  0.2547 -0.3057  0.3661
14281TIP3    H164334   2.468   1.733   4.112  0.3062  0.9509  0.2330
14281TIP3    H264335   2.586   1.660   4.051 -0.5467 -1.0758  0.9066
14282TIP3   OH264336   5.574   3.630   1.400  0.1489 -0.4754 -0.2909
14282TIP3    H164337   5.547   3.573   1.328  0.4363  0.8738 -1.5324
14282TIP3    H264338   5.493   3.654   1.444 -0.3221  0.5042 -1.6234
14283TIP3   OH264339   5.793   3.969  15.500 -0.0377  0.3264  0.5331
14283TIP3    H164340   5.728   3.971  15.570 -1.0582  1.7093 -0.3762
14283TIP3    H264341   5.834   4.056  15.503 -0.6540  0.7192 -1.0092
14284TIP3   OH264342   3.005   2.455  15.541  0.4073 -0.4416 -0.1513
14284TIP3    H164343   2.978   2.421  15.456 -1.3163  1.7577 -0.5810
14284TIP3    H264344   3.096   2.483  15.528  0.6184 -1.4127 -0.8414
14285TIP3   OH264345   3.109   4.568   2.355  0.7167 -0.2201  0.3633
14285TIP3    H164346   3.138   4.656   2.331  0.9858 -0.3765  0.1067
14285TIP3    H264347   3.017   4.579   2.378  0.5783  0.0272 -0.2779
14286TIP3   OH264348   4.684   5.954  13.904 -0.4285 -0.1399  0.1219
14286TIP3    H164349   4.702   6.005  13.825 -2.6312  0.5580  0.0098
14286TIP3    H264350   4.637   6.014  13.961 -0.9616 -1.3391  0.9925
14287TIP3   OH264351   2.176   1.588  12.186  0.0328 -0.3932  0.3768
14287TIP3    H164352   2.197   1.610  12.277 -1.9263 -1.4765  1.1631
14287TIP3    H264353   2.260   1.584  12.142  0.9379  1.6402  1.7815
14288TIP3   OH264354   1.493   6.836   2.199 -0.0882  0.1715  0.7806
14288TIP3    H164355   1.408   6.877   2.213 -1.0176 -1.4906  0.2711
14288TIP3    H264356   1.473   6.746   2.175  1.7731  0.1304 -0.8544
14289TIP3   OH264357   5.218   0.025  15.976  0.1190 -0.4564 -0.7288
14289TIP3    H164358   5.219  -0.020  16.060  0.4298 -0.3914 -0.6943
14289TIP3    H264359   5.136  -0.002  15.934 -1.1473  1.2491  0.5162
14290TIP3   OH264360   5.262   4.472   0.050  0.3465  0.5437  0.2273
14290TIP3    H164361   5.344   4.444   0.008 -0.1746  1.6883 -1.6503
14290TIP3    H264362   5.194   4.424   0.004 -0.1281  0.0813  1.3603
14291TIP3   OH264363   0.143   2.826  12.011  0.0351  0.2863  0.1353
14291TIP3    H164364   0.174   2.781  12.089 -2.6686 -1.1020  0.5133
14291TIP3    H264365   0.185   2.781  11.938 -0.5483 -1.1311  0.6493
14292TIP3   OH264366   1.861   4.771  12.592  0.1319 -0.6021 -0.1024
14292TIP3    H164367   1.897   4.843  12.540  0.1685 -1.7840 -1.7942
14292TIP3    H264368   1.834   4.812  12.674  0.4086  1.2806 -0.8971
14293TIP3   OH264369   5.487   2.951  13.983 -0.0357 -0.2800  0.3895
14293TIP3    H164370   5.580   2.933  13.967  0.1886 -0.5162  1.8608
14293TIP3    H264371   5.441   2.888  13.928  0.6822 -0.7748  0.3304
14294TIP3   OH264372   6.679   1.846  16.178 -0.3274 -0.0418 -0.4816
14294TIP3    H164373   6.667   1.941  16.173  0.3425  0.0611 -0.2496
14294TIP3    H264374   6.593   1.812  16.204 -0.3526  0.5723  0.2696
14295TIP3   OH264375   4.095   1.517   3.563 -0.1963  0.5527  0.3758
14295TIP3    H164376   4.023   1.463   3.594  0.1158 -0.1592 -0.1220
14295TIP3    H264377   4.168   1.495   3.621  0.3784 -0.7549 -0.7971
14296TIP3   OH264378   4.143   1.659   0.669 -0.0675 -0.1983 -0.1557
14296TIP3    H164379   4.199   1.681   0.595 -1.4482 -0.6099 -1.3642
14296TIP3    H264380   4.059   1.700   0.649  0.0168  1.2217  2.0832
14297TIP3   OH264381   0.404   3.861   5.938 -0.2534  0.1133 -0.8340
14297TIP3    H164382   0.454   3.788   5.902 -1.9099 -0.8423 -1.3335
14297TIP3    H264383   0.424   3.860   6.032  0.7346 -0.1490 -1.0369
14298TIP3   OH264384   4.505   6.537   2.396  0.1508  0.5084  0.0701
14298TIP3    H164385   4.538   6.481   2.326  1.8751  0.4837  0.8459
14298TIP3    H264386   4.472   6.476   2.462  0.4894  0.4387  0.1814
14299TIP3   OH264387   6.732   4.116   3.642 -0.0312 -0.1130  0.0533
14299TIP3    H164388   6.804   4.054   3.645  0.7044  0.7277  2.8878
14299TIP3    H264389   6.689   4.107   3.727 -2.0015  0.8926 -0.7706
14300TIP3   OH264390   4.907   0.312   0.271  0.2751 -0.1350  0.4652
14300TIP3    H164391   4.948   0.390   0.307  0.6260  0.2883 -0.7748
14300TIP3    H264392   4.875   0.340   0.185 -1.9135 -0.6637  1.0339
14301TIP3   OH264393   1.112   2.332  17.057 -0.1722 -0.2230 -0.2412
14301TIP3    H164394   1.189   2.292  17.017 -0.0181 -0.5454  0.3619
14301TIP3    H264395   1.142   2.363  17.142 -0.2425  1.3710 -0.7701
14302TIP3   OH264396   3.919   5.971   4.689 -0.2278 -0.0456  0.2195
14302TIP3    H164397   3.955   6.022   4.617 -1.7834  0.7095 -0.0432
14302TIP3    H264398   3.995   5.952   4.745  1.0394 -0.8164 -1.6792
14303TIP3   OH264399   0.633   5.423  12.321  0.0994  0.1118 -0.4288
14303TIP3    H164400   0.708   5.436  12.263  3.2034 -2.5333  2.5386
14303TIP3    H264401   0.634   5.499  12.379  0.7661 -0.0950 -0.1605
14304TIP3   OH264402   0.183   4.906  15.959 -0.1033 -0.0516 -0.5566
14304TIP3    H164403   0.208   4.939  15.873  1.6843  0.6314  0.1865
14304TIP3    H264404   0.265   4.880  16.000 -0.8995 -0.1906  1.0259
14305TIP3   OH264405   3.621   6.792   3.177 -0.3360  0.2637  0.3154
14305TIP3    H164406   3.670   6.865   3.140 -1.3460  0.1806 -1.2566
14305TIP3    H264407   3.679   6.717   3.167 -0.9895 -0.0016 -2.3099
14306TIP3   OH264408   2.489   4.408   4.651  0.6782 -0.7783  0.1969
14306TIP3    H164409   2.517   4.495   4.679  0.2661 -0.7726  0.5997
14306TIP3    H264410   2.568   4.355   4.657  0.7810 -0.5885  0.6103
14307TIP3   OH264411   3.558   1.267   3.148 -0.2968  0.0369 -0.2036
14307TIP3    H164412   3.594   1.320   3.078 -0.7438  0.0503 -0.4273
14307TIP3    H264413   3.584   1.177   3.126  0.0718  0.1095 -0.0669
14308TIP3   OH264414   1.660   2.941  16.301  0.1832 -0.1127  0.0399
14308TIP3    H164415   1.581   2.887  16.305 -0.6357  1.0778  0.3650
14308TIP3    H264416   1.637   3.013  16.243  0.4776  1.0958  1.3606
14309TIP3   OH264417   4.131   1.737  15.807  0.3606 -0.0419  0.2602
14309TIP3    H164418   4.162   1.686  15.882 -1.2115  1.2031  1.8373
14309TIP3    H264419   4.171   1.823  15.818  0.2229  0.1135 -0.4182
14310TIP3   OH264420   3.126   6.438   5.005 -0.0178 -0.0950  0.1998
14310TIP3    H164421   3.055   6.500   5.019  1.2455  1.7120 -1.0104
14310TIP3    H264422   3.191   6.460   5.073  0.2137 -0.4468  0.0939
14311TIP3   OH264423   4.636   5.633   0.529 -0.6143 -0.4227 -0.0866
14311TIP3    H164424   4.646   5.548   0.573  0.2462 -0.5118 -0.4394
14311TIP3    H264425   4.596   5.612   0.445  0.1361 -0.5547 -0.4178
14312TIP3   OH264426   6.542   4.874  10.487 -0.2678  0.3729 -0.0501
14312TIP3    H164427   6.456   4.835  10.469  1.1209 -2.5610 -1.0644
14312TIP3    H264428   6.583   4.880  10.401  0.7893  1.1035  0.4978
14313TIP3   OH264429   6.006   3.839   5.333 -0.0576 -0.4030 -0.2611
14313TIP3    H164430   6.037   3.909   5.275 -1.8281 -0.2634 -1.0790
14313TIP3    H264431   6.081   3.780   5.341  1.5903  1.6685  0.6532
14314TIP3   OH264432   3.005   5.163  13.552 -0.3334  0.7482  0.1738
14314TIP3    H164433   2.922   5.119  13.570  0.0838  0.3908  1.2966
14314TIP3    H264434   3.055   5.100  13.500 -0.1890  0.3495  0.7859
14315TIP3   OH264435   3.715   2.846  12.177 -0.2650 -0.1201 -0.0680
14315TIP3    H164436   3.730   2.914  12.242 -0.1831  1.0924 -1.3172
14315TIP3    H264437   3.710   2.765  12.228 -0.1489  0.7785  1.4287
14316TIP3   OH264438   4.560   5.407   4.498  0.2885  0.4052 -1.2003
14316TIP3    H164439   4.609   5.400   4.580  0.5381  1.2924 -1.2618
14316TIP3    H264440   4.527   5.319   4.483  0.1960  0.2336 -0.1210
14317TIP3   OH264441   1.711   1.376  13.023 -0.2505  0.3493  0.0915
14317TIP3    H164442   1.681   1.430  13.096  1.2732  0.5735  0.5965
14317TIP3    H264443   1.806   1.377  13.031 -0.1450 -2.4636  0.1405
14318TIP3   OH264444   2.878   5.486   4.838  0.4457 -0.2899 -0.4209
14318TIP3    H164445   2.839   5.544   4.904  1.5411 -0.9513  0.8632
14318TIP3    H264446   2.891   5.542   4.762  1.9163  1.3428  0.9343
14319TIP3   OH264447   1.640   5.675   0.457 -0.1215 -0.1958  0.3562
14319TIP3    H164448   1.571   5.619   0.421 -1.2098  0.7038  0.9600
14319TIP3    H264449   1.627   5.671   0.552 -1.6132  2.6632  0.3874
14320TIP3   OH264450   5.385   0.609  11.429  0.3140  0.1740  0.1739
14320TIP3    H164451   5.336   0.527  11.424  0.1010  0.3437 -0.6820
14320TIP3    H264452   5.417   0.613  11.519  1.0133 -1.2497  0.0164
14321TIP3   OH264453   1.730   5.510  11.763 -0.1715 -0.1872  0.7702
14321TIP3    H164454   1.642   5.501  11.800 -0.7397  0.1391 -0.4510
14321TIP3    H264455   1.756   5.421  11.742 -2.2782 -0.0575 -3.3732
14322TIP3   OH264456   3.224   4.663   0.029 -0.6611  0.3884  0.0363
14322TIP3    H164457   3.225   4.603  -0.046 -0.7825 -0.8207  0.9744
14322TIP3    H264458   3.176   4.615   0.097  2.2996  0.0411  2.0209
14323TIP3   OH264459   6.515   6.754  12.991 -0.0729 -0.4232  0.3304
14323TIP3    H164460   6.541   6.817  13.059  1.5213  0.1100 -0.7242
14323TIP3    H264461   6.585   6.689  12.989  0.4428  0.1185 -1.4435
14324TIP3   OH264462   0.407   3.656   1.435  0.1359 -0.0677 -0.4486
14324TIP3    H164463   0.455   3.736   1.413 -1.1340  1.6818  2.4828
14324TIP3    H264464   0.473   3.596   1.469  0.8774  0.3892 -1.0527
14325TIP3   OH264465   1.351   2.951   3.824  0.3305 -0.2756  0.4863
14325TIP3    H164466   1.360   2.963   3.730 -0.7119 -0.7451  0.3180
14325TIP3    H264467   1.285   3.015   3.851  0.6301 -0.1350  0.9049
14326TIP3   OH264468   0.218   4.975   1.055  0.1555  0.7139  0.1832
14326TIP3    H164469   0.174   5.060   1.045 -0.5982  0.2027 -1.1151
14326TIP3    H264470   0.150   4.911   1.035  0.7430 -0.1977  1.0714
14327TIP3   OH264471   0.337   3.534   3.268  0.0417 -0.3843 -0.2825
14327TIP3    H164472   0.371   3.458   3.221  1.0572 -0.6689  0.8678
14327TIP3    H264473   0.366   3.609   3.216  1.1788 -0.6916 -0.1112
14328TIP3   OH264474   5.897   3.178  13.478  0.0498  0.3874  0.1314
14328TIP3    H164475   5.987   3.182  13.446 -0.1067  0.1276 -0.3531
14328TIP3    H264476   5.874   3.268  13.498  0.5008  0.4263  0.5027
14329TIP3   OH264477   4.656   5.327   4.740  0.1442  0.1954  0.2942
14329TIP3    H164478   4.625   5.237   4.735  0.1583  0.2075 -0.0451
14329TIP3    H264479   4.752   5.319   4.739  0.2314  0.0745  2.6435
14330TIP3   OH264480   5.494   0.187   0.363 -0.3197  0.1744 -0.0744
14330TIP3    H164481   5.558   0.150   0.302  0.8263 -0.4153  1.4229
14330TIP3    H264482   5.543   0.253   0.412 -0.8139 -0.3242  1.1291
14331TIP3   OH264483   6.263   1.223  15.203  0.4604 -1.2828 -0.4793
14331TIP3    H164484   6.241   1.131  15.193 -0.2251 -1.3636  1.4646
14331TIP3    H264485   6.274   1.236  15.297  0.4592  0.6389 -0.6959
14332TIP3   OH264486   0.093   5.386  11.912  0.7901  0.2942  0.2692
14332TIP3    H164487   0.155   5.459  11.910 -1.0231  1.9212 -1.4993
14332TIP3    H264488   0.103   5.343  11.827  0.8049 -0.6101  0.7175
14333TIP3   OH264489   6.325   1.460   4.365 -0.1066 -0.6332 -0.8431
14333TIP3    H164490   6.265   1.502   4.303 -1.4298 -0.9610  0.1556
14333TIP3    H264491   6.370   1.533   4.408  0.0221 -0.3673 -1.4197
14334TIP3   OH264492   4.358   3.438   0.994 -0.1963 -0.0193 -0.4621
14334TIP3    H164493   4.389   3.347   0.998 -0.3976 -0.1729 -1.8666
14334TIP3    H264494   4.433   3.487   0.961  0.1040  0.4487  0.8536
14335TIP3   OH264495   0.586   4.285  14.618 -0.0227 -0.2338 -0.1942
14335TIP3    H164496   0.503   4.266  14.662 -0.5286  1.9238 -0.0710
14335TIP3    H264497   0.652   4.242  14.673 -0.7785  0.9971  1.8215
14336TIP3   OH264498   1.274   3.641   5.307 -0.0943 -0.2046  0.4026
14336TIP3    H164499   1.307   3.584   5.238 -1.6516  0.2188 -0.7576
14336TIP3    H264500   1.189   3.602   5.331 -0.1786  0.4061  1.1307
14337TIP3   OH264501   4.838   2.701   3.952  0.0440  0.7031  0.1130
14337TIP3    H164502   4.751   2.710   3.991  0.3301 -0.7576  1.1763
14337TIP3    H264503   4.821   2.682   3.860 -0.8919 -1.4377  0.6472
14338TIP3   OH264504   5.355   2.860   6.419 -0.2904  0.4839 -0.0079
14338TIP3    H164505   5.314   2.826   6.340 -1.6957  0.0939  0.8383
14338TIP3    H264506   5.291   2.841   6.488  1.4231 -0.3364  1.4322
14339TIP3   OH264507   5.298   6.557   2.298  0.1344 -0.2627  0.1007
14339TIP3    H164508   5.343   6.628   2.251  2.1937 -2.5233 -1.5631
14339TIP3    H264509   5.328   6.566   2.389  2.2957 -0.3840 -0.5591
14340TIP3   OH264510   1.637   5.874   4.497 -0.1161  0.2021 -0.8305
14340TIP3    H164511   1.722   5.897   4.534  0.2913 -1.3678 -0.7145
14340TIP3    H264512   1.657   5.831   4.414 -0.6913 -1.2725 -0.2529
14341TIP3   OH264513   1.793   0.438  15.074  0.1172 -0.0938  0.1481
14341TIP3    H164514   1.745   0.488  15.139 -1.1246 -1.8415  0.6590
14341TIP3    H264515   1.871   0.407  15.119  0.3093  0.4068  0.1661
14342TIP3   OH264516   1.590   4.338  10.894  0.2710 -0.7109  0.0516
14342TIP3    H164517   1.665   4.310  10.946  1.4390  3.2121  0.7927
14342TIP3    H264518   1.579   4.431  10.915 -3.6877 -0.6521 -1.4354
14343TIP3   OH264519   5.205   6.756  10.550 -0.1528  0.8062  0.0277
14343TIP3    H164520   5.138   6.790  10.609  0.5175  0.7947  0.7965
14343TIP3    H264521   5.214   6.824  10.483 -1.6958  0.3385 -0.7102
14344TIP3   OH264522   4.592   4.680   1.642 -0.4855 -0.3635  0.4552
14344TIP3    H164523   4.521   4.739   1.669 -1.6165 -2.0137  1.1914
14344TIP3    H264524   4.626   4.643   1.724 -0.2688 -1.2798 -0.0381
14345TIP3   OH264525   2.808   0.052   5.015  0.2697 -0.1840 -0.1789
14345TIP3    H164526   2.890   0.016   5.048  1.3970  1.9696 -0.4578
14345TIP3    H264527   2.834   0.123   4.957 -1.7976  0.1910 -0.7494
14346TIP3   OH264528   3.604   0.416   0.352 -0.2013 -0.0032 -0.6672
14346TIP3    H164529   3.513   0.407   0.324 -0.0622 -0.5362 -0.9775
14346TIP3    H264530   3.605   0.382   0.441 -0.4779  0.8612 -0.3291
14347TIP3   OH264531   1.483   5.489   0.766 -0.8842  0.1840 -0.5781
14347TIP3    H164532   1.548   5.444   0.820 -2.6096  0.9747  2.4054
14347TIP3    H264533   1.480   5.439   0.685  2.6861 -0.4218 -0.5020
14348TIP3   OH264534   3.932   0.653   1.973  0.5239  0.4665  0.0763
14348TIP3    H164535   3.896   0.582   1.919  0.5910  0.1378  0.4613
14348TIP3    H264536   3.873   0.726   1.959  1.9509  1.2531 -2.5193
14349TIP3   OH264537   2.224   1.650   1.240  0.2530 -0.5671  0.4765
14349TIP3    H164538   2.189   1.681   1.324 -1.0915 -0.6715 -0.0230
14349TIP3    H264539   2.215   1.554   1.245  0.5265 -0.5972  0.3677
14350TIP3   OH264540   6.442   4.726   2.059 -0.6702  0.0571  0.7274
14350TIP3    H164541   6.522   4.689   2.019 -1.0530  0.4542 -0.4443
14350TIP3    H264542   6.427   4.671   2.135  0.1526 -0.6771  0.3903
14351TIP3   OH264543   1.517   5.810   1.382  0.2333 -0.7791  0.5424
14351TIP3    H164544   1.517   5.879   1.449 -0.3713 -0.4031  0.1629
14351TIP3    H264545   1.427   5.777   1.382  0.1053 -0.4421 -0.4275
14352TIP3   OH264546   3.758   4.133  14.422  0.3743 -0.2742 -1.0805
14352TIP3    H164547   3.744   4.182  14.503  0.9049 -1.5553 -0.1915
14352TIP3    H264548   3.843   4.164  14.390  0.2075  0.1620 -1.1188
14353TIP3   OH264549   5.200   2.574  11.697 -0.1358 -0.5241  0.2811
14353TIP3    H164550   5.217   2.491  11.652  1.1436 -1.0997  1.7215
14353TIP3    H264551   5.112   2.563  11.733  0.8555 -2.2839  2.4133
14354TIP3   OH264552   4.562   5.143  12.594 -0.3950  0.0096  0.4537
14354TIP3    H164553   4.524   5.176  12.676 -0.9327 -1.2241  0.7255
14354TIP3    H264554   4.497   5.081  12.561  1.8578 -3.1914  1.5998
14355TIP3   OH264555   0.838   1.031  10.578 -0.0311  1.0077 -0.6397
14355TIP3    H164556   0.925   1.071  10.576  1.9721 -2.8824 -1.5713
14355TIP3    H264557   0.817   1.012  10.486 -0.9096  0.1265 -0.2894
14356TIP3   OH264558   2.918   0.216  16.353 -0.0425  0.7513  1.1071
14356TIP3    H164559   2.879   0.131  16.373  2.1175 -0.2698  1.2526
14356TIP3    H264560   2.987   0.196  16.290  0.0327  2.5282  0.5653
14357TIP3   OH264561   2.674   2.438   1.802  0.4186 -0.3763 -0.6535
14357TIP3    H164562   2.618   2.490   1.860  1.7684 -1.4066  1.7158
14357TIP3    H264563   2.625   2.357   1.787 -0.0475 -0.0006 -1.2253
14358TIP3   OH264564   4.876   6.524  15.798 -0.2650 -0.4053 -0.6202
14358TIP3    H164565   4.909   6.566  15.878  1.2564  1.6504 -2.2028
14358TIP3    H264566   4.858   6.598  15.739  0.5656 -1.9269 -2.8743
14359TIP3   OH264567   1.300   5.226  10.717  0.1479 -0.5745 -0.2035
14359TIP3    H164568   1.255   5.259  10.639 -1.3139 -2.2523 -0.1267
14359TIP3    H264569   1.242   5.249  10.790  1.2050  0.4223  0.3684
14360TIP3   OH264570   0.557   1.103  16.059  0.0336  0.2826 -0.3811
14360TIP3    H164571   0.618   1.118  15.987  0.4125  1.1490  0.1113
14360TIP3    H264572   0.589   1.158  16.130 -0.8000  0.0537  0.1881
14361TIP3   OH264573   3.064   0.751  15.153  0.1171 -0.5824 -0.0564
14361TIP3    H164574   3.045   0.796  15.071 -0.6132 -0.7782 -0.0091
14361TIP3    H264575   3.159   0.756  15.163  0.0733  0.7118 -0.1757
14362TIP3   OH264576   0.181   6.476  13.411  0.6152  0.4942 -0.2128
14362TIP3    H164577   0.129   6.478  13.331 -0.8579 -1.4146  0.6034
14362TIP3    H264578   0.180   6.566  13.444  1.0287  1.2490 -2.1552
14363TIP3   OH264579   6.846   1.665   3.601  0.1052  0.3057 -0.1837
14363TIP3    H164580   6.831   1.594   3.663 -0.5929 -1.1985 -1.9633
14363TIP3    H264581   6.849   1.622   3.515 -3.9753  2.7076 -1.8372
14364TIP3   OH264582   3.958   5.613  15.987 -0.2430 -0.0599  0.5187
14364TIP3    H164583   4.006   5.676  15.934  0.9841 -0.2336  1.3495
14364TIP3    H264584   3.927   5.547  15.925  0.2308  0.2941 -0.1043
14365TIP3   OH264585   2.338   5.112  15.323 -0.2767 -0.3761  0.4897
14365TIP3    H164586   2.421   5.111  15.372 -0.0494 -1.6491  0.1177
14365TIP3    H264587   2.314   5.019  15.315 -0.0221 -0.2880 -2.2747
14366TIP3   OH264588   5.171   5.680  15.193 -0.0833  0.7918  0.5638
14366TIP3    H164589   5.255   5.709  15.157 -0.6960  1.4839 -0.3744
14366TIP3    H264590   5.114   5.672  15.116 -0.1270 -2.5345  0.7784
14367TIP3   OH264591   0.282   1.892  12.394 -0.1259  0.3854  0.4670
14367TIP3    H164592   0.209   1.947  12.422 -0.3590  1.9292 -2.6651
14367TIP3    H264593   0.358   1.951  12.392 -0.3860  0.8080 -2.9796
14368TIP3   OH264594   3.622   2.358   0.281  0.4884 -0.5826 -0.9323
14368TIP3    H164595   3.678   2.418   0.329  0.3939 -0.7005 -0.6666
14368TIP3    H264596   3.533   2.379   0.311  0.6225 -2.4204  0.9994
14369TIP3   OH264597   2.764   0.857  16.564  0.5388 -0.1783 -0.5883
14369TIP3    H164598   2.805   0.808  16.635  0.1930 -1.4129 -1.1915
14369TIP3    H264599   2.796   0.946  16.573 -2.3344  0.6934  3.4019
14370TIP3   OH264600   3.058   1.549   3.055 -0.2380 -0.2096 -0.0304
14370TIP3    H164601   3.015   1.610   3.115 -1.8770  0.5962 -1.9238
14370TIP3    H264602   2.986   1.509   3.006  0.8937 -2.7062  0.2165
14371TIP3   OH264603   1.605   2.138  16.327 -0.5945  0.4445  0.1181
14371TIP3    H164604   1.660   2.079  16.377 -1.0600 -0.9778 -0.9866
14371TIP3    H264605   1.650   2.149  16.243 -0.7100  1.3645  0.1577
14372TIP3   OH264606   0.327   2.323  14.316 -0.1171  0.1766 -0.7335
14372TIP3    H164607   0.264   2.386  14.351  1.4359  1.6164 -0.3437
14372TIP3    H264608   0.410   2.347  14.359  0.9139 -0.9128 -2.0455
14373TIP3   OH264609   0.169   2.953   3.510 -0.4878  0.4677 -0.5042
14373TIP3    H164610   0.166   2.863   3.477  0.7891  0.3991 -0.4776
14373TIP3    H264611   0.228   2.949   3.585 -0.3729  1.3333 -0.5417
14374TIP3   OH264612   6.280   6.440  16.307  0.2540  0.3852 -0.4362
14374TIP3    H164613   6.196   6.406  16.340  0.8883 -0.6369  0.1633
14374TIP3    H264614   6.317   6.368  16.256  0.9751  0.6742 -0.3301
14375TIP3   OH264615   1.669   5.723   5.485 -0.0233 -0.1182 -0.0059
14375TIP3    H164616   1.682   5.818   5.488 -1.9095  0.1570  1.8952
14375TIP3    H264617   1.757   5.687   5.479  0.7771  1.7287 -0.2243
14376TIP3   OH264618   1.153   0.934  13.007 -0.9274  0.7155 -0.2448
14376TIP3    H164619   1.189   1.023  13.012 -1.4029  0.9381 -0.7554
14376TIP3    H264620   1.067   0.945  12.968 -0.2637 -0.1695 -2.0480
14377TIP3   OH264621   3.319   4.370  11.280 -0.6199 -0.3191 -0.4297
14377TIP3    H164622   3.269   4.338  11.205 -2.9602  0.9782  0.4535
14377TIP3    H264623   3.277   4.330  11.356 -0.8994  1.4439  0.3985
14378TIP3   OH264624   2.441   6.461   1.139  0.0964  0.2869  0.2027
14378TIP3    H164625   2.473   6.549   1.158  0.2559  0.5073 -0.9946
14378TIP3    H264626   2.500   6.403   1.187  0.0485  0.8175  0.9201
14379TIP3   OH264627   6.409   3.246  12.177 -0.5751  0.0534  0.1292
14379TIP3    H164628   6.418   3.162  12.132 -0.1419 -0.4068  1.0521
14379TIP3    H264629   6.324   3.280  12.146  0.8879  1.1287 -3.2100
14380TIP3   OH264630   2.633   5.798   2.282 -0.0703 -0.7948 -0.1700
14380TIP3    H164631   2.616   5.762   2.369 -0.1216 -2.4200 -0.8242
14380TIP3    H264632   2.699   5.866   2.297 -0.4487 -0.7042  1.1976
14381TIP3   OH264633   1.119   6.527   4.447 -0.0001  0.5418 -0.2912
14381TIP3    H164634   1.113   6.446   4.398  0.0127 -0.0395  0.6444
14381TIP3    H264635   1.040   6.529   4.501  0.1011  1.0517 -0.1481
14382TIP3   OH264636   4.265   1.390  15.212 -0.2410 -0.3337 -0.0639
14382TIP3    H164637   4.354   1.357  15.200 -0.5350 -0.8174 -1.0044
14382TIP3    H264638   4.233   1.407  15.123 -1.1208 -0.2651  0.2527
14383TIP3   OH264639   0.767   3.804  11.403 -0.6645 -0.3768 -0.3480
14383TIP3    H164640   0.747   3.846  11.487 -2.1391 -0.8583 -0.4175
14383TIP3    H264641   0.780   3.877  11.343 -5.7431  0.3224 -1.0762
14384TIP3   OH264642   4.393   6.213   5.113  0.1310 -0.1097  0.6072
14384TIP3    H164643   4.359   6.208   5.024 -2.8755 -0.6284  1.6467
14384TIP3    H264644   4.391   6.123   5.145  0.2339  0.1962  1.5115
14385TIP3   OH264645   3.922   4.071   3.558 -0.0603  0.7451  0.1281
14385TIP3    H164646   3.940   4.031   3.643  1.2610  1.8434  0.3942
14385TIP3    H264647   3.838   4.034   3.532  0.2533 -0.8212  1.1733
14386TIP3   OH264648   3.756   5.662   6.421  0.5953 -0.1378  0.2031
14386TIP3    H164649   3.680   5.719   6.436  0.2725 -0.1025 -1.3809
14386TIP3    H264650   3.738   5.584   6.473 -0.2745  0.0987  0.2776
14387TIP3   OH264651   2.304   3.896   2.747  0.5543  0.1904  0.4643
14387TIP3    H164652   2.308   3.885   2.842 -1.6160  2.6953  0.9475
14387TIP3    H264653   2.246   3.826   2.717 -0.7642  0.8644  1.3589
14388TIP3   OH264654   5.264   3.091   6.192  0.2597  0.1025  0.3616
14388TIP3    H164655   5.297   3.013   6.147 -0.3203  0.7593 -1.2576
14388TIP3    H264656   5.211   3.057   6.264 -0.7982 -1.0200 -0.9103
14389TIP3   OH264657   0.129   6.229  12.086  0.2951 -0.5082 -0.1348
14389TIP3    H164658   0.149   6.136  12.075  1.3699 -0.1047 -2.2166
14389TIP3    H264659   0.166   6.271  12.008 -2.5162  1.3423 -0.6230
14390TIP3   OH264660   0.271   1.609   3.666 -0.1711  0.1752 -0.1180
14390TIP3    H164661   0.203   1.621   3.600  1.0190 -1.4090 -1.7206
14390TIP3    H264662   0.324   1.689   3.661 -0.2073  0.1548 -0.9545
14391TIP3   OH264663   3.029   3.103   0.146  0.2271 -0.1348 -0.0854
14391TIP3    H164664   3.082   3.169   0.191  0.6818  0.2356 -1.1537
14391TIP3    H264665   3.003   3.144   0.064  0.7126 -1.3601 -0.8787
14392TIP3   OH264666   2.303   5.435  13.954  0.0677 -0.6897 -0.1415
14392TIP3    H164667   2.354   5.401  14.028 -1.1904 -0.4030  0.8793
14392TIP3    H264668   2.357   5.506  13.919 -0.2222  0.5275  1.7837
14393TIP3   OH264669   2.016   4.716  12.325  0.6374 -0.3223 -0.4759
14393TIP3    H164670   1.972   4.795  12.295 -0.0253 -0.7293 -0.5852
14393TIP3    H264671   1.949   4.668  12.374  1.2559 -0.4308  0.2881
14394TIP3   OH264672   1.819   6.384   3.017  0.3519 -0.0576 -0.7009
14394TIP3    H164673   1.865   6.468   3.020  1.8654 -0.7311 -2.8817
14394TIP3    H264674   1.804   6.362   3.109  2.0055  1.4914  0.0023
14395TIP3   OH264675   0.874   5.602   0.793 -0.0870 -0.3281  0.0464
14395TIP3    H164676   0.923   5.666   0.844 -0.4097 -0.8128  1.0040
14395TIP3    H264677   0.927   5.523   0.796 -1.8871 -1.6109  3.1209
14396TIP3   OH264678   6.281   3.013  11.892  0.5912  0.0293  0.2761
14396TIP3    H164679   6.363   3.009  11.941 -0.0718 -0.4751  1.4089
14396TIP3    H264680   6.219   2.963  11.946 -1.4208  3.3043  1.3210
14397TIP3   OH264681   1.288   6.144  15.493 -0.4354  0.5223 -0.6762
14397TIP3    H164682   1.301   6.059  15.451 -0.9620 -1.1009  2.1846
14397TIP3    H264683   1.213   6.182  15.446 -0.9113 -1.0915 -1.3014
14398TIP3   OH264684   0.162   3.442   0.192  0.0499  0.0177 -0.0281
14398TIP3    H164685   0.243   3.425   0.239 -0.9432 -1.3014  1.3087
14398TIP3    H264686   0.127   3.521   0.233 -0.7173 -1.0213  1.3961
14399TIP3   OH264687   6.651   4.748   3.978  0.3406  0.0482  0.2111
14399TIP3    H164688   6.601   4.828   3.995  1.2145  1.2433 -2.4153
14399TIP3    H264689   6.737   4.764   4.016 -0.3474 -1.0083  2.4622
14400TIP3   OH264690   5.191   0.458   6.254  0.8265 -0.0944 -0.2649
14400TIP3    H164691   5.279   0.486   6.276  0.2455  0.8062  1.0516
14400TIP3    H264692   5.162   0.407   6.330  0.0042  0.1321 -0.4094
14401TIP3   OH264693   4.347   2.778  11.957  0.2638  0.3133  0.4908
14401TIP3    H164694   4.411   2.725  11.911 -1.8824 -3.0147  0.9796
14401TIP3    H264695   4.394   2.815  12.031  2.1998  0.3170 -0.6743
14402TIP3   OH264696   3.728   6.519  13.043 -0.2569  0.2356  0.1043
14402TIP3    H164697   3.689   6.521  12.956  1.0265  0.1770 -0.4821
14402TIP3    H264698   3.735   6.611  13.069  1.4502  0.3940 -0.8238
14403TIP3   OH264699   1.018   3.414   1.708 -0.5041 -0.3484  0.3501
14403TIP3    H164700   0.995   3.461   1.628  2.6689  0.0361 -0.4928
14403TIP3    H264701   1.039   3.325   1.678  1.8449  0.1074  0.4489
14404TIP3   OH264702   4.560   1.880   0.776  0.1046 -0.5467  0.8342
14404TIP3    H164703   4.559   1.797   0.729 -0.0877 -0.8451  1.3514
14404TIP3    H264704   4.624   1.934   0.729 -1.0106 -0.3685 -0.5311
14405TIP3   OH264705   2.596   5.835  16.560 -0.6777  0.2969 -0.0233
14405TIP3    H164706   2.564   5.752  16.595  0.2332  0.2712  0.7637
14405TIP3    H264707   2.689   5.820  16.543 -0.4352  1.2326  0.4102
14406TIP3   OH264708   0.723   2.678  11.234 -0.4749 -0.1046  0.1769
14406TIP3    H164709   0.698   2.763  11.199 -0.1562  0.3967  1.1289
14406TIP3    H264710   0.796   2.697  11.294 -1.1644 -0.8736  1.3049
14407TIP3   OH264711   1.060   0.354   3.199 -0.0201  0.6330  0.9735
14407TIP3    H164712   1.092   0.296   3.131  0.3542  1.7679  0.1424
14407TIP3    H264713   1.060   0.441   3.158 -0.0536  1.2987  2.3267
14408TIP3   OH264714   2.242   3.540   4.475  0.5918  0.5779  1.2260
14408TIP3    H164715   2.200   3.526   4.390  0.8942  1.3909  0.9284
14408TIP3    H264716   2.231   3.457   4.522  0.6582  0.0352  0.2969
14409TIP3   OH264717   4.442   3.273  14.939 -0.0824  0.2404  0.1802
14409TIP3    H164718   4.459   3.367  14.947  1.4767 -0.0958  1.3018
14409TIP3    H264719   4.346   3.266  14.941 -0.2433  1.8401 -0.5085
14410TIP3   OH264720   3.484   2.544   0.584  0.5046 -0.0492 -0.3222
14410TIP3    H164721   3.466   2.629   0.624 -2.0493 -0.1410 -1.0703
14410TIP3    H264722   3.473   2.559   0.490 -0.9524 -1.3736 -0.4012
14411TIP3   OH264723   6.217   1.172   4.111 -0.4863  0.0958  0.0590
14411TIP3    H164724   6.236   1.107   4.044 -1.8928 -1.7762  1.3825
14411TIP3    H264725   6.201   1.253   4.062 -2.6430 -1.4463 -2.0104
14412TIP3   OH264726   1.900   5.625   0.083  0.3216  0.5463  0.4853
14412TIP3    H164727   1.865   5.537   0.095 -0.7515  0.7018 -1.2349
14412TIP3    H264728   1.910   5.635  -0.011  0.4801  2.2374  0.6407
14413TIP3   OH264729   5.908   1.306   0.898  0.1434 -0.5851  0.2731
14413TIP3    H164730   5.818   1.324   0.926  0.7608 -1.1423  2.8591
14413TIP3    H264731   5.899   1.266   0.812 -2.0609 -0.3085  0.3280
14414TIP3   OH264732   0.548   0.817   4.057  0.3222 -0.2912 -0.0771
14414TIP3    H164733   0.527   0.766   3.979 -0.6939  1.2196 -0.8496
14414TIP3    H264734   0.629   0.863   4.036 -0.7580  1.3121 -0.8941
14415TIP3   OH264735   0.587   5.508   4.996  0.3061  0.0934  0.2514
14415TIP3    H164736   0.627   5.431   4.955 -0.1190 -0.3238  0.6200
14415TIP3    H264737   0.661   5.553   5.038  0.9897  1.1916 -1.9265
14416TIP3   OH264738   1.157   0.303  12.700 -0.0503 -0.5847  0.0614
14416TIP3    H164739   1.175   0.227  12.645 -0.5548 -1.1506  0.6607
14416TIP3    H264740   1.243   0.336  12.725  0.1810 -1.4542  0.4519
14417TIP3   OH264741   2.982   1.575   5.652  0.0121  0.1248 -0.0976
14417TIP3    H164742   3.063   1.539   5.689  0.3412  2.0627  1.2049
14417TIP3    H264743   2.996   1.669   5.653 -1.7005  0.4149 -1.2594
14418TIP3   OH264744   4.831   5.949  11.347 -0.1119 -0.0194 -0.4044
14418TIP3    H164745   4.841   5.970  11.439  2.0286 -0.4130 -0.4970
14418TIP3    H264746   4.798   5.859  11.346  2.3532 -0.9998  0.0429
14419TIP3   OH264747   6.753   1.045   3.497 -0.2673 -0.2987  0.4510
14419TIP3    H164748   6.842   1.080   3.497  0.3959 -1.8513  0.9169
14419TIP3    H264749   6.740   1.011   3.408 -0.5678  0.3211  0.2557
14420TIP3   OH264750   6.195   0.662  11.315 -0.7068  0.0494  0.4789
14420TIP3    H164751   6.174   0.737  11.371 -1.2378  0.0832  0.2388
14420TIP3    H264752   6.110   0.625  11.291 -0.5450  0.7072 -1.2365
14421TIP3   OH264753   6.258   2.559  11.942  0.2563 -0.3464 -0.6190
14421TIP3    H164754   6.208   2.490  11.899  0.1284 -1.8199  1.7644
14421TIP3    H264755   6.194   2.607  11.994  0.6104  0.5876 -1.0267
14422TIP3   OH264756   4.226   0.719   6.237 -0.3386 -0.0449 -0.4464
14422TIP3    H164757   4.144   0.693   6.279  0.2294 -0.2481  0.5655
14422TIP3    H264758   4.255   0.641   6.191 -1.3076  0.3705 -1.8386
14423TIP3   OH264759   5.900   1.330   1.778  0.2100 -0.4593  0.4315
14423TIP3    H164760   5.819   1.306   1.733  0.8463  0.6781 -1.4163
14423TIP3    H264761   5.967   1.326   1.710  1.6712 -1.0425  1.8546
14424TIP3   OH264762   5.445   2.403  16.228 -0.6895  0.1857 -0.0373
14424TIP3    H164763   5.463   2.335  16.293 -0.0496  1.6018  1.3347
14424TIP3    H264764   5.422   2.355  16.149  0.6718 -1.6387  0.6034
14425TIP3   OH264765   2.454   0.713   1.877 -0.2159 -0.1468  0.3919
14425TIP3    H164766   2.364   0.705   1.844 -0.1838  2.3753 -0.5698
14425TIP3    H264767   2.448   0.688   1.969 -1.2609 -2.8689 -0.3278
14426TIP3   OH264768   1.336   1.619  13.293 -0.6853 -0.1580  0.5226
14426TIP3    H164769   1.369   1.649  13.377  0.2661 -0.3293  0.2267
14426TIP3    H264770   1.301   1.698  13.251  2.3199  0.7699 -0.4907
14427TIP3   OH264771   3.940   1.226   1.474  0.1167  0.3073  0.1006
14427TIP3    H164772   4.021   1.183   1.445  0.7798  0.2810  1.8590
14427TIP3    H264773   3.943   1.313   1.434  0.5839  0.0119 -0.5261
14428TIP3   OH264774   1.611   6.255  16.264 -0.0110 -0.2655  0.1597
14428TIP3    H164775   1.595   6.345  16.235 -0.6307 -0.6279 -0.6654
14428TIP3    H264776   1.594   6.258  16.359 -0.3233  0.4155  0.0927
14429TIP3   OH264777   6.287   0.383  15.125  0.5866 -0.2320 -0.8193
14429TIP3    H164778   6.315   0.369  15.035  0.4851  1.8870 -1.2215
14429TIP3    H264779   6.366   0.370  15.177  0.1368 -4.1743 -0.7973
14430TIP3   OH264780   5.044   6.368  15.214  0.3502 -0.0954  0.7293
14430TIP3    H164781   5.120   6.396  15.265  2.1726 -0.1075 -1.7394
14430TIP3    H264782   4.998   6.448  15.193  2.2984  0.5720 -1.4694
14431TIP3   OH264783   1.202   1.612  11.039  0.2498 -0.0271 -0.1742
14431TIP3    H164784   1.182   1.533  11.090  1.7729 -0.2849  0.0649
14431TIP3    H264785   1.130   1.618  10.977 -0.7213 -0.7062  0.8430
14432TIP3   OH264786   4.055   2.929  16.536 -0.4174  0.9187 -0.1149
14432TIP3    H164787   4.108   2.888  16.604  0.0818  0.6610 -0.6480
14432TIP3    H264788   3.967   2.892  16.549  0.0424 -0.4285 -0.6487
14433TIP3   OH264789   1.315   5.732   4.274 -0.1037  0.0937  0.0308
14433TIP3    H164790   1.349   5.818   4.299 -1.5428  0.9261 -0.7306
14433TIP3    H264791   1.373   5.704   4.203  1.5114 -0.4538  1.4972
14434TIP3   OH264792   2.403   1.045   6.036  0.3374 -0.1985 -0.5125
14434TIP3    H164793   2.407   1.099   6.115  0.3680  2.2130 -2.0503
14434TIP3    H264794   2.318   1.001   6.042 -0.6056  1.5703 -0.0974
14435TIP3   OH264795   2.882   1.669   4.067  0.5637 -0.6734  0.5441
14435TIP3    H164796   2.828   1.610   4.121  2.0880 -1.6210  1.0939
14435TIP3    H264797   2.818   1.725   4.023 -0.7983 -0.5903  2.4748
14436TIP3   OH264798   4.667   5.153  16.421 -0.1080 -0.1616 -0.0678
14436TIP3    H164799   4.612   5.224  16.455  0.3240  0.7314 -1.1393
14436TIP3    H264800   4.753   5.168  16.461  0.5591  1.2371 -1.8632
14437TIP3   OH264801   6.692   6.814   6.100  0.3117 -0.2761  0.0857
14437TIP3    H164802   6.640   6.848   6.027 -1.1116  1.0218  1.6268
14437TIP3    H264803   6.627   6.776   6.160  1.3707 -0.6883  1.0010
14438TIP3   OH264804   0.144   2.473   4.387  0.3291  0.7120  0.3562
14438TIP3    H164805   0.069   2.504   4.436 -0.6472 -0.4152 -0.3644
14438TIP3    H264806   0.219   2.516   4.428 -0.4983  0.3272  2.3795
14439TIP3   OH264807   0.470   1.784  11.122 -0.3019  0.3255  0.2512
14439TIP3    H164808   0.511   1.743  11.198  1.7995  0.0532 -0.9481
14439TIP3    H264809   0.384   1.741  11.115  0.4396 -1.4059  1.0551
14440TIP3   OH264810   6.800   1.030  16.673  0.5348  0.3735  0.8927
14440TIP3    H164811   6.834   0.941  16.660 -2.3588 -0.7956  0.4744
14440TIP3    H264812   6.740   1.022  16.747 -0.9309  1.5813 -0.1036
14441TIP3   OH264813   4.679   5.554  16.792  0.1391  0.2960  0.3747
14441TIP3    H164814   4.721   5.615  16.731  0.0684  0.7644  0.7914
14441TIP3    H264815   4.721   5.470  16.775 -1.3232 -0.0805 -1.8084
14442TIP3   OH264816   0.699   4.195  14.871  0.0982 -0.8268  0.2730
14442TIP3    H164817   0.608   4.200  14.898 -0.3441 -1.5154 -1.0027
14442TIP3    H264818   0.718   4.101  14.870 -0.1005 -0.9125 -2.2509
14443TIP3   OH264819   2.078   6.843   2.082 -0.4330  0.3616  0.6118
14443TIP3    H164820   2.014   6.786   2.123 -0.3009  0.4396  0.9299
14443TIP3    H264821   2.152   6.843   2.142 -0.3227  0.6451  0.4773
14444TIP3   OH264822   2.786   0.110   0.409  0.4764  0.7346  0.3642
14444TIP3    H164823   2.880   0.096   0.395  0.1004  0.9000 -3.3785
14444TIP3    H264824   2.780   0.200   0.443  1.6406  2.3160 -3.1632
14445TIP3   OH264825   3.536   4.653  13.627  0.3898  0.4960  0.0583
14445TIP3    H164826   3.571   4.722  13.684  0.7531  0.1075  0.3160
14445TIP3    H264827   3.520   4.579  13.686  0.3979  0.2208 -0.2796
14446TIP3   OH264828   3.577   5.796   2.635 -1.1385  0.3421 -0.8488
14446TIP3    H164829   3.482   5.803   2.644 -1.1365  0.2254 -0.7241
14446TIP3    H264830   3.601   5.727   2.697 -0.8833  0.8603 -0.3620
14447TIP3   OH264831   0.647   0.966   5.612  0.0228  0.1424 -0.8202
14447TIP3    H164832   0.692   0.885   5.634  0.0981 -0.4526 -2.9600
14447TIP3    H264833   0.716   1.026   5.584 -0.2798 -0.0731 -2.0910
14448TIP3   OH264834   1.818   6.189   4.998 -0.1199 -0.1418 -0.2284
14448TIP3    H164835   1.854   6.111   4.956 -0.2204 -0.0525 -0.4812
14448TIP3    H264836   1.874   6.261   4.968  0.5272 -0.2292  0.7021
14449TIP3   OH264837   1.423   6.571   5.146 -0.1218  0.3070 -0.6395
14449TIP3    H164838   1.424   6.656   5.103  1.3166 -0.0347 -1.3359
14449TIP3    H264839   1.497   6.524   5.108 -1.7840 -1.8257 -1.4226
14450TIP3   OH264840   5.769   4.726   3.112  0.0501 -0.2138 -0.0440
14450TIP3    H164841   5.840   4.675   3.151 -0.9872 -1.2795  0.5188
14450TIP3    H264842   5.689   4.688   3.149 -0.8082  1.1862 -0.3817
14451TIP3   OH264843   4.464   4.508   2.154  0.1424 -0.5361  0.2992
14451TIP3    H164844   4.389   4.465   2.196 -0.0136  0.4647  1.0873
14451TIP3    H264845   4.540   4.476   2.204  0.1433 -0.7310  0.1767
14452TIP3   OH264846   0.265   0.332   1.482 -0.0570  0.3273 -0.1516
14452TIP3    H164847   0.209   0.255   1.471  0.5648 -0.1537 -0.0443
14452TIP3    H264848   0.333   0.303   1.543 -1.0832  1.6587  1.7346
14453TIP3   OH264849   2.569   2.548   5.014 -0.2860  0.4276  0.4323
14453TIP3    H164850   2.563   2.458   4.984 -0.6256  0.9394 -1.1554
14453TIP3    H264851   2.632   2.546   5.086  0.8420 -0.8570 -0.5430
14454TIP3   OH264852   0.908   1.388   3.685 -0.4850  0.4302 -0.1831
14454TIP3    H164853   0.919   1.299   3.718 -0.0112  0.3511 -0.5443
14454TIP3    H264854   0.847   1.379   3.612 -0.5193  0.4208 -0.1536
14455TIP3   OH264855   5.459   5.355   5.157  0.1528 -0.0215 -0.5614
14455TIP3    H164856   5.430   5.266   5.178  0.9246 -0.4564 -1.2985
14455TIP3    H264857   5.544   5.364   5.200 -0.4625  0.8222  0.5563
14456TIP3   OH264858   0.119   4.675  14.506 -0.2550 -1.4065  0.2402
14456TIP3    H164859   0.214   4.670  14.521 -0.0146 -1.2757 -1.1460
14456TIP3    H264860   0.102   4.769  14.500 -0.3670 -1.4529 -0.1471
14457TIP3   OH264861   4.720   6.709  13.209  0.6709 -0.2795 -0.1891
14457TIP3    H164862   4.649   6.762  13.244 -0.6010 -1.9330 -0.1247
14457TIP3    H264863   4.731   6.740  13.119  0.0742  0.1994 -0.1044
14458TIP3   OH264864   2.348   0.747  14.677 -0.2471  0.2036  0.1774
14458TIP3    H164865   2.259   0.782  14.678 -1.3138 -2.3053  0.1590
14458TIP3    H264866   2.343   0.668  14.623  2.0741  0.1757 -0.1026
14459TIP3   OH264867   6.723   5.533  10.793 -1.2335  0.6415  0.0851
14459TIP3    H164868   6.806   5.546  10.840 -0.1660 -0.4061 -1.4022
14459TIP3    H264869   6.656   5.541  10.861  0.1453  0.4710  1.5422
14460TIP3   OH264870   3.424   1.009  11.139  0.0966 -0.1306 -0.0291
14460TIP3    H164871   3.384   0.939  11.191 -2.1612 -0.3995 -1.9528
14460TIP3    H264872   3.463   0.964  11.064  1.0931  0.4538  0.1311
14461TIP3   OH264873   1.443   6.621   1.555  0.3923 -0.1592 -0.8955
14461TIP3    H164874   1.509   6.659   1.497  1.6679 -1.0409 -0.0826
14461TIP3    H264875   1.467   6.528   1.560  0.3719 -0.0928  1.0709
14462TIP3   OH264876   6.240   4.547   6.137 -0.0172 -0.0744  0.5263
14462TIP3    H164877   6.306   4.496   6.185  1.1944 -0.9219 -1.8635
14462TIP3    H264878   6.172   4.565   6.201  0.4987 -2.9400  2.0236
14463TIP3   OH264879   0.632   5.408   1.897  0.3124 -0.0259 -0.4729
14463TIP3    H164880   0.720   5.380   1.921 -0.7853 -0.6357  3.7404
14463TIP3    H264881   0.574   5.347   1.942 -2.2921  1.3847 -1.6394
14464TIP3   OH264882   5.117   2.152   5.965  0.1775  0.3360  0.4820
14464TIP3    H164883   5.183   2.115   6.024  0.7758  0.8962  0.1761
14464TIP3    H264884   5.168   2.200   5.900 -0.4828 -0.1141 -0.3866
14465TIP3   OH264885   5.306   2.460   2.269 -0.0032 -0.0631  0.0581
14465TIP3    H164886   5.339   2.516   2.339  0.0192  0.7683 -0.6018
14465TIP3    H264887   5.382   2.411   2.239  0.0098 -0.3387  0.5394
14466TIP3   OH264888   2.117   6.388  10.981 -0.2996 -0.3096 -0.1255
14466TIP3    H164889   2.115   6.353  10.891  2.0753  1.3903 -0.9183
14466TIP3    H264890   2.175   6.329  11.028 -0.0958 -0.1644 -0.1944
14467TIP3   OH264891   3.060   5.952  11.998 -0.4202 -0.2044 -0.2294
14467TIP3    H164892   3.147   5.945  12.037  0.3448 -2.1098 -2.0694
14467TIP3    H264893   3.034   6.043  12.012  1.3843  0.1334  1.2990
14468TIP3   OH264894   6.129   2.527   0.894  0.2648  0.5844 -0.3005
14468TIP3    H164895   6.131   2.431   0.897  1.3131  0.5904 -0.2175
14468TIP3    H264896   6.207   2.550   0.843 -0.5749  1.3683 -1.2628
14469TIP3   OH264897   0.939   2.443  16.881  0.1689 -0.2357 -0.5560
14469TIP3    H164898   1.002   2.391  16.932  0.1638  0.0883 -0.2180
14469TIP3    H264899   0.908   2.510  16.942 -0.4659 -0.3580 -0.7411
14470TIP3   OH264900   6.042   1.242   5.641  0.3299 -0.7936 -0.1612
14470TIP3    H164901   6.087   1.173   5.689 -0.5887 -1.8222 -0.7303
14470TIP3    H264902   6.000   1.196   5.568 -0.2695  0.3838 -0.5761
14471TIP3   OH264903   2.689   4.799   0.254  0.1210 -0.7091  0.5631
14471TIP3    H164904   2.646   4.724   0.212  1.1624 -1.2341  0.4109
14471TIP3    H264905   2.775   4.804   0.213  0.2575  0.2672  0.9390
14472TIP3   OH264906   3.984   2.842   3.270 -0.2108  0.2912 -0.1227
14472TIP3    H164907   4.034   2.785   3.211 -0.8781 -0.4752  0.0331
14472TIP3    H264908   4.051   2.887   3.321  0.3955 -2.8881  2.1626
14473TIP3   OH264909   5.061   3.233   0.438 -0.2049 -0.2914  0.3183
14473TIP3    H164910   5.037   3.254   0.347  0.2140  0.9651  0.4863
14473TIP3    H264911   5.091   3.142   0.433  0.9418  0.1165 -1.0372
14474TIP3   OH264912   5.903   0.978   4.669 -0.1494 -0.1010 -0.2471
14474TIP3    H164913   5.927   0.931   4.590 -2.7929  1.1630 -1.9337
14474TIP3    H264914   5.982   1.025   4.694  0.5582  0.0614 -2.6034
14475TIP3   OH264915   6.721   6.453  13.296 -0.2847  0.4384 -0.3447
14475TIP3    H164916   6.776   6.507  13.240 -1.0042 -0.0319 -1.5375
14475TIP3    H264917   6.771   6.371  13.306  0.2513  0.8477  0.4690
14476TIP3   OH264918   4.895   4.709  12.036 -0.0190 -0.2408 -0.1952
14476TIP3    H164919   4.802   4.719  12.018 -0.2445 -1.2019  0.3918
14476TIP3    H264920   4.901   4.701  12.131  0.8359  1.4321 -0.0650
14477TIP3   OH264921   1.637   4.573   5.282  0.2963  0.4379 -0.0607
14477TIP3    H164922   1.637   4.582   5.187 -0.8702 -0.3211 -0.1530
14477TIP3    H264923   1.669   4.484   5.298  0.7657  0.6601  0.2848
14478TIP3   OH264924   2.025   1.437   3.816 -0.2796 -0.1546  0.6512
14478TIP3    H164925   2.051   1.471   3.730 -1.2777  0.3205  0.5134
14478TIP3    H264926   2.106   1.433   3.866  0.4215 -0.9722 -0.4866
14479TIP3   OH264927   5.659   0.843   3.320  0.1079  0.2183 -0.5114
14479TIP3    H164928   5.568   0.814   3.314  0.0720  0.5564 -2.5789
14479TIP3    H264929   5.652   0.935   3.345  0.0014 -0.2488  1.2748
14480TIP3   OH264930   2.659   1.494   6.244 -1.0063  0.4291 -0.5504
14480TIP3    H164931   2.673   1.525   6.333 -0.4084 -1.6900  0.1583
14480TIP3    H264932   2.741   1.513   6.199 -0.1525 -1.1284  0.2359
14481TIP3   OH264933   2.893   4.693  16.262  0.1011  0.2988  0.2967
14481TIP3    H164934   2.895   4.682  16.167  0.0011 -0.4708  0.3809
14481TIP3    H264935   2.831   4.765  16.276  0.0326  0.3456 -0.2105
14482TIP3   OH264936   6.503   1.469   1.593 -0.9432  0.0562 -0.4494
14482TIP3    H164937   6.464   1.387   1.562 -0.5139  0.7156 -2.9576
14482TIP3    H264938   6.430   1.530   1.598 -1.1669 -0.2898  0.8511
14483TIP3   OH264939   5.146   2.936   0.392 -0.3973 -0.3297  0.3130
14483TIP3    H164940   5.116   2.848   0.369 -1.2578  0.0756 -0.1081
14483TIP3    H264941   5.221   2.951   0.335  0.6107 -1.3074  1.3132
14484TIP3   OH264942   0.291   5.924   1.214 -0.7719 -0.5070 -0.1400
14484TIP3    H164943   0.343   5.979   1.156 -1.3105  1.6446  1.2992
14484TIP3    H264944   0.355   5.862   1.251  1.1626  2.5542  2.1933
14485TIP3   OH264945   4.409   1.200   2.875 -0.1971  0.1369  0.0787
14485TIP3    H164946   4.503   1.207   2.894 -0.1915  0.0363  0.0894
14485TIP3    H264947   4.377   1.290   2.876 -0.3955  0.0770  1.5939
14486TIP3   OH264948   6.348   1.897   5.761 -0.3015 -0.0650 -0.0371
14486TIP3    H164949   6.301   1.961   5.708  1.2231  0.9537 -0.2311
14486TIP3    H264950   6.290   1.881   5.836 -0.8684  1.3096 -0.1394
14487TIP3   OH264951   2.236   4.890   5.814 -0.1229  0.1083  0.6258
14487TIP3    H164952   2.146   4.917   5.800  0.0374  0.9177  1.0910
14487TIP3    H264953   2.286   4.937   5.747 -0.0232 -0.2106  0.4722
14488TIP3   OH264954   3.342   5.959  13.301 -0.1152 -0.0432 -0.0834
14488TIP3    H164955   3.301   5.885  13.346  0.2396 -0.5517 -0.5835
14488TIP3    H264956   3.268   6.011  13.269 -0.4703 -1.6577 -2.1406
14489TIP3   OH264957   2.669   2.848   5.660 -0.4880  0.0432  0.0966
14489TIP3    H164958   2.603   2.918   5.654 -0.0877  0.3903 -0.4287
14489TIP3    H264959   2.629   2.781   5.715 -0.5858  1.0203  1.2585
14490TIP3   OH264960   2.023   4.439   1.591  0.5480 -0.6400  0.3830
14490TIP3    H164961   1.958   4.403   1.651  0.2829  0.1542  0.5968
14490TIP3    H264962   2.021   4.533   1.609 -0.2621 -0.2340 -1.5626
14491TIP3   OH264963   0.026   4.239   1.215 -0.0669 -0.0204 -0.3504
14491TIP3    H164964  -0.040   4.232   1.284  1.9545 -1.4424  1.6006
14491TIP3    H264965  -0.008   4.186   1.143 -1.1268 -0.6150  0.5560
14492TIP3   OH264966   5.394   2.443   5.558  0.1384  0.0747 -0.2442
14492TIP3    H164967   5.306   2.437   5.520 -0.2539 -3.4878  0.8178
14492TIP3    H264968   5.418   2.352   5.575  3.4823  1.0416  0.8212
14493TIP3   OH264969   5.515   6.538   0.767 -0.0896 -0.0009 -0.3151
14493TIP3    H164970   5.553   6.572   0.686  0.3709 -0.7230 -0.4153
14493TIP3    H264971   5.497   6.446   0.749  1.1852 -0.5122  0.7679
14494TIP3   OH264972   3.358   4.785  11.057 -0.2471 -0.2769 -0.1086
14494TIP3    H164973   3.425   4.853  11.058 -0.2988 -0.1041 -2.3833
14494TIP3    H264974   3.403   4.707  11.089  1.1781 -0.2417 -1.8876
14495TIP3   OH264975   6.100   4.839  16.826  0.4836 -0.3445  0.7298
14495TIP3    H164976   6.115   4.932  16.842 -0.1416  0.1795 -1.3514
14495TIP3    H264977   6.042   4.837  16.750  0.2266 -2.4453  0.9164
14496TIP3   OH264978   0.077   4.771  14.173  0.2349 -0.4331  0.2494
14496TIP3    H164979   0.127   4.853  14.172 -0.0536 -0.2533 -0.4198
14496TIP3    H264980   0.122   4.716  14.108 -2.0285  0.7470 -2.5508
14497TIP3   OH264981   1.559   6.058  15.605 -0.3570  0.2565  0.1501
14497TIP3    H164982   1.525   6.121  15.669  1.1294  0.9757  0.2668
14497TIP3    H264983   1.560   6.105  15.522  0.9050  0.4568  0.2677
14498TIP3   OH264984   0.581   5.874  14.210 -0.2324  0.3371  0.3100
14498TIP3    H164985   0.607   5.783  14.197 -0.4811  0.0840  1.4559
14498TIP3    H264986   0.495   5.881  14.170 -0.0480  0.1747 -0.1209
14499TIP3   OH264987   1.451   4.824  15.614  0.5941 -0.2261 -0.2660
14499TIP3    H164988   1.543   4.807  15.593  0.4776  0.4348 -1.4276
14499TIP3    H264989   1.408   4.832  15.529 -0.6257 -0.9330  0.2622
14500TIP3   OH264990   1.483   3.084   4.078  0.3492 -0.3716  0.3728
14500TIP3    H164991   1.510   3.127   3.997  0.3122 -0.4009  0.3451
14500TIP3    H264992   1.428   3.012   4.050 -0.6522  0.3332  0.4800
14501TIP3   OH264993   4.670   1.845  12.834 -0.0032  0.1699  0.2812
14501TIP3    H164994   4.614   1.841  12.912 -0.0664  1.3051  0.3102
14501TIP3    H264995   4.759   1.857  12.868  0.1441 -0.6211  0.2032
14502TIP3   OH264996   5.379   4.636   2.725  0.1670  0.9661 -0.1902
14502TIP3    H164997   5.400   4.708   2.785 -0.6300  3.4286 -2.6596
14502TIP3    H264998   5.295   4.661   2.687 -0.2787 -1.4842 -0.9338
14503TIP3   OH264999   4.832   5.965  14.647  0.3198 -0.1113 -0.5150
14503TIP3    H165000   4.905   5.955  14.586  0.0869 -1.3257 -0.6376
14503TIP3    H265001   4.758   5.990  14.591  0.3762 -0.0596 -0.5660
14504TIP3   OH265002   3.100   6.614   5.409  0.0336 -0.2792 -0.1142
14504TIP3    H165003   3.182   6.589   5.453  0.7453  1.7200 -0.1764
14504TIP3    H265004   3.031   6.591   5.471  0.5326 -2.6952 -0.3661
14505TIP3   OH265005   5.024   2.117   0.669 -0.1027 -0.7696 -0.6917
14505TIP3    H165006   5.045   2.171   0.592 -0.8039  0.7805  0.1734
14505TIP3    H265007   5.004   2.180   0.738 -0.2850 -2.1478  0.5553
14506TIP3   OH265008   1.072   0.906   1.770  0.1990 -0.0333  0.6184
14506TIP3    H165009   1.003   0.897   1.836 -0.1829  0.5190  0.3060
14506TIP3    H265010   1.026   0.897   1.686  0.2578  1.6956  0.3682
14507TIP3   OH265011   2.889   4.075  12.522  0.9209  0.3410 -0.4336
14507TIP3    H165012   2.888   3.980  12.538  0.5878  0.6470  1.6703
14507TIP3    H265013   2.972   4.091  12.478 -0.4206 -1.3119 -4.0073
14508TIP3   OH265014   3.566   2.620  12.899  0.1610 -0.4805  0.0085
14508TIP3    H165015   3.608   2.534  12.904  0.1188 -0.4758  3.5960
14508TIP3    H265016   3.473   2.601  12.917  0.0284  0.2274  0.0878
14509TIP3   OH265017   6.706   3.417   4.551 -0.3123  0.1246  0.1216
14509TIP3    H165018   6.676   3.337   4.508  1.7291 -0.5012 -0.2249
14509TIP3    H265019   6.652   3.486   4.512 -0.1488 -0.7267 -1.6973
14510TIP3   OH265020   6.669   0.412  11.622  0.1503  0.1115 -0.6516
14510TIP3    H165021   6.713   0.479  11.569 -0.3729  1.5553  0.6516
14510TIP3    H265022   6.701   0.427  11.711  0.0341 -1.4128 -0.3322
14511TIP3   OH265023   6.672   2.747   1.823 -0.0903 -0.3110 -0.0801
14511TIP3    H165024   6.683   2.841   1.810 -1.1492 -0.2174 -0.3845
14511TIP3    H265025   6.635   2.715   1.741  1.2971 -1.2040 -0.4040
14512TIP3   OH265026   6.058   3.524   4.126 -0.6683 -0.6696 -0.1295
14512TIP3    H165027   6.118   3.590   4.160  0.3441 -2.2487  1.2833
14512TIP3    H265028   5.987   3.521   4.189 -0.2027 -1.6118  0.3707
14513TIP3   OH265029   3.737   5.612  12.195 -0.1566  0.0050 -0.7795
14513TIP3    H165030   3.753   5.524  12.228  1.4656  0.2034 -1.0042
14513TIP3    H265031   3.691   5.655  12.267 -2.0606 -1.3349 -1.1102
14514TIP3   OH265032   3.333   4.600  13.952  0.2272  0.3233 -0.0298
14514TIP3    H165033   3.396   4.544  13.907 -0.4447 -0.4048 -0.0727
14514TIP3    H265034   3.378   4.627  14.033 -0.2401 -2.0968  1.1134
14515TIP3   OH265035   3.656   0.149  15.589 -0.3965 -0.4721 -0.1236
14515TIP3    H165036   3.696   0.207  15.524 -1.1262 -0.5301 -0.6295
14515TIP3    H265037   3.628   0.208  15.660  0.4232 -0.4128  0.1631
14516TIP3   OH265038   4.743   6.621   3.532 -1.0803  0.0312 -0.7500
14516TIP3    H165039   4.764   6.682   3.602 -2.5513 -0.7541  0.4191
14516TIP3    H265040   4.747   6.673   3.452  2.1170  0.6316 -0.3360
14517TIP3   OH265041   2.783   4.913   1.840 -0.9172  0.5145  0.2706
14517TIP3    H165042   2.808   4.826   1.810  0.1041  0.2720  1.7606
14517TIP3    H265043   2.716   4.941   1.777  0.0390 -0.5784 -1.3062
14518TIP3   OH265044   3.133   0.736  12.274 -0.3467  0.0089 -0.2192
14518TIP3    H165045   3.069   0.801  12.302 -0.4550 -0.5734  0.9381
14518TIP3    H265046   3.100   0.653  12.310  1.7560 -0.1063  1.6256
14519TIP3   OH265047   2.844   2.488  13.378 -0.8070 -0.9058  0.0771
14519TIP3    H165048   2.860   2.414  13.437  0.2885 -0.0940  0.8366
14519TIP3    H265049   2.882   2.462  13.295 -2.0572 -1.9217 -0.2177
14520TIP3   OH265050   5.695   4.238   3.698  0.3031 -0.3662  0.1806
14520TIP3    H165051   5.686   4.195   3.613 -0.7831 -0.3951  0.2992
14520TIP3    H265052   5.698   4.166   3.761 -1.0286 -0.3144  0.3360
14521TIP3   OH265053   5.808   6.431  12.018  0.3466 -0.6891 -0.3042
14521TIP3    H165054   5.881   6.408  11.961 -0.0667  1.0144 -1.6198
14521TIP3    H265055   5.731   6.393  11.976 -0.0330  1.0257 -1.2659
14522TIP3   OH265056   3.726   3.028  15.799 -0.1384  0.4039 -0.0197
14522TIP3    H165057   3.802   2.974  15.821  0.3035  0.3060 -1.6256
14522TIP3    H265058   3.760   3.117  15.794 -0.5902  0.6704  1.3218
14523TIP3   OH265059   5.956   4.635   5.576 -0.0353 -0.0634  0.3417
14523TIP3    H165060   5.956   4.703   5.644 -1.2053  0.1333  0.1609
14523TIP3    H265061   5.885   4.660   5.517  2.3594  1.0867 -2.3030
14524TIP3   OH265062   1.082   5.040   6.413  0.5403 -0.1636  0.0922
14524TIP3    H165063   1.063   4.989   6.334  0.5507  0.5605 -0.3898
14524TIP3    H265064   1.171   5.072   6.399  0.0586  1.0840 -0.2339
14525TIP3   OH265065   4.162   3.298   2.508 -0.3437 -0.2298 -0.1404
14525TIP3    H165066   4.233   3.337   2.558 -1.1519  0.3340  0.5814
14525TIP3    H265067   4.196   3.212   2.480  0.9288  0.3939 -0.5650
14526TIP3   OH265068   2.029   3.165  14.113  0.2589  0.1488 -0.2239
14526TIP3    H165069   2.066   3.251  14.133  0.4969  0.1299 -0.5700
14526TIP3    H265070   2.092   3.125  14.053  0.0843 -0.2152 -0.1694
14527TIP3   OH265071   0.095   0.659  11.263 -0.0261 -0.1722  0.1740
14527TIP3    H165072   0.088   0.750  11.237 -1.4013 -0.2288  0.2535
14527TIP3    H265073   0.034   0.650  11.336 -0.5907 -1.3386 -0.4076
14528TIP3   OH265074   3.628   6.385  16.814 -0.0411  0.2851  0.4412
14528TIP3    H165075   3.691   6.338  16.867 -0.8818  0.1451  1.3467
14528TIP3    H265076   3.566   6.423  16.877 -2.2519 -1.5597 -0.4712
14529TIP3   OH265077   0.230   2.279   3.113 -0.0446  0.1681  0.3528
14529TIP3    H165078   0.237   2.354   3.053 -1.1535 -1.1081 -1.5019
14529TIP3    H265079   0.310   2.282   3.164  0.3088  2.1542 -0.2166
14530TIP3   OH265080   0.214   0.789  11.502  0.0074 -0.6265  0.1544
14530TIP3    H165081   0.127   0.749  11.509 -1.2961  1.4248 -2.5038
14530TIP3    H265082   0.207   0.869  11.555  1.1730 -1.6227  1.9193
14531TIP3   OH265083   3.687   6.796  16.508 -0.5127  0.5368 -0.0689
14531TIP3    H165084   3.764   6.752  16.473  0.7968  1.9577  0.9406
14531TIP3    H265085   3.656   6.852  16.436 -0.5720  0.0405 -0.4380
14532TIP3   OH265086   0.191   5.167  16.790 -0.5659  0.3239 -0.0534
14532TIP3    H165087   0.194   5.087  16.843 -1.3398  0.0079 -0.4577
14532TIP3    H265088   0.132   5.225  16.837 -1.9978 -0.3087 -0.9915
14533TIP3   OH265089   0.113   6.841   6.088 -0.2951  0.3568  0.2663
14533TIP3    H165090   0.034   6.786   6.095  0.6937 -1.3941 -1.4159
14533TIP3    H265091   0.164   6.819   6.165 -0.3366 -0.3993  0.0847
14534TIP3   OH265092   4.009   1.924   1.620  0.2219 -0.2801  0.2850
14534TIP3    H165093   3.927   1.877   1.608 -0.6339  1.0791  0.6263
14534TIP3    H265094   4.020   1.976   1.541 -0.2328  0.9702  1.0165
14535TIP3   OH265095   4.517   1.632   0.683 -0.0606  0.1161 -0.4346
14535TIP3    H165096   4.507   1.552   0.631 -2.8001  0.0710  0.0625
14535TIP3    H265097   4.466   1.616   0.762  2.3845  0.9675  1.4362
14536TIP3   OH265098   3.683   5.824   1.284 -0.6158 -0.5722 -0.3289
14536TIP3    H165099   3.759   5.767   1.297  1.2332  1.8013  0.1315
14536TIP3    H265100   3.701   5.870   1.202 -1.2631  0.4159  0.0605
14537TIP3   OH265101   2.295   6.516   4.792  0.1311  0.0000 -0.2112
14537TIP3    H165102   2.363   6.457   4.825 -0.0102  0.4518  0.9235
14537TIP3    H265103   2.225   6.510   4.857 -0.0884  1.0534 -0.3421
14538TIP3   OH265104   1.002   2.266  13.268  0.0743 -0.2241 -0.1276
14538TIP3    H165105   1.088   2.271  13.227 -0.3940 -0.6992 -1.2092
14538TIP3    H265106   1.019   2.236  13.357  1.1147  0.7880  0.0334
14539TIP3   OH265107   6.804   3.868  13.323  1.0693 -0.3095 -0.3126
14539TIP3    H165108   6.883   3.817  13.338  1.1060 -0.6391 -1.5128
14539TIP3    H265109   6.821   3.952  13.365  3.5677  0.9439 -3.4110
14540TIP3   OH265110   1.270   5.014  11.391  0.1448 -0.2297  0.2318
14540TIP3    H165111   1.302   5.104  11.389 -1.9841  0.6343  1.5585
14540TIP3    H265112   1.316   4.974  11.465 -0.6011  0.5444  1.1601
14541TIP3   OH265113   3.961   6.440  16.223  0.1776  0.1738  0.0429
14541TIP3    H165114   3.930   6.379  16.156  0.5830 -0.3817  0.3470
14541TIP3    H265115   3.945   6.394  16.306 -3.0738  2.0002  0.6140
14542TIP3   OH265116   5.791   2.658   4.174 -0.2057 -0.4028  0.3132
14542TIP3    H165117   5.799   2.671   4.080  0.1928  0.9173  0.5056
14542TIP3    H265118   5.732   2.584   4.183  0.9042 -1.5040 -0.9902
14543TIP3   OH265119   6.057   1.187  13.883  0.0151 -0.1617 -0.2572
14543TIP3    H165120   6.045   1.113  13.943 -1.0145 -0.2945 -0.6128
14543TIP3    H265121   6.014   1.261  13.926 -0.7396 -0.2610 -0.8343
14544TIP3   OH265122   5.993   5.111   6.014  0.2172 -0.5828 -0.1489
14544TIP3    H165123   6.011   5.138   5.923  0.8265  0.1335  0.1713
14544TIP3    H265124   5.988   5.194   6.062  0.3091 -0.9768  0.5414
14545TIP3   OH265125   4.369   3.007  13.282 -0.3236  0.1883  0.1815
14545TIP3    H165126   4.296   3.038  13.229 -0.0037  1.4571  0.4442
14545TIP3    H265127   4.428   3.082  13.288 -0.1987 -0.0186  2.0708
14546TIP3   OH265128   0.650   5.459  11.795 -0.3166  0.3095  0.0534
14546TIP3    H165129   0.640   5.515  11.717 -1.4873 -0.3368 -0.2821
14546TIP3    H265130   0.637   5.370  11.763 -1.1210  0.0548  1.0263
14547TIP3   OH265131   6.164   4.551   1.833 -0.1864 -0.5614  0.1492
14547TIP3    H165132   6.119   4.551   1.749  0.9220 -0.1465 -0.4616
14547TIP3    H265133   6.196   4.641   1.843 -2.2632  0.0788  2.1194
14548TIP3   OH265134   2.414   4.357   3.035  0.0337 -0.6786  0.1244
14548TIP3    H165135   2.380   4.293   2.972 -0.4195 -0.4186  0.1048
14548TIP3    H265136   2.337   4.394   3.076  0.3245 -0.6792  0.6770
14549TIP3   OH265137   3.624   0.464  15.017  0.0770 -0.2787  0.4509
14549TIP3    H165138   3.664   0.427  14.938 -1.4132  0.7386 -0.8596
14549TIP3    H265139   3.535   0.427  15.019  0.1779 -0.5031  1.8274
14550TIP3   OH265140   0.550   1.533   0.369 -0.5619  0.6858 -0.3498
14550TIP3    H165141   0.499   1.472   0.315  0.7541 -1.0890  0.3199
14550TIP3    H265142   0.613   1.572   0.308 -0.4916  0.3107 -0.5226
14551TIP3   OH265143   0.442   5.162   0.234 -0.5753 -0.3314  0.3715
14551TIP3    H165144   0.508   5.230   0.224 -0.8356 -0.2329 -0.7973
14551TIP3    H265145   0.374   5.202   0.287 -1.3531  0.8280 -1.3907
14552TIP3   OH265146   2.748   5.967  16.840 -0.1555  0.4873  0.0994
14552TIP3    H165147   2.657   5.940  16.826 -0.0861  1.3583 -2.7598
14552TIP3    H265148   2.788   5.960  16.753  2.1575  1.4022  1.0208
14553TIP3   OH265149   0.653   0.813   4.593  0.0677 -0.3283 -0.3369
14553TIP3    H165150   0.721   0.865   4.638 -0.0842  0.1342 -0.6354
14553TIP3    H265151   0.693   0.790   4.509  0.2597 -0.9842 -0.0672
14554TIP3   OH265152   4.855   1.147  13.267 -0.1219  0.5747  0.1295
14554TIP3    H165153   4.825   1.141  13.176 -1.5785  0.2658  0.6055
14554TIP3    H265154   4.923   1.081  13.275 -0.6546 -0.0608 -0.4910
14555TIP3   OH265155   5.221   5.583   0.747  0.0827 -0.2155  0.7467
14555TIP3    H165156   5.151   5.518   0.737 -0.7453  0.2602  2.9189
14555TIP3    H265157   5.232   5.619   0.659 -0.6148 -2.0734 -0.1620
14556TIP3   OH265158   4.856   4.073   4.705 -0.0745 -0.0231 -0.5146
14556TIP3    H165159   4.940   4.098   4.743  0.5215 -1.1094 -1.0679
14556TIP3    H265160   4.829   3.996   4.757 -1.2877  0.9642  0.3916
14557TIP3   OH265161   0.898   3.038   5.482 -0.8751 -0.9273  0.1309
14557TIP3    H165162   0.971   3.075   5.432 -1.8538 -1.4995 -1.8319
14557TIP3    H265163   0.877   3.104   5.548 -0.7080  0.7245 -1.4056
14558TIP3   OH265164   2.401   5.966   4.393  0.3731 -0.1691  0.1665
14558TIP3    H165165   2.466   6.001   4.454 -0.6408 -2.1884  2.5764
14558TIP3    H265166   2.317   5.992   4.431 -0.3440  1.3087 -2.2036
14559TIP3   OH265167   4.418   0.106   3.762  0.2865 -0.4350 -0.3684
14559TIP3    H165168   4.514   0.110   3.757  0.4269  0.5579  1.6799
14559TIP3    H265169   4.391   0.198   3.770 -0.7549 -0.7508 -0.0950
14560TIP3   OH265170   5.234   1.521  10.788  0.4466 -0.4430  0.1907
14560TIP3    H165171   5.295   1.472  10.843  0.6998  2.2743  2.5949
14560TIP3    H265172   5.152   1.471  10.793  1.1756 -1.6192  0.9135
14561TIP3   OH265173   5.362   2.171   4.937  0.3621 -0.1930 -0.3224
14561TIP3    H165174   5.298   2.124   4.992 -0.5402  0.0365 -1.1478
14561TIP3    H265175   5.427   2.104   4.915  0.1471 -0.5639  0.1295
14562TIP3   OH265176   2.642   1.379  11.377 -0.6835  0.6802  0.5557
14562TIP3    H165177   2.693   1.301  11.355 -1.4404 -0.3773  2.3755
14562TIP3    H265178   2.596   1.401  11.296 -1.4046 -1.5126  0.3128
14563TIP3   OH265179   0.954   2.255  12.795  0.2916  0.2485  0.2133
14563TIP3    H165180   0.894   2.270  12.867  0.9946 -0.9012  1.0640
14563TIP3    H265181   0.999   2.339  12.783  2.2237 -0.2564  3.0652
14564TIP3   OH265182   3.111   2.020  11.044  0.4298 -0.1527 -0.0568
14564TIP3    H165183   3.134   2.055  10.958 -3.2302 -2.0632 -2.0482
14564TIP3    H265184   3.184   1.964  11.068  2.0790  1.3582 -1.3099
14565TIP3   OH265185   6.791   4.920  14.771  0.0237 -0.4200  0.0604
14565TIP3    H165186   6.769   5.011  14.756 -0.6475 -0.3803  1.1576
14565TIP3    H265187   6.876   4.908  14.728  0.1099  0.7136 -0.1050
14566TIP3   OH265188   3.110   3.327  12.226  0.6284 -0.0560  0.1131
14566TIP3    H165189   3.125   3.249  12.173  3.3261 -0.1305  0.8430
14566TIP3    H265190   3.090   3.396  12.163  1.1663 -0.7017 -0.7787
14567TIP3   OH265191   1.869   6.304  15.170 -0.8023  0.1798 -0.3387
14567TIP3    H165192   1.794   6.341  15.215 -0.3494  0.4043  0.2393
14567TIP3    H265193   1.897   6.231  15.225  1.4300  2.0909  1.2886
14568TIP3   OH265194   4.137   2.476  13.113  0.1102  0.1794 -0.4707
14568TIP3    H165195   4.203   2.419  13.153  0.6616  1.3293  0.3117
14568TIP3    H265196   4.071   2.488  13.181  1.6790  3.1838  0.7339
14569TIP3   OH265197   6.606   6.307   3.777  0.3235  0.3473 -0.8509
14569TIP3    H165198   6.646   6.331   3.861 -2.8094  3.5583 -0.0000
14569TIP3    H265199   6.560   6.225   3.795  0.4356  0.5226  0.3388
14570TIP3   OH265200   0.512   6.569   5.653  0.8275 -0.5430 -0.2868
14570TIP3    H165201   0.446   6.528   5.708  1.7917 -1.2566  0.3758
14570TIP3    H265202   0.471   6.650   5.623 -0.9024 -1.6697 -1.1351
14571TIP3   OH265203   5.130   2.420  12.027 -0.1204  0.0419 -0.2365
14571TIP3    H165204   5.109   2.480  11.956 -0.2244 -0.2311 -0.4392
14571TIP3    H265205   5.060   2.354  12.023  0.3103 -0.4112 -0.3836
14572TIP3   OH265206   6.527   0.527  13.312 -0.1060  0.1352 -0.9568
14572TIP3    H165207   6.462   0.563  13.251 -1.7660 -0.2009  0.5399
14572TIP3    H265208   6.510   0.572  13.395  0.3855 -1.2565 -0.0692
14573TIP3   OH265209   2.676   6.546  14.407  0.4584  0.6873  0.4077
14573TIP3    H165210   2.701   6.592  14.327 -2.7342  0.3425 -0.9459
14573TIP3    H265211   2.683   6.454  14.384 -0.5443  0.5892  0.4494
14574TIP3   OH265212   2.842   3.258   5.656  0.1949 -0.5293  0.1925
14574TIP3    H165213   2.780   3.282   5.725 -1.8219  1.4853 -2.1598
14574TIP3    H265214   2.801   3.184   5.611  0.1442 -0.0489 -0.5571
14575TIP3   OH265215   2.029   3.450  14.999  0.4395  0.2129  0.9243
14575TIP3    H165216   2.097   3.423  15.061  1.2712  0.9372  0.3683
14575TIP3    H265217   2.075   3.456  14.915 -0.4202  0.3019  0.4494
14576TIP3   OH265218   4.730   5.580  15.965 -0.2546 -0.4411 -0.0459
14576TIP3    H165219   4.813   5.618  15.994 -1.0387  1.1651  0.2091
14576TIP3    H265220   4.755   5.510  15.905  1.2625  0.5268 -0.5882
14577TIP3   OH265221   0.103   2.069   1.585  0.3572  0.3831 -0.3477
14577TIP3    H165222   0.070   2.144   1.635  0.2242  2.4815 -3.3207
14577TIP3    H265223   0.192   2.093   1.561  1.3461 -1.7216  0.9102
14578TIP3   OH265224   4.294   4.926  12.965 -0.3235  0.3254  0.1688
14578TIP3    H165225   4.340   4.843  12.954 -0.6654  0.0507  0.7396
14578TIP3    H265226   4.361   4.987  12.996 -0.1227  0.2054 -0.0264
14579TIP3   OH265227   6.783   0.594   1.035  0.3614  0.5453 -0.0597
14579TIP3    H165228   6.866   0.637   1.056  0.5761 -0.1278  0.4883
14579TIP3    H265229   6.726   0.665   1.005  0.1698  1.5070  2.3828
14580TIP3   OH265230   6.404   5.831   4.203  0.0745  0.1387  0.0660
14580TIP3    H165231   6.338   5.772   4.166  0.0829  1.1063 -1.6172
14580TIP3    H265232   6.467   5.773   4.246 -1.0220 -0.9145  0.2908
14581TIP3   OH265233   0.654   5.633  12.003 -0.0438  0.3407  0.0370
14581TIP3    H165234   0.724   5.688  11.967 -1.0002  0.9654 -0.9753
14581TIP3    H265235   0.647   5.560  11.941 -0.4843  0.4511 -0.0463
14582TIP3   OH265236   2.994   5.837   0.331 -0.0439  0.5437  0.6454
14582TIP3    H165237   2.921   5.778   0.349  0.4538 -0.6924 -1.2434
14582TIP3    H265238   2.972   5.880   0.249  2.3872 -1.6771 -1.3234
14583TIP3   OH265239   2.651   2.618   2.122 -0.0140 -0.1509 -0.0608
14583TIP3    H165240   2.706   2.642   2.049 -0.9502  0.0576 -0.7159
14583TIP3    H265241   2.566   2.597   2.083 -0.8477  0.9983  1.0499
14584TIP3   OH265242   0.228   0.864   4.693 -0.0372 -0.4022  0.3264
14584TIP3    H165243   0.176   0.853   4.773  0.5804  0.4758  0.8650
14584TIP3    H265244   0.283   0.940   4.711  0.8012 -0.7785 -0.5715
14585TIP3   OH265245   5.134   2.310  13.206  0.2057 -0.1081 -0.7635
14585TIP3    H165246   5.104   2.219  13.207  0.0323 -0.0482 -0.5671
14585TIP3    H265247   5.060   2.360  13.239 -0.1416  0.2480 -2.0217
14586TIP3   OH265248   0.961   4.437  16.177  0.1988 -0.2069 -0.0573
14586TIP3    H165249   0.998   4.494  16.244  1.1541 -0.0686 -0.6788
14586TIP3    H265250   0.997   4.471  16.095 -0.1691 -0.9739 -0.5424
14587TIP3   OH265251   1.757   0.515   1.556  0.5310 -0.0806  0.6717
14587TIP3    H165252   1.674   0.499   1.601 -1.1545  1.6576 -1.5762
14587TIP3    H265253   1.774   0.608   1.569  0.5725  0.2193 -1.2743
14588TIP3   OH265254   4.196   0.690  16.017 -0.4147 -0.3950  0.2559
14588TIP3    H165255   4.240   0.708  15.934 -0.2037 -0.8793  0.2561
14588TIP3    H265256   4.116   0.644  15.992 -0.9345  0.4871  0.2549
14589TIP3   OH265257   2.152   6.092  14.586 -0.4496 -0.0711 -0.2598
14589TIP3    H165258   2.221   6.157  14.572 -0.8812  0.6581  0.8565
14589TIP3    H265259   2.200   6.013  14.613 -0.0347  0.6040  1.1249
14590TIP3   OH265260   1.593   5.593  12.165  0.0303 -0.2959 -0.2402
14590TIP3    H165261   1.596   5.526  12.233 -0.2100  0.6265  0.7000
14590TIP3    H265262   1.573   5.545  12.085 -1.4933 -1.1923  0.6376
14591TIP3   OH265263   3.193   1.065  13.282 -0.2216  0.3481 -0.3491
14591TIP3    H165264   3.173   1.085  13.191 -2.9002 -1.8846 -0.4199
14591TIP3    H265265   3.225   1.147  13.319  2.5033  0.9496 -3.5866
14592TIP3   OH265266   0.073   5.700  12.603  0.5308 -0.5650 -0.0567
14592TIP3    H165267   0.167   5.714  12.597  0.7461 -1.4072  1.0933
14592TIP3    H265268   0.034   5.787  12.591  1.3994 -0.3348 -1.3426
14593TIP3   OH265269   4.242   0.850  15.351 -0.7981  0.2166 -0.3571
14593TIP3    H165270   4.245   0.754  15.353 -0.9172  0.2234  0.3022
14593TIP3    H265271   4.236   0.876  15.443 -0.5523  0.8658 -0.5159
14594TIP3   OH265272   5.735   4.489   4.094 -0.8512  0.1937  0.1544
14594TIP3    H165273   5.764   4.491   4.185  1.1485 -0.1490 -0.4378
14594TIP3    H265274   5.806   4.532   4.045 -1.2149 -0.9098 -1.4125
14595TIP3   OH265275   4.509   0.908   0.212  0.6055 -0.0422  0.4130
14595TIP3    H165276   4.482   0.929   0.301  1.6215 -1.4414  1.0835
14595TIP3    H265277   4.541   0.991   0.177  1.2419  0.3043  1.7511
14596TIP3   OH265278   2.387   4.900   0.242  0.3156  0.3963 -0.0007
14596TIP3    H165279   2.315   4.960   0.260 -0.3544 -1.1267  3.0934
14596TIP3    H265280   2.465   4.947   0.271  0.1664  0.8401 -0.3113
14597TIP3   OH265281   1.185   5.790   5.607  0.1752 -0.0813 -0.2973
14597TIP3    H165282   1.148   5.858   5.663 -0.1681  0.2070 -0.8654
14597TIP3    H265283   1.194   5.714   5.664  0.8706  0.5292  0.4312
14598TIP3   OH265284   4.266   4.819   4.412  0.0670  0.4762 -0.5610
14598TIP3    H165285   4.199   4.759   4.445  0.3541 -0.1425 -1.0674
14598TIP3    H265286   4.349   4.781   4.441  0.1998  1.3364  0.2151
14599TIP3   OH265287   2.956   6.514  16.866 -0.6771 -0.2733  0.1198
14599TIP3    H165288   2.980   6.601  16.834  1.3639 -1.3182 -1.4340
14599TIP3    H265289   2.944   6.526  16.960  0.9682  1.4266  0.1848
14600TIP3   OH265290   4.828   0.504   4.244 -0.7454  0.0078  0.0902
14600TIP3    H165291   4.901   0.443   4.255 -0.6466 -0.1203 -1.1130
14600TIP3    H265292   4.862   0.571   4.185 -0.7158  1.4927  1.7100
14601TIP3   OH265293   3.447   3.833  14.453  0.1443  0.5575  0.4717
14601TIP3    H165294   3.537   3.845  14.424  0.4115 -2.0324  0.0073
14601TIP3    H265295   3.411   3.922  14.458  2.4249  1.5799 -0.2118
14602TIP3   OH265296   5.241   3.785   0.570  0.1560 -0.1169 -0.3451
14602TIP3    H165297   5.266   3.736   0.649 -0.1368 -0.9932 -0.7845
14602TIP3    H265298   5.170   3.842   0.599 -0.3666 -0.8715 -0.0896
14603TIP3   OH265299   4.615   3.179   0.323  0.1804 -0.0401 -0.3601
14603TIP3    H165300   4.618   3.124   0.401  2.2135  0.4843 -0.0254
14603TIP3    H265301   4.702   3.173   0.285 -0.2625  1.0605 -1.6600
14604TIP3   OH265302   1.531   5.706   0.951  0.1604  0.5887  1.4289
14604TIP3    H165303   1.490   5.632   0.906  0.1524  2.7542 -2.5419
14604TIP3    H265304   1.469   5.728   1.021 -0.6769 -2.0138  1.6144
14605TIP3   OH265305   6.220   6.116   3.604 -0.2867 -0.1660  0.3660
14605TIP3    H165306   6.244   6.119   3.512 -0.4762  0.7505  0.3348
14605TIP3    H265307   6.301   6.093   3.650  0.9826  3.5523  0.3420
14606TIP3   OH265308   0.286   4.354  11.964 -0.3157  0.1705  0.3570
14606TIP3    H165309   0.270   4.275  11.912  1.1594 -0.7206  1.1694
14606TIP3    H265310   0.311   4.421  11.901 -0.6906 -0.2767 -0.2722
14607TIP3   OH265311   4.711   1.307   4.076 -0.0540  0.5679  0.1985
14607TIP3    H165312   4.787   1.259   4.044 -0.3430  1.9733 -2.9484
14607TIP3    H265313   4.656   1.240   4.117  0.8984 -1.2717 -1.3573
14608TIP3   OH265314   3.132   4.043  16.571 -0.0037  0.6643 -0.2453
14608TIP3    H165315   3.155   4.130  16.603 -2.6003  1.4620 -0.3422
14608TIP3    H265316   3.187   4.030  16.494 -0.3006  2.6947 -0.8571
14609TIP3   OH265317   0.487   0.434   0.870  0.0098 -0.0330  0.2593
14609TIP3    H165318   0.498   0.382   0.949  0.3924  0.1396  0.3193
14609TIP3    H265319   0.504   0.373   0.798 -1.2211 -0.4223  0.2747
14610TIP3   OH265320   3.204   1.637  11.837 -0.2240 -0.3722 -0.3358
14610TIP3    H165321   3.257   1.703  11.882 -1.4687 -0.0471  0.7356
14610TIP3    H265322   3.235   1.554  11.871 -1.0173 -0.1354  1.0343
14611TIP3   OH265323   4.527   3.475  10.493  0.0746  0.1046  0.0488
14611TIP3    H165324   4.615   3.443  10.510 -0.8135 -1.3549  2.3204
14611TIP3    H265325   4.470   3.403  10.520 -1.8616  1.6418  0.2464
14612TIP3   OH265326   1.248   3.022   2.396 -0.1091  0.4488 -0.8259
14612TIP3    H165327   1.306   2.996   2.324 -0.4546 -0.8161 -0.6777
14612TIP3    H265328   1.298   3.003   2.476 -1.5773 -3.1644 -0.5999
14613TIP3   OH265329   6.186   1.832  11.519 -0.0295 -0.3420  0.8033
14613TIP3    H165330   6.237   1.885  11.580 -0.5657  0.4753  0.5601
14613TIP3    H265331   6.102   1.878  11.512 -0.6255 -1.3880  0.8112
14614TIP3   OH265332   6.565   1.695   3.440  0.1774 -0.3739 -0.5755
14614TIP3    H165333   6.622   1.739   3.503  0.7678 -0.2370 -1.1937
14614TIP3    H265334   6.576   1.746   3.359 -1.5079  0.1989 -0.4784
14615TIP3   OH265335   5.353   3.457   2.695  0.1900  0.1678  0.2367
14615TIP3    H165336   5.439   3.497   2.685  0.9303 -1.4147 -0.1246
14615TIP3    H265337   5.309   3.473   2.612  0.7039 -0.2414 -0.1260
14616TIP3   OH265338   3.776   2.913   3.066  0.5587 -0.3030  0.2994
14616TIP3    H165339   3.812   2.897   3.153  0.6543 -0.8176  0.1696
14616TIP3    H265340   3.828   2.985   3.031 -1.1451  1.7410  1.6690
14617TIP3   OH265341   1.840   3.108   1.184  0.0040 -0.6435  0.6929
14617TIP3    H165342   1.804   3.179   1.237  0.6259  0.3284 -0.1622
14617TIP3    H265343   1.925   3.089   1.224 -0.0205 -0.6933  0.7223
14618TIP3   OH265344   0.145   2.806  16.243  0.3636 -0.3859 -0.2858
14618TIP3    H165345   0.050   2.816  16.240  0.5764  2.4783 -2.3113
14618TIP3    H265346   0.159   2.713  16.259 -2.7782 -1.0802 -0.8331
14619TIP3   OH265347   2.949   0.939  11.950 -0.3887  0.6993  0.2206
14619TIP3    H165348   2.916   0.862  11.905 -1.7385  1.6341 -0.4424
14619TIP3    H265349   3.036   0.953  11.913  0.5002 -1.2848  1.3620
14620TIP3   OH265350   3.303   6.339  14.986  0.0190  0.7099  0.0719
14620TIP3    H165351   3.251   6.407  15.029  1.0882  2.1382 -0.8204
14620TIP3    H265352   3.343   6.382  14.911  0.8471 -0.8748 -0.4523
14621TIP3   OH265353   6.519   4.467  14.609 -0.6560 -0.1150  0.0681
14621TIP3    H165354   6.507   4.490  14.517 -1.4740  0.5719  0.3280
14621TIP3    H265355   6.555   4.546  14.649 -2.1616  0.2887  0.7015
14622TIP3   OH265356   4.598   1.505   3.103 -0.2620 -0.1556  0.2277
14622TIP3    H165357   4.635   1.541   3.023 -1.7264  1.1872  0.0995
14622TIP3    H265358   4.509   1.478   3.079 -0.5943 -0.0785  1.3115
14623TIP3   OH265359   0.651   4.982   3.395 -0.4412 -0.1066 -0.1343
14623TIP3    H165360   0.636   5.006   3.304 -0.8157  0.9657  0.1947
14623TIP3    H265361   0.635   5.062   3.444  1.3221 -0.2507  0.7376
14624TIP3   OH265362   6.755   4.619  12.772  0.4912 -0.1375  0.0345
14624TIP3    H165363   6.811   4.604  12.696 -0.2704 -1.2597 -0.3178
14624TIP3    H265364   6.781   4.707  12.802  0.4230  0.5934 -1.8507
14625TIP3   OH265365   1.421   4.360   5.828 -0.4196 -0.6979 -0.3248
14625TIP3    H165366   1.493   4.307   5.796 -0.7183 -0.8296 -0.8012
14625TIP3    H265367   1.438   4.448   5.793 -1.3282 -1.0844 -1.8322
14626TIP3   OH265368   0.346   4.817   6.018 -0.5530  0.8556  0.3004
14626TIP3    H165369   0.417   4.816   5.953  1.3910 -0.7925  2.2552
14626TIP3    H265370   0.269   4.786   5.970  0.9076 -0.8166 -1.1345
14627TIP3   OH265371   6.627   6.078   4.980 -0.0756  0.0313 -0.1011
14627TIP3    H165372   6.567   6.009   4.953 -1.9279  1.4982  0.0541
14627TIP3    H265373   6.598   6.102   5.068  0.0029  1.5321 -0.4526
14628TIP3   OH265374   3.334   2.791  16.621 -0.8969 -0.0772  0.5981
14628TIP3    H165375   3.423   2.774  16.589 -0.7207  1.4861  0.1905
14628TIP3    H265376   3.277   2.765  16.549 -0.5433  2.6126 -0.7621
14629TIP3   OH265377   1.973   2.768  13.982 -0.1446  0.0972 -0.3852
14629TIP3    H165378   1.960   2.837  14.047 -0.0929  0.3776 -0.6690
14629TIP3    H265379   1.928   2.800  13.904 -2.4438 -1.3579  0.2323
14630TIP3   OH265380   4.377   5.195   5.457  0.3462 -0.4038  0.3658
14630TIP3    H165381   4.408   5.126   5.517 -2.5821 -1.3478  0.9658
14630TIP3    H265382   4.328   5.147   5.390 -2.1611  1.0456  1.0482
14631TIP3   OH265383   1.664   1.363   1.739  0.0305  0.4065 -0.4209
14631TIP3    H165384   1.680   1.399   1.826 -1.9516  2.6563 -0.8768
14631TIP3    H265385   1.698   1.429   1.679 -0.0859 -0.3621 -1.3643
14632TIP3   OH265386   0.981   0.553   3.410 -0.1390 -0.2704 -0.2105
14632TIP3    H165387   0.980   0.648   3.424 -2.2541 -0.1540 -0.7847
14632TIP3    H265388   0.926   0.540   3.333  0.3837 -1.9493 -0.3327
14633TIP3   OH265389   5.413   3.677   1.046  0.0341  0.5140 -0.2435
14633TIP3    H165390   5.375   3.761   1.071  1.5787  0.7440  1.5539
14633TIP3    H265391   5.506   3.695   1.034  0.6213 -1.1263  1.3441
14634TIP3   OH265392   0.734   2.358   0.678  0.2610 -0.4607 -0.2208
14634TIP3    H165393   0.642   2.360   0.651  0.3125 -1.2241 -0.4822
14634TIP3    H265394   0.764   2.271   0.653  1.8803  0.7263 -2.8177
14635TIP3   OH265395   4.830   5.415  13.953 -0.1368 -0.2813  0.5366
14635TIP3    H165396   4.823   5.401  13.858  0.5796 -2.2004  0.7222
14635TIP3    H265397   4.762   5.359  13.990 -1.5515  1.7551  1.1179
14636TIP3   OH265398   6.101   0.629  11.691 -0.0830 -0.2301  0.1277
14636TIP3    H165399   6.019   0.627  11.643 -0.0061 -1.3247  0.0273
14636TIP3    H265400   6.165   0.665  11.628 -0.8381  2.6307  0.8334
14637TIP3   OH265401   1.354   3.518   2.412  0.9215 -0.2692  0.2851
14637TIP3    H165402   1.381   3.427   2.428  0.9318 -0.4802 -0.8480
14637TIP3    H265403   1.258   3.513   2.410  0.8745 -0.9939 -3.3307
14638TIP3   OH265404   0.615   1.427   3.791  0.9292  0.5935  0.3616
14638TIP3    H165405   0.597   1.370   3.716  0.2023  1.6307 -0.2651
14638TIP3    H265406   0.669   1.373   3.849  0.5610 -0.6129 -0.3793
14639TIP3   OH265407   3.161   5.827   3.906  0.3929 -0.8567  0.2752
14639TIP3    H165408   3.239   5.788   3.944 -1.2577 -0.4916  4.5105
14639TIP3    H265409   3.183   5.920   3.896  0.1087 -0.3985  3.0955
14640TIP3   OH265410   5.287   3.034  15.958  0.1336  0.4823 -0.1565
14640TIP3    H165411   5.238   3.112  15.983  0.7731  0.3971  1.5095
14640TIP3    H265412   5.226   2.962  15.973  0.1816  0.5135  0.1963
14641TIP3   OH265413   4.577   0.323   0.343  0.0508  0.3691  0.0177
14641TIP3    H165414   4.647   0.343   0.281  0.8235 -2.0019  0.0369
14641TIP3    H265415   4.619   0.327   0.429 -0.0826 -0.0158  0.1040
14642TIP3   OH265416   4.524   0.920   4.986 -0.4940 -0.1230 -0.2875
14642TIP3    H165417   4.579   0.994   4.962 -2.7444  1.0868 -1.9945
14642TIP3    H265418   4.552   0.850   4.927 -1.5357  0.8626 -2.0326
14643TIP3   OH265419   5.548   2.034   3.257  0.3873  0.5523 -0.4600
14643TIP3    H165420   5.641   2.011   3.248  0.8397  2.2892 -0.6485
14643TIP3    H265421   5.536   2.106   3.195 -0.5079  1.8834  1.1786
14644TIP3   OH265422   5.318   3.515  13.652 -0.3028 -0.7819  0.4483
14644TIP3    H165423   5.295   3.482  13.739  0.3511  1.8326  1.7256
14644TIP3    H265424   5.408   3.545  13.661  0.1442 -1.4060 -1.4748
14645TIP3   OH265425   1.284   0.376   1.994  0.1437  0.4182  0.0816
14645TIP3    H165426   1.204   0.423   2.018  0.9097  2.6384 -1.3604
14645TIP3    H265427   1.276   0.361   1.900  1.0691 -0.0121  0.0575
14646TIP3   OH265428   5.028   6.299  13.197 -0.1847  0.0481 -0.0878
14646TIP3    H165429   4.979   6.259  13.125 -1.2139 -0.1601  0.7033
14646TIP3    H265430   4.998   6.390  13.198 -1.1840 -0.2766  0.9047
14647TIP3   OH265431   6.593   1.361  13.437  0.3273  0.7489  0.6355
14647TIP3    H165432   6.528   1.309  13.484 -0.0728  0.1421 -0.5548
14647TIP3    H265433   6.541   1.425  13.389  0.5474 -0.1891 -0.8829
14648TIP3   OH265434   1.587   2.692  15.156  0.3033  0.0759  0.2170
14648TIP3    H165435   1.546   2.609  15.131  0.5620 -0.1657  0.5779
14648TIP3    H265436   1.544   2.717  15.237 -0.0376  0.4906 -0.0909
14649TIP3   OH265437   2.563   3.506  15.505 -0.3133  0.1091  0.3459
14649TIP3    H165438   2.496   3.574  15.510 -0.2677  0.1306  0.6939
14649TIP3    H265439   2.588   3.490  15.596  1.3465  1.3027  0.1658
14650TIP3   OH265440   0.788   2.970  15.349  0.3624 -0.4668  0.0168
14650TIP3    H165441   0.860   2.976  15.286  0.4512  0.0122  0.1627
14650TIP3    H265442   0.821   3.015  15.427  0.0952 -0.6900  0.2580
14651TIP3   OH265443   1.104   3.001   3.424 -0.0765 -0.2530  0.1917
14651TIP3    H165444   1.127   3.050   3.345 -1.6450  1.7894  0.9117
14651TIP3    H265445   1.100   2.910   3.395  1.8992  0.1050 -1.4613
14652TIP3   OH265446   5.752   5.903  11.884 -0.6312 -0.4592 -0.0628
14652TIP3    H165447   5.666   5.922  11.922 -0.1461 -0.3049  1.0137
14652TIP3    H265448   5.734   5.877  11.794 -1.9884 -2.3677  0.7020
14653TIP3   OH265449   0.928   6.511   2.860  0.0214 -0.7557 -0.6076
14653TIP3    H165450   0.887   6.521   2.774  0.9537  2.5112 -0.8151
14653TIP3    H265451   0.879   6.572   2.916  1.1197 -0.8416  0.4756
14654TIP3   OH265452   3.431   2.125   2.558 -0.0363 -0.4278 -0.1817
14654TIP3    H165453   3.509   2.181   2.555 -0.6776  0.4774 -2.9620
14654TIP3    H265454   3.374   2.167   2.623 -0.0243  1.5691 -1.3676
14655TIP3   OH265455   0.086   2.120  13.005  0.1740  0.2262 -0.1076
14655TIP3    H165456   0.158   2.141  13.065  1.3161  0.6890 -1.5988
14655TIP3    H265457   0.009   2.160  13.046  1.0665  1.2148  0.6537
14656TIP3   OH265458   3.904   1.084   3.686 -0.1879 -0.5904  0.1175
14656TIP3    H165459   3.863   1.005   3.721  0.9883 -1.7434 -0.9924
14656TIP3    H265460   3.899   1.074   3.591 -0.3625  0.8795 -0.0574
14657TIP3   OH265461   2.879   2.117   3.547 -0.0883  0.4578 -0.0831
14657TIP3    H165462   2.961   2.163   3.564  0.8213 -2.1942  3.8439
14657TIP3    H265463   2.904   2.038   3.500 -0.8506  0.8551 -1.2323
14658TIP3   OH265464   5.821   2.139   1.628  0.0929 -0.0125  0.6415
14658TIP3    H165465   5.761   2.131   1.554 -0.8029 -2.0597  1.5239
14658TIP3    H265466   5.899   2.092   1.600  0.8203  1.4862  0.0252
14659TIP3   OH265467   5.931   5.483   3.836  0.0197  0.9787  0.4569
14659TIP3    H165468   5.910   5.392   3.856  0.7732  0.4338 -1.0808
14659TIP3    H265469   5.924   5.528   3.921 -1.0821 -0.3415  1.1136
14660TIP3   OH265470   0.507   3.931  11.231 -0.4392  0.1484 -0.4974
14660TIP3    H165471   0.527   3.971  11.316 -2.3150 -2.1436  1.1735
14660TIP3    H265472   0.532   3.997  11.167 -0.8322  2.8321  1.8858
14661TIP3   OH265473   6.429   0.866   3.041 -0.6933  0.3575  0.2490
14661TIP3    H165474   6.451   0.785   2.994 -0.6919 -0.2427  1.2704
14661TIP3    H265475   6.336   0.857   3.063 -0.7643  0.7629  0.1380
14662TIP3   OH265476   4.013   3.621  15.829 -0.6096 -0.0755 -0.3217
14662TIP3    H165477   4.033   3.612  15.736 -2.5817  1.2028 -0.9404
14662TIP3    H265478   3.932   3.571  15.841 -1.2367  1.0484  0.3264
14663TIP3   OH265479   6.418   4.138  12.668 -0.0847  0.4671 -0.8172
14663TIP3    H165480   6.461   4.055  12.647  1.1698  0.6786  0.7326
14663TIP3    H265481   6.489   4.201  12.675 -0.7529  1.1059  0.5763
14664TIP3   OH265482   1.281   0.785  15.434  0.2829  0.1091  0.3655
14664TIP3    H165483   1.189   0.809  15.445  0.0382 -0.5247 -0.2101
14664TIP3    H265484   1.309   0.758  15.521 -0.4512 -0.9283  0.2995
14665TIP3   OH265485   6.547   0.328  16.946  0.2958  0.7926 -0.0581
14665TIP3    H165486   6.580   0.395  17.007  0.3636  1.3810 -0.7271
14665TIP3    H265487   6.626   0.293  16.905  0.2584  0.2949  0.2938
14666TIP3   OH265488   6.579   1.723   2.639 -0.0887 -0.0863  0.4409
14666TIP3    H165489   6.543   1.811   2.627  0.8885  0.2018 -0.6302
14666TIP3    H265490   6.674   1.735   2.628 -0.0456 -1.4534 -1.1400
14667TIP3   OH265491   5.625   5.731   1.563  0.2902  0.0031  0.2050
14667TIP3    H165492   5.697   5.681   1.602  1.1157  2.1213  1.5773
14667TIP3    H265493   5.586   5.778   1.637 -0.5749  1.1934 -0.9580
14668TIP3   OH265494   5.761   1.400  14.575 -0.7166  0.0094 -0.0138
14668TIP3    H165495   5.743   1.326  14.633  0.4233 -0.6331 -0.4460
14668TIP3    H265496   5.847   1.431  14.603 -1.4337  1.5975  0.5726
14669TIP3   OH265497   1.229   0.381  14.617 -0.0203  0.2950  0.1991
14669TIP3    H165498   1.256   0.473  14.616  0.7695  0.0632 -1.5479
14669TIP3    H265499   1.296   0.337  14.669 -0.6681  0.7415  1.4737
14670TIP3   OH265500   5.007   0.739  15.506 -0.3698  0.1851  0.4768
14670TIP3    H165501   5.046   0.696  15.430 -1.0485 -1.2441  0.8989
14670TIP3    H265502   5.082   0.762  15.562  0.1175  1.1040 -0.5280
14671TIP3   OH265503   4.184   0.141   6.150 -0.0496  0.0693  0.0378
14671TIP3    H165504   4.203   0.056   6.190  1.2177  0.5551  0.5118
14671TIP3    H265505   4.181   0.202   6.223  1.1413  0.7657 -0.4629
14672TIP3   OH265506   2.450   4.342  16.871  0.3500 -0.4473  0.2831
14672TIP3    H165507   2.500   4.311  16.795 -2.5704 -3.6540 -0.5481
14672TIP3    H265508   2.382   4.398  16.834  0.2611 -0.1809  0.8334
14673TIP3   OH265509   2.621   1.969   2.430  0.3344 -0.1399 -0.5993
14673TIP3    H165510   2.661   2.014   2.355 -0.8243  0.8425 -0.6563
14673TIP3    H265511   2.570   2.037   2.474 -1.5875 -1.4196 -0.7377
14674TIP3   OH265512   3.082   4.642   2.732  0.0119 -0.1027  0.1755
14674TIP3    H165513   3.127   4.638   2.647 -0.3754  0.4611 -0.0584
14674TIP3    H265514   3.006   4.697   2.716 -0.9820 -1.3514  0.4765
14675TIP3   OH265515   5.708   1.535  16.904  0.0025 -0.4054 -0.1418
14675TIP3    H165516   5.752   1.451  16.890 -1.5022 -1.5324  1.4412
14675TIP3    H265517   5.676   1.531  16.994 -0.1077  1.8935 -0.0142
14676TIP3   OH265518   1.493   5.715   4.675 -0.5963  0.5221 -0.0300
14676TIP3    H165519   1.497   5.758   4.761 -1.6376  0.1313  0.2218
14676TIP3    H265520   1.519   5.783   4.613 -1.1104  1.1865  0.4722
14677TIP3   OH265521   4.785   3.924   6.356  0.8688 -0.4831 -0.4580
14677TIP3    H165522   4.794   3.895   6.447  0.1519 -0.8497 -0.4935
14677TIP3    H265523   4.845   3.998   6.348  0.5312 -0.0923  0.4808
14678TIP3   OH265524   1.839   5.228  14.846 -0.7728  0.0021 -0.0971
14678TIP3    H165525   1.856   5.133  14.843 -1.8364 -0.2242  0.3727
14678TIP3    H265526   1.887   5.258  14.923 -2.1278 -0.5706  1.0391
14679TIP3   OH265527   6.791   3.033   2.975 -0.2456 -0.0048  0.1265
14679TIP3    H165528   6.738   2.979   3.033 -0.3058  0.3906  0.4466
14679TIP3    H265529   6.767   3.123   2.997 -0.2076  0.1505 -0.4582
14680TIP3   OH265530   2.601   2.226  17.045  0.1259  0.4069 -0.1079
14680TIP3    H165531   2.650   2.220  17.127 -0.5639  0.7520  0.3382
14680TIP3    H265532   2.571   2.317  17.042 -1.2316 -0.0145  0.0635
14681TIP3   OH265533   3.598   3.647   1.255  0.0577  0.3118 -0.4365
14681TIP3    H165534   3.676   3.622   1.304 -1.0566  0.4576  1.5177
14681TIP3    H265535   3.598   3.590   1.178  0.7536 -1.4793  0.8304
14682TIP3   OH265536   4.247   2.111  16.907  0.6260 -0.0646  0.2642
14682TIP3    H165537   4.202   2.177  16.855 -0.6351 -0.8807  0.2725
14682TIP3    H265538   4.180   2.044  16.924  1.3487 -0.4415  1.8343
14683TIP3   OH265539   0.135   4.116   5.280 -0.5640  0.2779 -0.0157
14683TIP3    H165540   0.048   4.080   5.260 -0.2150 -1.1678  0.8686
14683TIP3    H265541   0.132   4.133   5.375 -0.8607  3.1323 -0.4610
14684TIP3   OH265542   3.825   0.410   2.134 -0.0042 -1.0188  0.1033
14684TIP3    H165543   3.794   0.501   2.134 -0.2024 -1.0772  0.9861
14684TIP3    H265544   3.865   0.398   2.220 -0.1375 -1.8193  0.0620
14685TIP3   OH265545   4.942   5.773   3.068 -0.0627 -0.0686 -0.1944
14685TIP3    H165546   5.014   5.808   3.015  1.1092 -1.1985  0.5853
14685TIP3    H265547   4.867   5.772   3.009  0.8534 -0.0001 -1.4046
14686TIP3   OH265548   1.404   2.737  11.013 -0.3351 -0.3926 -0.3112
14686TIP3    H165549   1.399   2.675  10.941 -1.3784  1.0531 -1.5627
14686TIP3    H265550   1.342   2.704  11.078 -0.1039 -1.1997 -0.4937
14687TIP3   OH265551   2.647   3.411  12.632 -0.3348 -0.6835 -0.6052
14687TIP3    H165552   2.642   3.400  12.727  0.4844 -1.7452 -0.6686
14687TIP3    H265553   2.726   3.463  12.618 -1.6114  1.3538 -0.6048
14688TIP3   OH265554   2.494   2.610  15.700 -0.0094  0.2477 -0.2592
14688TIP3    H165555   2.539   2.534  15.664  1.8432  1.3011 -0.2884
14688TIP3    H265556   2.515   2.609  15.793 -1.4038 -0.2024  0.0696
14689TIP3   OH265557   0.031   0.884  14.856  0.6700  0.5607 -0.3161
14689TIP3    H165558   0.096   0.921  14.916  1.2206  1.2230 -1.2973
14689TIP3    H265559   0.060   0.911  14.769 -0.9933  0.9749 -0.7781
14690TIP3   OH265560   6.221   5.257   3.519  0.4258 -0.1961  0.0287
14690TIP3    H165561   6.307   5.266   3.479 -0.4837 -2.0390 -2.6158
14690TIP3    H265562   6.215   5.329   3.581  3.3481  0.7367 -0.6434
14691TIP3   OH265563   1.595   5.162  12.789  0.5630  0.1107  0.3755
14691TIP3    H165564   1.530   5.098  12.817  0.4723  0.9120  2.1326
14691TIP3    H265565   1.546   5.229  12.743  0.6456 -0.9846 -1.3897
14692TIP3   OH265566   0.924   1.149  14.140 -0.0437  0.1502 -0.2027
14692TIP3    H165567   0.909   1.063  14.101  2.3599 -0.1359 -0.6064
14692TIP3    H265568   0.895   1.211  14.073  0.6041 -0.3552 -0.9740
14693TIP3   OH265569   1.254   2.257  13.130 -0.3609 -0.0108 -0.1985
14693TIP3    H165570   1.227   2.227  13.043  2.2279 -1.1348 -0.7060
14693TIP3    H265571   1.320   2.194  13.157  0.2626  1.4057  1.7911
14694TIP3   OH265572   1.686   5.370   5.029 -0.0423 -0.2097  0.5798
14694TIP3    H165573   1.602   5.345   4.992 -0.1941  0.0673  0.7313
14694TIP3    H265574   1.678   5.464   5.044  1.0375  0.2499 -1.3913
14695TIP3   OH265575   5.853   1.812  12.586 -0.4322 -0.1800  0.1380
14695TIP3    H165576   5.887   1.892  12.626 -0.2974  0.2829 -0.8561
14695TIP3    H265577   5.769   1.797  12.628  0.4894 -0.7237  1.8608
14696TIP3   OH265578   3.019   0.922  14.959 -0.0136 -0.0067 -0.3629
14696TIP3    H165579   2.948   0.912  14.896 -0.0842  1.4840 -0.5621
14696TIP3    H265580   3.098   0.925  14.906 -0.0221  0.6697 -0.3475
14697TIP3   OH265581   6.115   5.825   4.735  0.0814  0.1771  0.2747
14697TIP3    H165582   6.045   5.862   4.788  0.0576  1.9568 -0.8961
14697TIP3    H265583   6.072   5.763   4.677 -0.1383 -0.5077  1.1469
14698TIP3   OH265584   3.645   6.603   3.512 -0.1341  0.2177  0.1937
14698TIP3    H165585   3.729   6.559   3.522 -0.4584 -0.3701  0.3728
14698TIP3    H265586   3.598   6.550   3.447 -1.1079 -0.5957  1.5052
14699TIP3   OH265587   0.702   3.806   2.512  0.2685 -0.6564  0.1505
14699TIP3    H165588   0.759   3.882   2.518 -0.3323 -0.2183  0.4727
14699TIP3    H265589   0.641   3.827   2.440  0.0441 -0.7887  0.3001
14700TIP3   OH265590   0.135   4.380   4.283  0.0927 -0.1027  0.4369
14700TIP3    H165591   0.142   4.409   4.192 -0.0130  0.1761  0.5177
14700TIP3    H265592   0.053   4.331   4.286  0.6980 -1.1707  0.0953
14701TIP3   OH265593   0.758   6.690  13.729 -0.2066 -0.1102  0.3536
14701TIP3    H165594   0.693   6.620  13.719 -0.4514  0.3775 -2.3131
14701TIP3    H265595   0.824   6.671  13.662 -0.0477  1.9324 -0.1326
14702TIP3   OH265596   1.327   2.237   1.909 -0.2705 -0.3458 -0.2204
14702TIP3    H165597   1.373   2.315   1.878  0.7410 -0.9680 -0.3016
14702TIP3    H265598   1.265   2.271   1.974  0.6253  0.4485  0.2473
14703TIP3   OH265599   5.803   6.192   3.262  0.0165  0.3384 -0.2958
14703TIP3    H165600   5.848   6.213   3.180  0.9472  1.7753  0.5413
14703TIP3    H265601   5.722   6.242   3.258  1.0433  2.1640  0.5534
14704TIP3   OH265602   4.037   2.727  15.234 -0.5263  0.1595  0.5706
14704TIP3    H165603   4.106   2.677  15.192 -0.7431  0.6497 -0.3968
14704TIP3    H265604   4.078   2.763  15.313  0.2498  0.2147  0.1505
14705TIP3   OH265605   1.831   4.975  15.439  0.5116  0.1272 -0.8620
14705TIP3    H165606   1.919   4.980  15.476  0.2472 -0.8487 -0.0678
14705TIP3    H265607   1.773   4.985  15.515 -0.0484 -0.7002 -1.1723
14706TIP3   OH265608   3.103   4.372  12.588 -0.6359 -0.8019 -0.2185
14706TIP3    H165609   3.193   4.406  12.587 -1.1439  0.6242  0.6302
14706TIP3    H265610   3.075   4.378  12.497 -0.6294  0.9270 -0.1409
14707TIP3   OH265611   0.467   3.551  15.268 -0.4995 -0.2226  0.0851
14707TIP3    H165612   0.511   3.512  15.192  0.8543  0.6685  0.3720
14707TIP3    H265613   0.433   3.476  15.317 -1.1952 -0.8271 -1.2606
14708TIP3   OH265614   4.700   0.251   1.872 -0.2164  0.5604  0.1025
14708TIP3    H165615   4.613   0.216   1.852  0.6720 -0.0147 -3.4789
14708TIP3    H265616   4.747   0.177   1.912 -0.8547  0.3807  0.5442
14709TIP3   OH265617   4.094   2.595  11.434 -0.0896  0.1569  0.4097
14709TIP3    H165618   4.032   2.555  11.496  0.1738 -1.7776 -0.5095
14709TIP3    H265619   4.175   2.547  11.447  0.0103 -0.2108 -1.3165
14710TIP3   OH265620   2.637   5.012  10.757 -0.1847 -0.3568 -0.3126
14710TIP3    H165621   2.559   4.990  10.808 -0.3886  1.0975  0.0378
14710TIP3    H265622   2.624   4.968  10.673 -2.6923  1.9428 -1.2701
14711TIP3   OH265623   1.157   2.167   3.158 -0.5131 -0.3957 -0.2709
14711TIP3    H165624   1.193   2.213   3.082  0.4748 -1.0898 -0.2423
14711TIP3    H265625   1.222   2.100   3.178 -0.7837 -0.2423  1.1806
14712TIP3   OH265626   2.248   0.909   2.013  0.3681 -0.5190 -0.1337
14712TIP3    H165627   2.340   0.925   2.034 -0.1279  2.8415  0.0105
14712TIP3    H265628   2.233   0.961   1.934 -1.3991 -1.1876 -0.2745
14713TIP3   OH265629   0.490   2.135  14.190 -0.5790  0.3755 -0.3298
14713TIP3    H165630   0.407   2.167  14.225  0.0345  3.1138 -1.0967
14713TIP3    H265631   0.556   2.164  14.253  0.0800  1.3152 -1.4045
14714TIP3   OH265632   0.410   1.422   0.870  0.0662 -0.2613 -0.1832
14714TIP3    H165633   0.429   1.410   0.777 -0.4289 -0.4823 -0.2553
14714TIP3    H265634   0.316   1.438   0.874  0.2212  0.6645  0.1942
14715TIP3   OH265635   1.856   6.619  11.041 -0.0745  0.1797  0.0053
14715TIP3    H165636   1.812   6.540  11.073  1.2217 -0.0632  1.2903
14715TIP3    H265637   1.855   6.679  11.116  1.5169  0.2535 -0.0033
14716TIP3   OH265638   5.471   6.801   1.792  0.2437  0.5590  0.3716
14716TIP3    H165639   5.391   6.819   1.741 -0.1405  0.4031  0.9106
14716TIP3    H265640   5.521   6.741   1.737  0.4629  1.4376 -0.4167
14717TIP3   OH265641   2.542   1.732   2.316  0.4502 -0.3657  0.4514
14717TIP3    H165642   2.592   1.709   2.394  1.7504 -0.2644 -0.3244
14717TIP3    H265643   2.546   1.827   2.312 -0.7027 -0.2813  0.9402
14718TIP3   OH265644   4.664   3.535  14.854 -0.4157 -0.4552 -0.5025
14718TIP3    H165645   4.706   3.457  14.891  1.1428  0.3731 -0.4314
14718TIP3    H265646   4.582   3.544  14.903 -0.1729 -1.5133  0.1351
14719TIP3   OH265647   3.625   3.810  17.011  0.6514  0.2625  0.2921
14719TIP3    H165648   3.699   3.816  16.950 -0.7788 -0.6813 -1.6365
14719TIP3    H265649   3.548   3.829  16.957 -0.6210  0.0850  1.9863
14720TIP3   OH265650   5.328   3.034   1.316  0.0411  0.6665  0.3170
14720TIP3    H165651   5.347   2.956   1.369 -1.3942 -0.3850 -0.6443
14720TIP3    H265652   5.396   3.035   1.249 -0.4030 -0.2724 -0.1722
14721TIP3   OH265653   3.217   5.762   3.267 -0.2426 -0.0247 -0.2130
14721TIP3    H165654   3.256   5.699   3.328 -1.1557 -0.0160  0.4041
14721TIP3    H265655   3.291   5.815   3.236  0.1718  0.4305  1.4288
14722TIP3   OH265656   3.614   6.614  12.809  0.0940  0.1911 -0.6140
14722TIP3    H165657   3.560   6.602  12.731 -0.1825  1.4968 -0.6407
14722TIP3    H265658   3.588   6.699  12.844  0.8636  0.0340  0.3940
14723TIP3   OH265659   0.871   2.852  11.498 -0.4459 -0.4225  0.0574
14723TIP3    H165660   0.782   2.871  11.467 -0.2397  1.5046  0.5411
14723TIP3    H265661   0.919   2.934  11.486  0.7599 -0.8647  1.5589
14724TIP3   OH265662   1.024   5.697  16.243  0.0871 -0.0964  0.0320
14724TIP3    H165663   1.100   5.653  16.206  0.7404  1.7694 -0.9863
14724TIP3    H265664   1.060   5.771  16.292 -0.9484 -0.7650  1.9214
14725TIP3   OH265665   1.102   5.774  17.026  0.1648 -0.0821 -0.0046
14725TIP3    H165666   1.097   5.697  16.969  0.7221  0.0552 -0.2483
14725TIP3    H265667   1.179   5.821  16.994 -1.0470  1.3922 -0.8822
14726TIP3   OH265668   5.429   5.660   6.042  0.0060  0.3468 -0.0673
14726TIP3    H165669   5.378   5.730   6.083  0.2070  0.2707  0.3147
14726TIP3    H265670   5.506   5.650   6.098 -0.8661 -1.3933  0.9269
14727TIP3   OH265671   2.841   3.086  12.239  0.2108  0.3630  0.2734
14727TIP3    H165672   2.804   3.148  12.302 -0.1737  0.4128 -0.0000
14727TIP3    H265673   2.793   3.005  12.254  3.1276 -1.0552  3.1734
14728TIP3   OH265674   3.086   6.087   4.533  0.3284  0.5487  0.3355
14728TIP3    H165675   3.100   6.055   4.444 -0.7787 -0.6007  0.5418
14728TIP3    H265676   3.004   6.046   4.561  0.5426  1.0483  1.8110
14729TIP3   OH265677   6.760   2.153   0.763  0.2742 -0.1441 -0.8320
14729TIP3    H165678   6.680   2.153   0.710 -0.0843 -0.0498 -0.2944
14729TIP3    H265679   6.810   2.078   0.731  0.3084  0.2259 -1.6729
14730TIP3   OH265680   3.995   6.083  12.246  0.1192 -0.0755  0.3122
14730TIP3    H165681   4.050   6.092  12.169  2.1440  0.1693  1.6912
14730TIP3    H265682   3.974   5.989  12.250 -0.7039  0.0422 -0.9537
14731TIP3   OH265683   5.327   0.609  13.452  0.2705 -0.2343 -0.0069
14731TIP3    H165684   5.340   0.680  13.389  0.0341  0.0068  0.2102
14731TIP3    H265685   5.377   0.535  13.417 -2.2472 -1.0997 -2.1060
14732TIP3   OH265686   3.746   4.119   0.289  0.2209  0.1033  0.3639
14732TIP3    H165687   3.800   4.180   0.238  1.2300  0.1756  1.4727
14732TIP3    H265688   3.691   4.076   0.224  0.6678  1.0038 -0.6419
14733TIP3   OH265689   3.036   5.802  12.909  0.3436  0.4934  0.2457
14733TIP3    H165690   2.990   5.727  12.871 -0.6381  1.2738 -0.1718
14733TIP3    H265691   3.062   5.773  12.996  0.7693 -0.6208 -0.2354
14734TIP3   OH265692   2.230   6.823   1.149 -0.0346 -0.2895  0.5935
14734TIP3    H165693   2.237   6.831   1.054 -0.5551 -0.7117  0.5128
14734TIP3    H265694   2.148   6.868   1.171  1.7931  2.9994  1.2881
14735TIP3   OH265695   3.877   1.597  13.694 -0.6648  0.0447  0.1137
14735TIP3    H165696   3.833   1.678  13.667  0.1395  0.6348  0.5093
14735TIP3    H265697   3.877   1.543  13.615  0.6771  1.2995 -0.8258
14736TIP3   OH265698   3.687   4.839   3.102  1.0639  0.5387 -0.7653
14736TIP3    H165699   3.642   4.757   3.121  1.4216  0.4089 -0.4726
14736TIP3    H265700   3.719   4.870   3.187 -1.1857  2.2614 -0.4394
14737TIP3   OH265701   0.157   1.667  11.296  0.3908  0.8059  0.1986
14737TIP3    H165702   0.190   1.592  11.345 -1.9644 -0.0848  0.5370
14737TIP3    H265703   0.189   1.653  11.207  0.4766 -0.2796  0.3835
14738TIP3   OH265704   4.649   0.623  13.074 -0.0678  0.2959  0.5090
14738TIP3    H165705   4.690   0.600  13.157 -0.2127  0.6277  0.6788
14738TIP3    H265706   4.662   0.718  13.067 -0.4763  0.3466  0.3878
14739TIP3   OH265707   6.786   0.466  14.177 -0.7062  0.2216  0.3008
14739TIP3    H165708   6.808   0.378  14.146 -2.0110  0.1949 -0.6287
14739TIP3    H265709   6.854   0.522  14.140 -0.7566 -0.1887 -0.4311
14740TIP3   OH265710   5.073   6.005  12.955 -0.1922  0.1220 -0.8111
14740TIP3    H165711   4.998   6.058  12.985  0.3602  0.5164 -0.0882
14740TIP3    H265712   5.139   6.069  12.931  0.0795 -0.2314 -1.0079
14741TIP3   OH265713   4.712   1.042  15.793 -0.1889 -0.0169 -0.6541
14741TIP3    H165714   4.698   1.051  15.699 -0.1495 -0.2862 -0.6862
14741TIP3    H265715   4.803   1.070  15.806  0.1891 -1.0704 -0.8662
14742TIP3   OH265716   0.725   1.781  11.952 -0.4022 -0.2114  0.2199
14742TIP3    H165717   0.696   1.694  11.978 -1.9015  0.5074  1.0536
14742TIP3    H265718   0.777   1.766  11.873 -0.4755 -1.8659  0.4485
14743TIP3   OH265719   4.783   4.548  14.509  0.4768  0.0210 -0.2740
14743TIP3    H165720   4.810   4.535  14.418 -0.8296  1.1705 -0.8597
14743TIP3    H265721   4.775   4.643  14.518 -2.2011 -0.1855  0.1681
14744TIP3   OH265722   6.352   5.488   5.445 -0.1968 -0.2952  0.0195
14744TIP3    H165723   6.261   5.460   5.434 -0.7737  0.6291  1.8896
14744TIP3    H265724   6.393   5.471   5.361 -1.4353 -3.1203 -0.1176
14745TIP3   OH265725   3.510   1.044  14.799 -0.0924  0.1945  0.1805
14745TIP3    H165726   3.507   1.137  14.819 -0.4275  0.6876 -1.9160
14745TIP3    H265727   3.472   1.001  14.876  0.6047  1.7102  1.4232
14746TIP3   OH265728   3.649   5.456   6.557  0.8811  0.8128  0.4472
14746TIP3    H165729   3.657   5.368   6.520  0.2492  1.1761 -0.5950
14746TIP3    H265730   3.606   5.443   6.642  1.6478  0.0334  0.7225
14747TIP3   OH265731   0.580   3.292   3.432  0.4502  0.2487 -0.2617
14747TIP3    H165732   0.640   3.268   3.502 -0.5885  1.3794  1.0878
14747TIP3    H265733   0.593   3.386   3.420 -2.0585  0.8927  1.2033
14748TIP3   OH265734   3.281   3.913   2.736  0.4794 -0.0993  0.5234
14748TIP3    H165735   3.372   3.885   2.745 -0.1214 -2.2657  0.3759
14748TIP3    H265736   3.253   3.930   2.826  0.5645 -1.0955  0.7563
14749TIP3   OH265737   3.808   0.306   3.511  0.0077  0.1753 -0.1449
14749TIP3    H165738   3.735   0.367   3.500 -0.8182 -0.8395 -0.5517
14749TIP3    H265739   3.792   0.239   3.444  0.1651 -1.1557  1.0974
14750TIP3   OH265740   2.887   3.540  12.604 -0.2365  0.0567  0.2561
14750TIP3    H165741   2.948   3.507  12.538 -0.4202  1.0257 -0.4184
14750TIP3    H265742   2.942   3.557  12.681 -0.0461 -1.2128  0.4125
14751TIP3   OH265743   2.004   0.053  11.718  0.1203 -0.0818 -0.0721
14751TIP3    H165744   1.947   0.065  11.794  0.0506 -0.8178 -0.0011
14751TIP3    H265745   2.091   0.076  11.749  0.4245 -2.1641  0.8014
14752TIP3   OH265746   4.708   3.573   3.057  0.4603 -0.4689 -0.2279
14752TIP3    H165747   4.751   3.569   2.971  0.1026 -1.6436 -0.3755
14752TIP3    H265748   4.622   3.533   3.042  0.6784 -1.3727  0.8296
14753TIP3   OH265749   2.137   0.040   3.037 -0.0590 -0.1803 -0.4921
14753TIP3    H165750   2.134  -0.019   2.963 -1.1918 -1.1736  0.3102
14753TIP3    H265751   2.059   0.095   3.028 -1.7245 -2.0747  1.3100
14754TIP3   OH265752   0.836   2.351  13.844 -0.3376  0.1595  0.3817
14754TIP3    H165753   0.750   2.316  13.865  0.1109 -0.4556  1.2362
14754TIP3    H265754   0.875   2.372  13.929  0.9122 -0.9318  0.1096
14755TIP3   OH265755   4.338   3.120  16.478  0.5400 -0.1095 -0.0408
14755TIP3    H165756   4.347   3.029  16.450 -0.3974 -0.1320 -0.2934
14755TIP3    H265757   4.328   3.169  16.397 -0.7002  0.0027  0.1578
14756TIP3   OH265758   3.527   6.774   1.678 -0.2438  0.5374 -0.0191
14756TIP3    H165759   3.491   6.862   1.664 -0.3709  0.5621  0.4425
14756TIP3    H265760   3.453   6.715   1.663  0.4431  0.2783 -3.0920
14757TIP3   OH265761   5.834   3.462  10.951  0.4770 -0.0169 -0.4086
14757TIP3    H165762   5.870   3.551  10.946  0.1151  0.2667  1.2874
14757TIP3    H265763   5.895   3.408  10.901  1.9149  0.8322  0.3649
14758TIP3   OH265764   5.890   2.916   4.213  0.1568  0.7264  0.3179
14758TIP3    H165765   5.854   2.827   4.213  2.4792 -0.2853  0.8390
14758TIP3    H265766   5.814   2.972   4.225 -1.2344 -1.2618  1.4070
14759TIP3   OH265767   5.083   5.406   3.219  0.0407  0.5480 -0.3135
14759TIP3    H165768   5.091   5.353   3.298  2.2728  1.1607 -0.0429
14759TIP3    H265769   5.084   5.343   3.147 -3.0059 -0.0927  0.0683
14760TIP3   OH265770   3.799   3.674   2.540 -0.3599  0.2512  0.1913
14760TIP3    H165771   3.820   3.621   2.617 -1.3774 -0.1855  0.1783
14760TIP3    H265772   3.828   3.621   2.465 -2.0376 -0.6462  0.1394
14761TIP3   OH265773   1.569   1.841  11.313 -0.5156 -0.0110 -0.6155
14761TIP3    H165774   1.474   1.837  11.327 -0.4931 -0.5201 -0.5936
14761TIP3    H265775   1.580   1.911  11.248 -1.0336 -0.8541 -1.6379
14762TIP3   OH265776   5.474   3.726   2.400  0.0752  0.0117  0.1490
14762TIP3    H165777   5.503   3.790   2.335  1.4086 -0.7262 -0.0193
14762TIP3    H265778   5.511   3.643   2.370 -1.5712 -0.8520  0.3859
14763TIP3   OH265779   4.255   1.344   3.919  0.3562  0.0991  0.4410
14763TIP3    H165780   4.298   1.412   3.867 -1.7090  0.8983 -0.3608
14763TIP3    H265781   4.248   1.269   3.860 -0.4165  0.3994  0.1378
14764TIP3   OH265782   6.820   2.063   4.521 -0.1597 -0.2585 -0.3492
14764TIP3    H165783   6.900   2.014   4.538  0.2489 -0.3107 -2.1955
14764TIP3    H265784   6.768   2.053   4.601  1.2036 -1.1354  0.4639
14765TIP3   OH265785   6.712   1.473   1.816  0.4305 -0.1918 -0.4411
14765TIP3    H165786   6.622   1.497   1.794  0.5986  0.5435 -0.3662
14765TIP3    H265787   6.761   1.555   1.808  1.6223 -1.0500 -3.0301
14766TIP3   OH265788   3.105   2.571   5.957  0.1909  0.0955 -0.6945
14766TIP3    H165789   3.048   2.644   5.982  1.3106  0.8129 -0.1716
14766TIP3    H265790   3.167   2.563   6.030  1.0735 -0.3390 -1.4759
14767TIP3   OH265791   0.817   5.998   2.008 -0.2501 -0.6457  0.1368
14767TIP3    H165792   0.738   6.052   2.009 -0.6922 -1.2909  0.8583
14767TIP3    H265793   0.787   5.909   2.026  0.4755 -1.1455 -0.9972
14768TIP3   OH265794   1.737   3.514   2.404 -0.7324  0.2993  0.1367
14768TIP3    H165795   1.654   3.482   2.439 -1.3852 -0.0613 -1.6292
14768TIP3    H265796   1.714   3.557   2.321  0.9454 -0.7708 -0.9498
14769TIP3   OH265797   5.474   2.938   5.047  0.4550 -0.1344  0.2497
14769TIP3    H165798   5.508   2.863   5.096  0.4374 -1.2043 -1.2976
14769TIP3    H265799   5.549   2.970   4.997  0.3090  0.4973  0.4242
14770TIP3   OH265800   6.443   2.155  14.807  0.2166  0.1537 -0.4186
14770TIP3    H165801   6.394   2.073  14.805 -0.0360  0.2044  1.5009
14770TIP3    H265802   6.444   2.179  14.900  1.9947  1.2901 -0.6901
14771TIP3   OH265803   3.026   3.274  14.774  0.7739 -0.7319 -0.0446
14771TIP3    H165804   3.101   3.333  14.766  0.5853 -0.1952  1.7755
14771TIP3    H265805   2.984   3.299  14.856 -1.1825 -1.3054 -0.8117
14772TIP3   OH265806   5.067   3.954   2.447  0.3266 -0.4390  0.3761
14772TIP3    H165807   5.011   4.030   2.459 -0.3289 -0.8525  0.0060
14772TIP3    H265808   5.015   3.894   2.393  1.8488 -0.0480 -1.6289
14773TIP3   OH265809   2.994   4.168   5.687 -0.5630 -0.2462  0.2362
14773TIP3    H165810   2.944   4.096   5.724  0.1449 -0.4442  0.8292
14773TIP3    H265811   3.035   4.210   5.763  0.4739 -0.3278 -0.2622
14774TIP3   OH265812   6.561   2.844   2.674 -0.0478 -0.4700 -0.2213
14774TIP3    H165813   6.471   2.872   2.655 -0.0897 -0.5781 -0.1823
14774TIP3    H265814   6.607   2.856   2.591 -0.5765 -2.3255 -0.8263
14775TIP3   OH265815   6.528   5.196  11.474  0.2267  0.0273  0.1834
14775TIP3    H165816   6.456   5.244  11.515  0.3094  0.5532 -0.2741
14775TIP3    H265817   6.485   5.142  11.408  0.2058  0.0371  0.1891
14776TIP3   OH265818   4.285   2.481   6.071  0.2638  0.2054 -0.4044
14776TIP3    H165819   4.312   2.540   6.142  3.6513  0.3337 -1.6219
14776TIP3    H265820   4.224   2.533   6.019  0.2125  1.2690  0.6646
14777TIP3   OH265821   4.599   0.024  10.605 -0.3675 -0.3797 -0.1050
14777TIP3    H165822   4.670   0.049  10.546 -0.8105 -1.7048 -1.2537
14777TIP3    H265823   4.590  -0.070  10.592 -1.1261 -0.5376  1.3975
14778TIP3   OH265824   0.381   4.057   0.635  0.1564 -0.0601 -0.0282
14778TIP3    H165825   0.441   4.123   0.600 -0.3180 -0.1415 -1.0088
14778TIP3    H265826   0.438   3.999   0.687  0.7016  0.6397  0.1751
14779TIP3   OH265827   4.024   3.043   3.691 -0.8965  1.2338  0.7239
14779TIP3    H165828   4.018   3.062   3.597  1.1960  0.5910  0.4106
14779TIP3    H265829   4.036   3.129   3.732 -1.0254  1.4494  0.3122
14780TIP3   OH265830   5.793   4.285   1.308  0.3296 -0.4584  0.4158
14780TIP3    H165831   5.698   4.287   1.316  0.0078 -3.0186 -1.5719
14780TIP3    H265832   5.810   4.304   1.216  1.8928  1.4121  1.0308
14781TIP3   OH265833   3.327   3.795   5.717 -0.2249  0.1221  0.4778
14781TIP3    H165834   3.360   3.831   5.800  0.7048 -0.2262  0.2656
14781TIP3    H265835   3.352   3.859   5.651 -1.2191  0.5406  0.4877
14782TIP3   OH265836   5.946   4.146  14.984  0.2830 -0.4290 -0.3460
14782TIP3    H165837   6.038   4.125  15.000  0.5687  1.2325  0.4807
14782TIP3    H265838   5.942   4.242  14.991 -1.6066 -0.4988  0.2026
14783TIP3   OH265839   3.302   3.881   2.213 -0.0544  0.5714 -0.1397
14783TIP3    H165840   3.254   3.939   2.154 -0.6852  1.7999  1.4755
14783TIP3    H265841   3.379   3.932   2.239 -0.2152  0.3996  0.7068
14784TIP3   OH265842   6.428   4.186  14.987  0.2426 -0.0136 -0.0164
14784TIP3    H165843   6.463   4.272  14.964  2.1708 -0.3863  1.2525
14784TIP3    H265844   6.487   4.124  14.943 -0.2906 -0.6750  0.1882
14785TIP3   OH265845   5.056   0.521  12.547 -0.1618  0.0244 -0.4419
14785TIP3    H165846   5.028   0.504  12.636  0.6750  0.0884 -0.1536
14785TIP3    H265847   5.057   0.435  12.505  0.8925 -0.2307  0.0594
14786TIP3   OH265848   6.540   6.647   3.915  0.3847  0.1823  0.4597
14786TIP3    H165849   6.570   6.559   3.892  1.6422  0.5407  0.6218
14786TIP3    H265850   6.449   6.651   3.885  0.9600 -0.4524 -1.5294
14787TIP3   OH265851   5.259   6.383   0.338 -0.2367  0.1927  0.0816
14787TIP3    H165852   5.259   6.386   0.242  4.3405 -4.8974 -0.5227
14787TIP3    H265853   5.177   6.339   0.361 -0.5289 -0.2115 -1.6431
14788TIP3   OH265854   3.886   3.317  15.398 -0.0650  0.0889  0.5612
14788TIP3    H165855   3.960   3.336  15.340 -1.2291  2.2178 -0.3508
14788TIP3    H265856   3.838   3.399  15.403 -2.4385 -1.2300  1.0353
14789TIP3   OH265857   2.474   5.067  12.621  0.8286 -0.0232  0.0691
14789TIP3    H165858   2.449   5.143  12.569 -0.8131 -0.1345  0.6533
14789TIP3    H265859   2.516   5.008  12.558 -0.8009 -0.0193 -1.0948
14790TIP3   OH265860   0.720   1.937   2.987  0.0084 -0.2838  0.6020
14790TIP3    H165861   0.728   1.994   2.911 -1.0392 -2.0257 -0.8938
14790TIP3    H265862   0.785   1.868   2.972 -0.5296 -0.8925  1.0449
14791TIP3   OH265863   5.748   0.491   6.430 -0.7186  0.8965 -0.2629
14791TIP3    H165864   5.687   0.561   6.452 -0.5956  1.5944 -1.9816
14791TIP3    H265865   5.696   0.427   6.380 -0.4918  0.5190 -0.0244
14792TIP3   OH265866   3.474   0.039   5.841 -0.0823  0.2109 -0.2330
14792TIP3    H165867   3.456   0.109   5.904  0.6548  1.6553 -1.5706
14792TIP3    H265868   3.428   0.065   5.762 -1.5930 -1.9396 -0.1447
14793TIP3   OH265869   5.428   6.284  16.728  0.2379 -0.4352 -0.0606
14793TIP3    H165870   5.432   6.242  16.814  2.7035  0.5463  0.3770
14793TIP3    H265871   5.420   6.377  16.748  0.3708 -0.2352 -0.9207
14794TIP3   OH265872   6.291   5.953  12.867 -0.3796 -0.3673 -0.5037
14794TIP3    H165873   6.210   6.004  12.863  2.2095  4.4399  1.3019
14794TIP3    H265874   6.300   5.929  12.959  1.3696  1.4060 -0.1582
14795TIP3   OH265875   1.218   4.569  16.887  0.5715 -0.3608  0.0706
14795TIP3    H165876   1.158   4.511  16.934  0.3848 -1.2192 -1.1739
14795TIP3    H265877   1.161   4.627  16.837  0.7341 -1.3690 -1.3467
14796TIP3   OH265878   4.120   2.785   1.553  0.1306 -0.0369 -0.3377
14796TIP3    H165879   4.213   2.804   1.555  0.1625 -0.0653 -1.1636
14796TIP3    H265880   4.113   2.702   1.506 -0.2078 -0.7503  0.9220
14797TIP3   OH265881   2.612   5.623  15.793 -0.7029  0.4304 -0.0144
14797TIP3    H165882   2.698   5.662  15.776  0.3486 -1.0079  1.6562
14797TIP3    H265883   2.617   5.537  15.753 -1.2995  0.2753  0.2393
14798TIP3   OH265884   1.676   3.502  11.238  0.1891 -0.0776  0.6268
14798TIP3    H165885   1.718   3.490  11.153 -0.9550 -0.1884  0.0579
14798TIP3    H265886   1.643   3.415  11.261 -0.9938  0.2747  0.3560
14799TIP3   OH265887   3.541   2.728  15.158  1.0021 -0.1653  0.6219
14799TIP3    H165888   3.479   2.801  15.151  0.3044 -0.9066 -2.3067
14799TIP3    H265889   3.495   2.662  15.209  0.2074  0.1183  0.2866
14800TIP3   OH265890   4.695   3.151   6.056 -0.2538 -0.3256  0.2746
14800TIP3    H165891   4.737   3.224   6.103  0.8669 -1.1482  0.5818
14800TIP3    H265892   4.692   3.080   6.120  0.1343 -1.0586 -0.5009
14801TIP3   OH265893   2.829   6.691   0.246  0.1048  0.2196  0.2174
14801TIP3    H165894   2.888   6.697   0.321  2.5741  1.2144 -1.6516
14801TIP3    H265895   2.849   6.769   0.193 -1.5126 -0.4367 -1.4954
14802TIP3   OH265896   4.414   4.702   1.454  0.3449 -0.1706 -0.1042
14802TIP3    H165897   4.489   4.681   1.510  0.9166  0.5663 -0.5688
14802TIP3    H265898   4.396   4.795   1.470  0.7982  0.1784 -1.4316
14803TIP3   OH265899   3.395   6.350  12.823  0.1465  0.1322  0.2944
14803TIP3    H165900   3.376   6.409  12.896  1.6103  0.2602  0.5943
14803TIP3    H265901   3.381   6.262  12.859 -1.6970  0.2432 -0.0553
14804TIP3   OH265902   2.850   4.604  15.645  0.3194 -0.5714 -0.3416
14804TIP3    H165903   2.780   4.662  15.674  0.7116  0.3226 -1.1245
14804TIP3    H265904   2.812   4.516  15.650  0.2279 -0.4316  2.3479
14805TIP3   OH265905   5.022   2.372   1.117 -0.3482 -0.2082 -0.6167
14805TIP3    H165906   5.055   2.461   1.127  1.4394 -0.7798 -0.9914
14805TIP3    H265907   4.962   2.378   1.042  0.8067  0.4517 -1.5417
14806TIP3   OH265908   3.328   3.156   3.893  0.0398 -0.5942  0.2622
14806TIP3    H165909   3.351   3.111   3.812 -2.5111 -2.1726  0.3464
14806TIP3    H265910   3.299   3.243   3.864 -1.8553 -1.4923 -0.6855
14807TIP3   OH265911   3.445   1.628   3.619 -0.1160  0.8848 -0.5604
14807TIP3    H165912   3.499   1.706   3.610 -0.6776  1.3400 -0.1005
14807TIP3    H265913   3.355   1.660   3.604 -0.4994  0.6110  1.0358
14808TIP3   OH265914   5.961   3.261   0.479 -0.5326 -0.0627 -0.5708
14808TIP3    H165915   6.004   3.338   0.514 -1.0126 -0.2487  0.4407
14808TIP3    H265916   6.003   3.247   0.394  1.6492 -0.4293  0.5018
14809TIP3   OH265917   4.227   2.391   2.340  0.0000 -0.0621 -0.4800
14809TIP3    H165918   4.252   2.337   2.265  1.0782 -0.1026 -0.1052
14809TIP3    H265919   4.306   2.440   2.362  0.0971 -0.9871  1.4202
14810TIP3   OH265920   0.338   2.943   2.367 -0.1035  0.9413 -0.0431
14810TIP3    H165921   0.304   2.951   2.456 -1.3456  1.2046 -0.5322
14810TIP3    H265922   0.272   2.984   2.312 -0.5584 -1.3622 -1.3546
14811TIP3   OH265923   5.540   4.376  13.551 -0.1771 -0.2504  0.3337
14811TIP3    H165924   5.471   4.438  13.576  0.0605 -0.1041  0.6394
14811TIP3    H265925   5.579   4.349  13.634  1.6361  1.4130  0.0941
14812TIP3   OH265926   1.592   4.811  15.944  0.3408  0.2963 -0.6363
14812TIP3    H165927   1.518   4.858  15.982  0.6904  0.8196 -0.5927
14812TIP3    H265928   1.569   4.799  15.852 -0.7820 -1.5083 -0.1622
14813TIP3   OH265929   2.360   0.589   4.713  0.5133 -0.0294 -0.2694
14813TIP3    H165930   2.298   0.550   4.652  1.1641  1.8191 -2.2314
14813TIP3    H265931   2.446   0.555   4.686  0.5386 -3.0236  2.7699
14814TIP3   OH265932   5.401   3.275   0.041 -0.9140  0.3999 -0.1768
14814TIP3    H165933   5.427   3.190   0.078  0.5583  1.0353  0.3316
14814TIP3    H265934   5.307   3.280   0.057 -0.8602 -0.7319  0.6496
14815TIP3   OH265935   4.260   6.540   1.062  0.0099  0.4563 -0.1667
14815TIP3    H165936   4.307   6.623   1.058  0.2521  0.4004  1.0839
14815TIP3    H265937   4.243   6.527   1.156  0.2090 -1.0231 -0.3182
14816TIP3   OH265938   1.286   6.702  11.375 -0.1143 -0.2895 -0.1142
14816TIP3    H165939   1.360   6.756  11.347  0.2205 -2.1625 -3.2399
14816TIP3    H265940   1.322   6.614  11.386 -1.2549 -0.5840  1.7691
14817TIP3   OH265941   5.521   6.335  10.929 -0.1969 -0.0715  0.0965
14817TIP3    H165942   5.481   6.277  10.864  3.2779 -0.4220 -1.9440
14817TIP3    H265943   5.554   6.275  10.996  2.4577 -0.5394 -1.4894
14818TIP3   OH265944   3.995   5.904   4.333  0.2209 -0.0740 -0.7032
14818TIP3    H165945   4.058   5.890   4.262  1.0025  0.2249 -0.0683
14818TIP3    H265946   4.005   5.826   4.389  1.5828  0.9544  0.5589
14819TIP3   OH265947   0.534   2.561  16.803  0.2474  1.1695  0.1115
14819TIP3    H165948   0.625   2.562  16.774  0.4738  0.7184  0.7899
14819TIP3    H265949   0.484   2.580  16.723  0.8027 -1.1552 -0.8833
14820TIP3   OH265950   0.573   6.501  15.000 -0.5553 -0.4991 -0.0361
14820TIP3    H165951   0.567   6.550  14.918  1.7813 -0.4239 -0.2326
14820TIP3    H265952   0.520   6.551  15.062 -0.2300  0.9160 -0.8511
14821TIP3   OH265953   2.860   1.046   4.352 -0.1324  0.5844  0.5351
14821TIP3    H165954   2.916   0.976   4.384 -0.7751  0.0722  0.5515
14821TIP3    H265955   2.858   1.110   4.423 -1.0431 -0.2516  1.2822
14822TIP3   OH265956   1.847   6.390  13.822  0.2753 -0.5470  0.2615
14822TIP3    H165957   1.811   6.348  13.900  1.4036 -2.1025 -0.0215
14822TIP3    H265958   1.778   6.384  13.757 -0.0520 -0.7643  0.6270
14823TIP3   OH265959   0.712   2.679   0.841 -0.1718  0.0432  0.8912
14823TIP3    H165960   0.662   2.612   0.794  0.6550  0.9252 -1.3477
14823TIP3    H265961   0.678   2.762   0.809 -0.1386  0.7338  2.5121
14824TIP3   OH265962   5.770   6.815   1.814 -0.0285 -0.1727  0.5720
14824TIP3    H165963   5.731   6.884   1.760  1.1011  0.9661  1.1404
14824TIP3    H265964   5.706   6.801   1.884 -0.6968 -0.3955 -0.0756
14825TIP3   OH265965   3.652   4.926   0.499  0.0242  0.0138  0.0586
14825TIP3    H165966   3.609   4.957   0.580 -0.9266 -1.3540  0.1062
14825TIP3    H265967   3.743   4.910   0.526 -0.0342  0.5037  0.5978
14826TIP3   OH265968   4.305   5.993   1.826  0.9106 -0.2064  0.0986
14826TIP3    H165969   4.283   5.902   1.804  0.1971 -0.3065  1.1168
14826TIP3    H265970   4.235   6.020   1.886  1.1829  0.9807 -0.1005
14827TIP3   OH265971   0.419   6.401  14.365  0.1104  0.0096 -0.4255
14827TIP3    H165972   0.434   6.492  14.391  0.4122 -0.0098 -0.5277
14827TIP3    H265973   0.448   6.396  14.274  1.4458 -0.5214  0.0024
14828TIP3   OH265974   0.982   1.436  15.817 -0.2246 -0.1887  0.5576
14828TIP3    H165975   1.020   1.521  15.841 -0.3550 -0.2102  0.8520
14828TIP3    H265976   0.947   1.449  15.730 -1.5278  0.4869  1.1615
14829TIP3   OH265977   5.787   5.658   5.446 -0.0622  0.1572 -0.4761
14829TIP3    H165978   5.844   5.726   5.409  0.2216  0.8488  1.1397
14829TIP3    H265979   5.721   5.706   5.496 -2.2022 -0.6179 -2.3721
14830TIP3   OH265980   6.552   6.672   4.256 -0.1508  0.0106 -0.0275
14830TIP3    H165981   6.621   6.699   4.196 -1.7780 -0.4118 -2.2143
14830TIP3    H265982   6.539   6.748   4.313  1.3435  0.4856 -0.2640
14831TIP3   OH265983   4.435   5.304   0.278  0.3008  0.5898 -0.2713
14831TIP3    H165984   4.476   5.217   0.272 -0.8699 -0.2513  2.1633
14831TIP3    H265985   4.493   5.353   0.336 -0.8981  0.1105  1.4205
14832TIP3   OH265986   3.057   0.483  14.381  0.2001 -0.0794  0.0587
14832TIP3    H165987   3.055   0.515  14.471  0.2054 -1.3358  0.5256
14832TIP3    H265988   3.122   0.538  14.337  0.3249  0.4282  0.8628
14833TIP3   OH265989   5.665   4.494   2.551  0.4480 -0.4713  0.0942
14833TIP3    H165990   5.743   4.547   2.533  0.0915  0.7774  1.9377
14833TIP3    H265991   5.680   4.458   2.638 -1.0543 -0.1045  0.5335
14834TIP3   OH265992   2.559   2.018  15.388 -0.5895  0.3470  0.6217
14834TIP3    H165993   2.472   2.051  15.408 -0.3399  1.6447 -0.3038
14834TIP3    H265994   2.547   1.963  15.311 -0.7860 -0.6331  1.3306
14835TIP3   OH265995   5.466   4.642   3.398 -0.3524  0.1050  0.3418
14835TIP3    H165996   5.478   4.660   3.305  1.1360 -0.2550  0.4441
14835TIP3    H265997   5.470   4.728   3.440 -0.0697  0.1805  0.1622
14836TIP3   OH265998   0.579   0.470  10.549 -0.3236 -0.2304 -0.0851
14836TIP3    H165999   0.569   0.562  10.523  0.3295 -0.4741 -1.2574
14836TIP3    H266000   0.627   0.474  10.632  0.4195  0.4636 -0.5344
14837TIP3   OH266001   3.159   1.093   1.149 -0.3470 -0.2668  0.3906
14837TIP3    H166002   3.089   1.112   1.087  0.4370  1.4117 -0.0308
14837TIP3    H266003   3.114   1.059   1.227 -1.5189 -0.3221 -0.2880
14838TIP3   OH266004   6.008   3.383   1.583  0.2644 -0.1658 -0.9145
14838TIP3    H166005   6.022   3.468   1.542  2.6306 -0.1293 -0.2090
14838TIP3    H266006   6.048   3.391   1.669 -2.5315 -0.9622  0.5757
14839TIP3   OH266007   3.935   6.632   0.615  0.0482 -0.0683 -0.0217
14839TIP3    H166008   3.852   6.643   0.660  0.2453  1.6428 -0.0057
14839TIP3    H266009   3.991   6.585   0.677 -0.6997 -0.6728  0.2007
14840TIP3   OH266010   3.983   3.522  16.433 -0.0058  0.8015 -0.4764
14840TIP3    H166011   3.975   3.431  16.406  0.3594  1.3261 -2.5342
14840TIP3    H266012   4.077   3.540  16.433 -0.0134  0.9347  0.8771
14841TIP3   OH266013   1.123   1.805  11.857  0.3690 -0.0483  0.0876
14841TIP3    H166014   1.094   1.771  11.772  1.1498 -1.7367  0.4553
14841TIP3    H266015   1.092   1.741  11.921  2.2585 -0.3654  0.7747
14842TIP3   OH266016   5.786   6.422  16.171 -0.0954 -0.2262  0.7193
14842TIP3    H166017   5.847   6.426  16.098  0.1271 -0.3341  0.8957
14842TIP3    H266018   5.762   6.329  16.178 -1.3952  0.0043 -0.2484
14843TIP3   OH266019   4.578   5.984  11.645 -0.2983 -0.1338  0.4223
14843TIP3    H166020   4.549   5.913  11.587 -0.2716 -0.7695  1.1593
14843TIP3    H266021   4.630   6.041  11.589  1.1275 -1.6164  0.1627
14844TIP3   OH266022   5.767   5.833  12.307  0.0634 -0.7633 -1.0908
14844TIP3    H166023   5.786   5.746  12.272 -2.0122 -0.8985 -2.0068
14844TIP3    H266024   5.681   5.825  12.348  0.0834  0.7175 -0.6797
14845TIP3   OH266025   6.767   6.092   0.565  0.1829  0.3965  0.6803
14845TIP3    H166026   6.694   6.032   0.546  0.7850  0.4828 -2.4176
14845TIP3    H266027   6.841   6.035   0.585  0.3172  0.1138 -0.5412
14846TIP3   OH266028   2.463   2.839   0.967 -0.0829  0.0062  0.0231
14846TIP3    H166029   2.381   2.791   0.975 -0.7947  0.8723 -1.6209
14846TIP3    H266030   2.470   2.889   1.049 -1.5719  0.4509 -0.0838
14847TIP3   OH266031   2.796   6.302  14.340 -0.7080  0.0865  0.2466
14847TIP3    H166032   2.880   6.319  14.298  0.6955  1.4393  3.3576
14847TIP3    H266033   2.764   6.222  14.297  0.9653  0.8266 -2.6468
14848TIP3   OH266034   0.258   2.970   1.564 -0.0992  0.1116 -0.5055
14848TIP3    H166035   0.286   2.890   1.608  0.0142  1.3111  1.8283
14848TIP3    H266036   0.165   2.957   1.545  0.1877 -0.9844 -1.2152
14849TIP3   OH266037   2.994   5.702  16.160  0.3957 -0.3696  0.3041
14849TIP3    H166038   2.949   5.769  16.109  0.5999 -2.0072 -2.1672
14849TIP3    H266039   3.059   5.751  16.211 -0.4021  1.4362 -0.3282
14850TIP3   OH266040   6.065   0.620   1.127  0.6145 -0.5484 -0.4848
14850TIP3    H166041   5.969   0.624   1.130  0.6128 -0.8077 -0.1018
14850TIP3    H266042   6.087   0.628   1.035  0.2837  0.9388 -0.4665
14851TIP3   OH266043   2.825   2.277   1.502  0.0821  0.5757  0.2192
14851TIP3    H166044   2.855   2.258   1.591 -1.1627  2.0669  1.0185
14851TIP3    H266045   2.903   2.271   1.448  0.7530 -0.9853  1.3075
14852TIP3   OH266046   1.603   5.392  13.627 -0.0072  0.2609 -0.4292
14852TIP3    H166047   1.679   5.384  13.685 -0.2439  1.4352  0.0831
14852TIP3    H266048   1.537   5.336  13.667  0.6950 -1.1216 -1.1196
14853TIP3   OH266049   5.292   0.980   3.142 -0.5085 -0.6378 -0.4488
14853TIP3    H166050   5.207   0.959   3.103 -0.8189  0.2599 -0.2711
14853TIP3    H266051   5.294   1.076   3.145 -0.1998 -0.6673  1.0838
14854TIP3   OH266052   1.847   0.533   3.650  0.2152  0.1669  0.2469
14854TIP3    H166053   1.809   0.446   3.648  1.9265 -0.6267  0.3293
14854TIP3    H266054   1.852   0.559   3.557  1.2140 -0.5460  0.0839
14855TIP3   OH266055   0.310   1.453  13.773 -0.6185 -0.3176  0.3331
14855TIP3    H166056   0.241   1.516  13.754  1.9235  2.2972 -0.8984
14855TIP3    H266057   0.344   1.480  13.858  0.2154 -0.2679 -0.0094
14856TIP3   OH266058   5.148   3.010   4.404  0.0111  0.3767  0.3458
14856TIP3    H166059   5.227   3.029   4.454  1.0194  0.9823 -1.3859
14856TIP3    H266060   5.106   2.938   4.452  0.2225  1.7471  2.7157
14857TIP3   OH266061   6.691   3.061  15.015  0.0273  0.4553 -0.3828
14857TIP3    H166062   6.695   3.154  15.037 -0.1564 -0.0817  2.2261
14857TIP3    H266063   6.760   3.049  14.951  1.4171  2.0571  0.7164
14858TIP3   OH266064   2.706   0.739   4.116  0.0646  0.0440  0.3717
14858TIP3    H166065   2.627   0.763   4.066 -0.1773 -0.8089  0.3333
14858TIP3    H266066   2.674   0.725   4.205  0.3102  0.4605  0.5289
14859TIP3   OH266067   0.720   0.022  12.253  0.0082 -0.3697 -0.1631
14859TIP3    H166068   0.677   0.033  12.169 -0.4332 -0.9690 -0.0225
14859TIP3    H266069   0.677   0.084  12.311  0.6922  0.4456 -0.5076
14860TIP3   OH266070   2.304   3.843  15.773 -0.0081 -0.4280  0.2646
14860TIP3    H166071   2.287   3.761  15.821  1.2567 -0.4454  0.7372
14860TIP3    H266072   2.400   3.848  15.770 -0.0813  0.7218 -0.3142
14861TIP3   OH266073   0.688   3.999   5.055  0.0596  0.6783  0.0979
14861TIP3    H166074   0.684   4.055   5.132  2.6451  1.2970 -0.1229
14861TIP3    H266075   0.696   3.910   5.089 -3.0193  0.4303  0.4477
14862TIP3   OH266076   4.438   0.067  12.341 -0.0622  0.9952 -0.1462
14862TIP3    H166077   4.522   0.097  12.375 -0.0153 -0.6815  1.3732
14862TIP3    H266078   4.381   0.144  12.347  0.8275  1.6066  0.7412
14863TIP3   OH266079   3.825   1.919   2.710 -0.0853  0.1093 -0.0647
14863TIP3    H166080   3.875   1.867   2.648  0.8870  0.5838  0.3000
14863TIP3    H266081   3.878   1.919   2.790 -0.7148  0.5345  0.3646
14864TIP3   OH266082   1.699   1.750   1.100  0.0514  0.7225  0.4188
14864TIP3    H166083   1.622   1.705   1.135  1.4988 -5.2681 -2.6965
14864TIP3    H266084   1.772   1.717   1.153  1.0930  0.5274 -1.0695
14865TIP3   OH266085   3.050   0.506   0.738  0.3019  0.2101 -0.1921
14865TIP3    H166086   3.092   0.585   0.772 -1.3108  0.7834  0.5537
14865TIP3    H266087   3.086   0.435   0.791  1.9656  0.3727 -1.0471
14866TIP3   OH266088   2.401   0.864  15.040  1.0731 -0.6548  0.2448
14866TIP3    H166089   2.441   0.777  15.038  1.4583 -0.4815  0.3470
14866TIP3    H266090   2.438   0.910  14.964 -2.7975 -2.1526 -2.9540
14867TIP3   OH266091   2.855   2.507   5.588 -0.6507  0.7046  0.6662
14867TIP3    H166092   2.949   2.507   5.606 -0.4320  1.4147 -0.3935
14867TIP3    H266093   2.844   2.569   5.516 -1.7540 -0.3462 -0.1210
14868TIP3   OH266094   0.225   1.913   5.165  0.1380 -0.2360 -0.2236
14868TIP3    H166095   0.297   1.975   5.155 -0.4344  0.5286  0.3120
14868TIP3    H266096   0.238   1.849   5.095 -0.8849  2.0604 -2.6647
14869TIP3   OH266097   4.198   2.054   3.732 -0.0733  0.5664 -0.0887
14869TIP3    H166098   4.282   2.050   3.688 -0.2487  0.3012 -0.4040
14869TIP3    H266099   4.144   1.988   3.689  0.1779 -0.6879  1.4167
14870TIP3   OH266100   1.699   4.395   1.484 -0.1798 -0.0521  0.2140
14870TIP3    H166101   1.641   4.324   1.458 -2.4999  2.6761 -3.0836
14870TIP3    H266102   1.769   4.393   1.419 -1.1814  1.5228 -0.9980
14871TIP3   OH266103   2.368   1.276   3.043  0.1823 -0.1604  0.2185
14871TIP3    H166104   2.439   1.238   2.990  0.8614 -1.4125  1.9486
14871TIP3    H266105   2.308   1.204   3.060  0.5144 -0.0710  1.9900
14872TIP3   OH266106   6.776   4.237  12.023 -0.9395 -0.0503 -0.8925
14872TIP3    H166107   6.714   4.173  11.989  0.1397 -1.3219 -0.5427
14872TIP3    H266108   6.830   4.189  12.086 -0.3140  1.2826 -0.3454
14873TIP3   OH266109   2.931   6.081  16.589 -0.0194  0.3577 -0.0643
14873TIP3    H166110   2.881   6.089  16.508  0.1124 -1.2433 -0.3377
14873TIP3    H266111   3.003   6.144  16.580  0.2786 -0.1559 -1.4186
14874TIP3   OH266112   6.391   0.065   6.319 -0.0700  0.3261 -0.8009
14874TIP3    H166113   6.400  -0.021   6.278  0.4065 -0.1893  0.3262
14874TIP3    H266114   6.481   0.091   6.341 -0.3652  0.1622  0.6985
14875TIP3   OH266115   5.847   2.265   5.049 -0.0342  0.1259 -0.8821
14875TIP3    H166116   5.795   2.299   4.976  0.4900  1.9107 -0.4874
14875TIP3    H266117   5.935   2.299   5.033  0.2705 -0.1624  0.1200
14876TIP3   OH266118   5.159   3.878  16.766 -0.8974  0.2819 -0.0967
14876TIP3    H166119   5.252   3.896  16.753  0.3337 -3.3227  2.3112
14876TIP3    H266120   5.142   3.800  16.714 -1.4310 -1.4249  2.4719
14877TIP3   OH266121   6.297   1.486   3.614 -0.2247  0.0592 -0.4276
14877TIP3    H166122   6.259   1.399   3.600  0.2852 -0.2126 -0.1554
14877TIP3    H266123   6.303   1.524   3.527 -1.4220  0.2396 -0.4490
14878TIP3   OH266124   0.935   5.780  11.066  0.8790  0.6432 -0.7527
14878TIP3    H166125   0.924   5.846  10.998 -0.3753  2.8689  1.4149
14878TIP3    H266126   0.905   5.823  11.146  1.1877 -2.1903  1.0450
14879TIP3   OH266127   0.231   3.602   2.384  0.0790 -0.3508  0.2271
14879TIP3    H166128   0.286   3.668   2.427 -0.0766 -1.3273  2.0479
14879TIP3    H266129   0.142   3.623   2.414 -0.3048  0.0350 -1.1225
14880TIP3   OH266130   3.859   2.996  12.380  0.2316  0.1524  0.1278
14880TIP3    H166131   3.801   3.012  12.454 -0.1145  0.6006 -0.2301
14880TIP3    H266132   3.947   3.017  12.413 -0.1077  2.0693 -0.0727
14881TIP3   OH266133   6.343   6.807  13.283 -0.4812  0.1738  0.5511
14881TIP3    H166134   6.436   6.783  13.282 -0.6079 -0.7579  3.4161
14881TIP3    H266135   6.302   6.746  13.222  0.4159 -1.2874  1.3532
14882TIP3   OH266136   0.555   0.397  15.760  0.1368 -0.0297 -0.6406
14882TIP3    H166137   0.461   0.403  15.742 -0.2230  0.7340  1.3241
14882TIP3    H266138   0.595   0.461  15.701 -0.6713  0.3180 -0.8215
14883TIP3   OH266139   0.228   0.355  13.628  0.0589  0.5477  0.1063
14883TIP3    H166140   0.179   0.279  13.596  0.9369 -0.4417  1.0253
14883TIP3    H266141   0.283   0.382  13.555 -1.8881  1.7601 -0.9908
14884TIP3   OH266142   3.437   4.728   1.997  0.3521 -0.4385 -0.4488
14884TIP3    H166143   3.523   4.685   2.005  0.5105 -0.0730 -0.1577
14884TIP3    H266144   3.429   4.778   2.078  1.1750  1.9348 -1.7566
14885TIP3   OH266145   2.062   5.720  16.538 -0.5440 -1.0094 -0.7661
14885TIP3    H166146   1.974   5.742  16.568 -0.6069  0.2104 -1.7520
14885TIP3    H266147   2.054   5.711  16.443  0.8110  1.7341 -1.2408
14886TIP3   OH266148   3.040   2.913  13.392 -1.1626 -0.8321  0.0505
14886TIP3    H166149   3.109   2.956  13.442 -3.0818 -0.0458  2.1307
14886TIP3    H266150   3.066   2.821  13.391  1.7345 -0.1600 -2.3914
14887TIP3   OH266151   0.517   2.007   0.728  0.1361 -0.1355 -0.6781
14887TIP3    H166152   0.487   1.919   0.705 -0.7664  0.4161 -1.7178
14887TIP3    H266153   0.612   2.002   0.720  0.1376 -1.1553 -0.1889
14888TIP3   OH266154   5.856   1.926  15.524 -0.1637  0.4632 -0.0797
14888TIP3    H166155   5.922   1.901  15.588 -0.6891 -3.9163 -0.9233
14888TIP3    H266156   5.905   1.969  15.454  1.6788 -1.5440 -0.1148
14889TIP3   OH266157   0.148   6.143  16.749  0.2787  0.0287  1.0197
14889TIP3    H166158   0.237   6.134  16.783  0.3099 -0.1717  0.8838
14889TIP3    H266159   0.096   6.085  16.804  0.3186 -0.2479  0.7640
14890TIP3   OH266160   3.699   6.804  14.035 -0.1404 -0.3436  0.4241
14890TIP3    H166161   3.679   6.823  14.126 -0.5633 -2.1944  0.7426
14890TIP3    H266162   3.774   6.744  14.039 -1.5199 -2.1968 -0.3195
14891TIP3   OH266163   5.896   6.606   1.693  0.1395 -0.2057  0.0597
14891TIP3    H166164   5.898   6.654   1.611 -1.0720  0.7206  0.5392
14891TIP3    H266165   5.854   6.666   1.755 -0.8906 -1.6596  0.8338
14892TIP3   OH266166   0.267   1.459   6.188 -0.2505 -0.5885 -0.2955
14892TIP3    H166167   0.226   1.426   6.268 -1.7238  0.9125 -0.3646
14892TIP3    H266168   0.353   1.419   6.186  0.4202  0.4473  2.8207
14893TIP3   OH266169   5.048   3.626  14.902  0.1715  0.2065  0.6365
14893TIP3    H166170   5.096   3.545  14.887 -1.3112 -1.0040  2.1082
14893TIP3    H266171   5.076   3.656  14.988  3.6572  3.5154 -1.3328
14894TIP3   OH266172   4.009   1.649   1.269 -0.3839  0.0449  0.0994
14894TIP3    H166173   3.945   1.711   1.303  0.4067 -0.3284  2.4478
14894TIP3    H266174   4.070   1.702   1.217  0.8599  1.5036  2.8628
14895TIP3   OH266175   2.015   2.311  10.491 -0.5770  0.1729 -0.2639
14895TIP3    H166176   2.058   2.230  10.517 -2.1183 -0.7246 -0.4331
14895TIP3    H266177   1.922   2.294  10.501 -0.9436  1.8995 -0.4032
14896TIP3   OH266178   1.977   2.868  14.664  0.8235 -0.0371  0.8121
14896TIP3    H166179   1.964   2.959  14.639 -0.1351 -0.4619 -0.3165
14896TIP3    H266180   1.915   2.853  14.735  0.5193  0.0239  0.5611
14897TIP3   OH266181   6.493   0.224   0.546 -0.1717  0.3881 -0.7603
14897TIP3    H166182   6.451   0.224   0.632  0.0890  0.4965 -0.6304
14897TIP3    H266183   6.449   0.155   0.497  1.3847 -1.4617  0.3031
14898TIP3   OH266184   6.084   5.046  14.744  0.1262 -0.0215  0.5603
14898TIP3    H166185   6.083   5.056  14.839  0.9292 -2.8320  0.9436
14898TIP3    H266186   6.165   5.088  14.716 -0.0508  0.7057  1.1169
14899TIP3   OH266187   0.952   2.600  14.333  0.0807 -0.2545  0.1192
14899TIP3    H166188   0.865   2.616  14.297  0.8157 -1.8140 -2.5958
14899TIP3    H266189   1.009   2.662  14.288  0.6044 -0.2011  0.8362
14900TIP3   OH266190   0.758   0.054  16.928 -0.0890  0.3206 -0.2405
14900TIP3    H166191   0.725   0.001  17.000 -0.3006 -0.1523 -0.6813
14900TIP3    H266192   0.763   0.143  16.964  1.2688 -0.1570  0.8330
14901TIP3   OH266193   5.879   5.235   5.350 -0.4456  0.2541 -0.8838
14901TIP3    H166194   5.941   5.308   5.340 -0.3379  0.2837 -0.0844
14901TIP3    H266195   5.932   5.163   5.383 -0.7064  0.0633 -0.8788
14902TIP3   OH266196   6.196   4.229   0.250 -0.6044  0.0551  0.1453
14902TIP3    H166197   6.126   4.180   0.206 -0.8725  0.1211  0.4900
14902TIP3    H266198   6.276   4.183   0.226 -0.4962  1.3039 -2.1306
14903TIP3   OH266199   2.293   3.813   5.381  0.4125 -0.0389  0.1653
14903TIP3    H166200   2.324   3.822   5.471 -1.1144  1.7537  0.5652
14903TIP3    H266201   2.224   3.747   5.385 -0.9472  1.3817  0.6920
14904TIP3   OH266202   1.908   1.984  14.675  0.2564 -0.2354  0.7680
14904TIP3    H166203   1.927   2.052  14.610  3.8110 -0.7255  1.0816
14904TIP3    H266204   1.843   2.024  14.733 -0.3582  1.5334 -1.0102
14905TIP3   OH266205   3.971   1.304  13.736  0.2158  0.9895 -0.2699
14905TIP3    H166206   4.027   1.228  13.753 -0.4980  0.6922  0.8700
14905TIP3    H266207   4.028   1.366  13.691  0.4278 -0.7892 -2.6705
14906TIP3   OH266208   0.123   3.050  13.177  0.5718  0.0283 -0.1501
14906TIP3    H166209   0.128   2.968  13.226 -1.4202 -1.0044 -1.5573
14906TIP3    H266210   0.185   3.039  13.105 -0.0842 -0.5222 -0.6534
14907TIP3   OH266211   0.852   2.706  16.207  0.0384  0.2877  0.0285
14907TIP3    H166212   0.870   2.787  16.160 -0.5244 -1.5724 -3.8026
14907TIP3    H266213   0.784   2.729  16.270  0.1226  2.8409 -0.7174
14908TIP3   OH266214   1.886   0.457   4.469  0.1265 -0.4940  0.7533
14908TIP3    H166215   1.823   0.451   4.397 -0.3312 -1.0496  1.1869
14908TIP3    H266216   1.927   0.371   4.472 -2.4324 -1.7777  3.4241
14909TIP3   OH266217   0.508   0.557   3.131  0.2038 -0.1115  0.0072
14909TIP3    H166218   0.501   0.472   3.174  0.6189  0.8129  2.0326
14909TIP3    H266219   0.567   0.542   3.057  0.4975 -1.5214  0.4890
14910TIP3   OH266220   4.786   1.173  11.206 -0.6860 -0.3736  0.0581
14910TIP3    H166221   4.833   1.251  11.176  0.3604 -1.0385 -0.0880
14910TIP3    H266222   4.774   1.120  11.128 -1.8818 -0.1375  0.0591
14911TIP3   OH266223   0.787   3.762  13.521 -0.4644  0.0117 -0.3307
14911TIP3    H166224   0.814   3.854  13.510  1.0972 -0.0802  1.9922
14911TIP3    H266225   0.751   3.758  13.609  0.1433 -1.7454 -0.1270
14912TIP3   OH266226   0.505   4.242  15.981 -0.0993  0.6663  0.4058
14912TIP3    H166227   0.525   4.230  16.074  0.8501 -2.4460 -0.0848
14912TIP3    H266228   0.589   4.229  15.937 -0.8711  0.2053 -0.9800
14913TIP3   OH266229   1.755   3.924  14.685 -0.7119 -0.1810 -0.5516
14913TIP3    H166230   1.823   3.934  14.751 -0.1946 -2.4692 -0.6411
14913TIP3    H266231   1.801   3.929  14.601 -0.6130 -1.6694 -0.6141
14914TIP3   OH266232   6.192   4.127   2.414 -0.0909 -0.0993 -0.1268
14914TIP3    H166233   6.202   4.157   2.323 -0.2665 -1.3584 -0.5747
14914TIP3    H266234   6.181   4.033   2.407 -0.1551 -0.2050  1.2152
14915TIP3   OH266235   2.764   5.044  10.448 -0.3774 -0.0476 -0.1979
14915TIP3    H166236   2.732   5.133  10.434 -0.5658  0.0245  0.6680
14915TIP3    H266237   2.825   5.029  10.375  0.9346  1.3870  0.5334
14916TIP3   OH266238   6.368   1.870   2.481 -0.8178 -0.1075  0.2031
14916TIP3    H166239   6.396   1.801   2.421 -1.1866 -0.0318 -0.0570
14916TIP3    H266240   6.313   1.927   2.428 -0.5127  0.3889  0.4226
14917TIP3   OH266241   3.777   6.010   2.649 -0.2851  0.4374  0.3411
14917TIP3    H166242   3.787   6.073   2.578 -1.9914  0.0006 -0.3179
14917TIP3    H266243   3.700   5.958   2.626 -1.4287  0.8477  2.9279
14918TIP3   OH266244   5.812   6.063  15.289  0.3895  0.1376  0.1779
14918TIP3    H166245   5.872   6.110  15.348  0.4349  0.1448  0.1266
14918TIP3    H266246   5.828   5.971  15.308  1.4979  0.0789 -0.8685
14919TIP3   OH266247   5.461   2.206  15.765  0.3843  0.4067  0.2771
14919TIP3    H166248   5.513   2.243  15.693  0.5994 -0.0560  0.1905
14919TIP3    H266249   5.499   2.119  15.779 -0.1608  0.1922  0.4321
14920TIP3   OH266250   3.710   4.892  13.037 -0.0832  0.0605  0.4539
14920TIP3    H166251   3.803   4.887  13.015  0.1676  1.3355  1.1569
14920TIP3    H266252   3.666   4.893  12.951  0.6578  1.1194  0.0607
14921TIP3   OH266253   1.198   2.203   4.088 -0.2982  0.2326 -0.7020
14921TIP3    H166254   1.168   2.112   4.079 -0.7203  0.0376  1.9696
14921TIP3    H266255   1.280   2.206   4.038 -1.4511 -0.9196 -2.8389
14922TIP3   OH266256   6.841   5.072   4.945  0.1870 -0.2315 -0.2408
14922TIP3    H166257   6.835   5.079   4.849 -0.4698  0.7994 -0.1432
14922TIP3    H266258   6.765   5.121   4.977 -0.4940 -1.8575  0.7866
14923TIP3   OH266259   3.180   6.308   0.693 -0.4338 -0.9619  0.3300
14923TIP3    H166260   3.228   6.264   0.623  0.1721  1.8029 -1.1448
14923TIP3    H266261   3.155   6.238   0.753  0.9406 -3.1713 -1.5140
14924TIP3   OH266262   4.029   0.971   2.018 -0.6885  0.0552  0.0707
14924TIP3    H166263   3.948   0.990   1.970  0.0309  1.7320 -0.5540
14924TIP3    H266264   4.094   0.958   1.949 -0.5155 -1.8710  0.5582
14925TIP3   OH266265   0.521   1.689   1.469  0.6923  0.1271 -0.0507
14925TIP3    H166266   0.503   1.739   1.548 -0.6172  1.4916 -1.1461
14925TIP3    H266267   0.448   1.710   1.410  0.3262 -2.7139 -0.7778
14926TIP3   OH266268   0.007   3.505  14.079 -0.4587 -0.1395  0.2622
14926TIP3    H166269  -0.069   3.538  14.031 -0.9132 -0.3130  0.8436
14926TIP3    H266270   0.016   3.414  14.052  0.8602  0.4434 -1.4216
14927TIP3   OH266271   4.949   5.763  12.873 -0.4265 -0.0280  0.3527
14927TIP3    H166272   4.975   5.728  12.958 -1.2098 -1.3193  0.0950
14927TIP3    H266273   4.998   5.844  12.864  1.0574 -0.7831  1.2399
14928TIP3   OH266274   0.225   5.259  11.334 -0.2367 -0.3573  0.3404
14928TIP3    H166275   0.298   5.316  11.358  0.2132  0.3968 -2.4506
14928TIP3    H266276   0.223   5.192  11.403  2.0424  0.5072  1.3551
14929TIP3   OH266277   0.815   3.284   4.524 -0.1356 -0.2332  0.7258
14929TIP3    H166278   0.821   3.201   4.477  0.7130 -0.8791  1.9272
14929TIP3    H266279   0.902   3.323   4.516 -0.2503  0.0808  0.9839
14930TIP3   OH266280   0.586   3.850   3.652  0.2743 -0.4262 -0.5168
14930TIP3    H166281   0.635   3.896   3.720  0.1769 -1.2978  0.1664
14930TIP3    H266282   0.501   3.831   3.693  0.3468 -1.2797 -0.7462
14931TIP3   OH266283   5.400   6.666   2.556  0.6175  0.3839  0.7832
14931TIP3    H166284   5.482   6.676   2.604  0.2643  0.7995  1.3114
14931TIP3    H266285   5.332   6.694   2.618 -0.0167 -0.9020  0.7082
14932TIP3   OH266286   3.070   0.345   0.367 -0.2265 -0.3361 -0.2405
14932TIP3    H166287   3.026   0.310   0.444  0.2899 -1.7912 -0.5702
14932TIP3    H266288   3.011   0.325   0.294 -0.6492  0.9099 -0.2615
14933TIP3   OH266289   4.545   2.295  14.739  0.1954 -0.2597  0.1813
14933TIP3    H166290   4.475   2.231  14.743 -2.3132  1.9742 -2.7941
14933TIP3    H266291   4.528   2.355  14.811 -0.3526 -0.2983  0.0837
14934TIP3   OH266292   2.518   5.837   6.144 -0.3198 -0.7398 -0.1133
14934TIP3    H166293   2.465   5.916   6.158 -0.2704 -0.1779 -2.6099
14934TIP3    H266294   2.484   5.774   6.207  0.5415  1.6253  2.9136
14935TIP3   OH266295   6.568   4.683   3.519  0.4185 -0.2891  0.1079
14935TIP3    H166296   6.645   4.672   3.574  1.5677 -0.2853 -1.4389
14935TIP3    H266297   6.585   4.629   3.442 -1.1555 -0.3185 -0.2583
14936TIP3   OH266298   2.517   2.674   0.692  0.2253 -0.1939 -0.0782
14936TIP3    H166299   2.544   2.623   0.769  1.2090 -0.0361 -0.3040
14936TIP3    H266300   2.591   2.666   0.632  0.7697  2.1755  0.2046
14937TIP3   OH266301   3.708   4.255   2.360  0.2149 -0.4047 -0.0406
14937TIP3    H166302   3.701   4.189   2.430 -2.6447  0.7417  0.9110
14937TIP3    H266303   3.768   4.216   2.297  2.6414 -1.7189  2.7849
14938TIP3   OH266304   4.067   6.519  12.963 -0.4403 -0.0576 -0.0106
14938TIP3    H166305   4.045   6.521  12.870 -1.0053 -0.0906  0.1232
14938TIP3    H266306   3.995   6.565  13.006 -0.9166 -1.2835  0.5605
14939TIP3   OH266307   5.729   4.396   0.621 -0.2847 -0.2426  0.1750
14939TIP3    H166308   5.690   4.475   0.658 -0.3371 -1.1567  2.1445
14939TIP3    H266309   5.799   4.429   0.564 -1.8575  1.2895 -1.0180
14940TIP3   OH266310   4.150   4.413   5.400  0.2416 -0.1012  0.5897
14940TIP3    H166311   4.114   4.490   5.443 -1.8847 -1.2107  0.9498
14940TIP3    H266312   4.095   4.400   5.323  1.7141 -0.2459 -0.4697
14941TIP3   OH266313   3.632   6.265  13.415 -0.4767 -0.6655 -0.6928
14941TIP3    H166314   3.667   6.177  13.400  1.1968 -0.3985  1.2294
14941TIP3    H266315   3.634   6.276  13.510  1.0301  2.0636 -0.9444
14942TIP3   OH266316   3.363   0.242   5.695 -0.3840  0.4733  0.4716
14942TIP3    H166317   3.337   0.262   5.785 -0.0704 -0.1164  0.6968
14942TIP3    H266318   3.328   0.315   5.644  0.2836  1.3369  1.2022
14943TIP3   OH266319   5.730   2.754  13.420 -0.0164 -0.3344 -0.3258
14943TIP3    H166320   5.663   2.708  13.369 -0.1263 -0.9395  0.3454
14943TIP3    H266321   5.700   2.747  13.510 -0.0787  1.1582 -0.2101
14944TIP3   OH266322   0.615   4.905  11.361  0.0906  0.2842 -0.0688
14944TIP3    H166323   0.610   4.982  11.417  0.0578 -0.0750  0.4326
14944TIP3    H266324   0.708   4.897  11.340  0.4377 -0.7745  1.6656
14945TIP3   OH266325   1.394   0.279   5.775 -0.1028  0.2763  0.2850
14945TIP3    H166326   1.342   0.326   5.840 -1.4591 -1.5168  0.5570
14945TIP3    H266327   1.357   0.191   5.773  0.7382 -0.0959 -1.9998
14946TIP3   OH266328   0.156   1.657   1.599  0.2749 -0.2121  0.3579
14946TIP3    H166329   0.106   1.718   1.544 -0.1570 -0.6224  0.2859
14946TIP3    H266330   0.218   1.615   1.538  1.9345  1.5379  0.7582
14947TIP3   OH266331   2.165   0.796  15.984 -0.3122 -0.0646  0.4964
14947TIP3    H166332   2.250   0.809  15.942  0.0398 -0.7516  0.9665
14947TIP3    H266333   2.107   0.858  15.941  0.1079 -0.5228 -0.7725
14948TIP3   OH266334   2.906   6.501  16.199  0.5435 -0.0045  0.3647
14948TIP3    H166335   2.956   6.552  16.262 -1.8224  0.5993  1.8547
14948TIP3    H266336   2.925   6.542  16.115 -0.4259  2.7120  1.3634
14949TIP3   OH266337   1.484   0.642  12.883 -0.3115  0.4247  0.2193
14949TIP3    H166338   1.517   0.628  12.972  0.2636  0.0465 -0.0496
14949TIP3    H266339   1.552   0.694  12.840 -0.2515 -0.0055 -0.2129
14950TIP3   OH266340   5.396   2.677   4.305 -0.1354 -0.5471 -0.0011
14950TIP3    H166341   5.304   2.700   4.322 -0.2801 -1.3066  0.2900
14950TIP3    H266342   5.413   2.710   4.217 -1.0371 -1.3675 -0.5099
14951TIP3   OH266343   5.744   5.418   4.208  0.6420  0.2932 -0.0512
14951TIP3    H166344   5.721   5.472   4.132 -0.0619 -1.0834 -0.8498
14951TIP3    H266345   5.666   5.365   4.225  1.7329 -1.4271 -0.1356
14952TIP3   OH266346   4.326   5.911  15.171  0.0809  0.4101 -0.0063
14952TIP3    H166347   4.291   5.994  15.137 -2.5483 -0.6327 -0.0659
14952TIP3    H266348   4.404   5.937  15.220  1.4611  2.4955 -2.9565
14953TIP3   OH266349   3.503   2.396   2.618  0.4751  0.3575  0.4394
14953TIP3    H166350   3.576   2.456   2.601 -0.8228  2.1037  0.7571
14953TIP3    H266351   3.426   2.444   2.588 -0.8670 -0.2482  2.7449
14954TIP3   OH266352   4.526   6.410   2.650 -0.2728 -0.0332  0.0568
14954TIP3    H166353   4.530   6.352   2.726 -1.9285 -2.3726 -1.5089
14954TIP3    H266354   4.613   6.406   2.611  0.4483  0.8293  1.5124
14955TIP3   OH266355   1.684   6.780  15.561 -0.5220 -0.0659 -0.0798
14955TIP3    H166356   1.746   6.844  15.526  1.8325 -1.6422  0.9693
14955TIP3    H266357   1.731   6.697  15.557 -2.5299 -1.3293  0.9667
14956TIP3   OH266358   2.836   6.484   2.534  0.2009 -0.1225  0.2635
14956TIP3    H166359   2.808   6.566   2.574 -0.1316  0.2308 -0.6507
14956TIP3    H266360   2.877   6.511   2.452 -1.9446 -0.9698 -1.1775
14957TIP3   OH266361   1.529   3.390   0.839 -0.1302  0.2764 -0.2475
14957TIP3    H166362   1.556   3.403   0.748 -0.0082 -0.1235 -0.2715
14957TIP3    H266363   1.558   3.301   0.860 -1.6438 -0.2718 -0.3537
14958TIP3   OH266364   0.226   2.076   2.700  0.7405 -0.1996  0.0299
14958TIP3    H166365   0.240   2.170   2.694  1.1603 -0.3716 -3.0049
14958TIP3    H266366   0.294   2.038   2.644  0.3975 -2.3132  0.9533
14959TIP3   OH266367   3.357   6.187   3.545  0.2759 -0.3386 -0.1221
14959TIP3    H166368   3.289   6.126   3.574  0.6608 -0.1942  1.1152
14959TIP3    H266369   3.437   6.135   3.541  0.1927 -0.4163 -1.2129
14960TIP3   OH266370   3.275   3.008   6.147 -0.1427 -0.3684 -0.3390
14960TIP3    H166371   3.267   3.062   6.226 -0.2491  0.7297 -1.0845
14960TIP3    H266372   3.208   2.940   6.158 -0.0771 -0.3001  0.5602
14961TIP3   OH266373   3.171   5.471   5.611 -0.4763 -0.2480 -0.3216
14961TIP3    H166374   3.141   5.517   5.689  0.0116 -0.3572 -0.0666
14961TIP3    H266375   3.259   5.505   5.595 -1.5509  1.8167 -2.4233
14962TIP3   OH266376   5.150   2.162   6.540 -0.0506 -0.4573 -0.0038
14962TIP3    H166377   5.117   2.183   6.627  1.5912 -2.2954  1.1532
14962TIP3    H266378   5.245   2.158   6.550  0.0649 -3.1461 -1.2275
14963TIP3   OH266379   1.256   5.160  12.256 -0.2473  0.0802 -0.3535
14963TIP3    H166380   1.337   5.197  12.291 -0.8307 -1.0846  2.5332
14963TIP3    H266381   1.285   5.095  12.192  0.9715  1.1499 -0.9468
14964TIP3   OH266382   5.226   1.793   6.117 -0.7462 -0.0241 -0.1157
14964TIP3    H166383   5.305   1.784   6.169 -1.1335 -1.6173  0.2547
14964TIP3    H266384   5.255   1.836   6.036  0.3272  0.1983  0.3747
14965TIP3   OH266385   2.406   1.729   5.656  0.2300  0.1552 -0.0622
14965TIP3    H166386   2.428   1.667   5.585 -0.0178 -0.3617  0.3070
14965TIP3    H266387   2.471   1.711   5.724 -1.0701 -1.1592  0.9058
14966TIP3   OH266388   1.254   6.120  17.105  0.0297  0.1080 -0.0543
14966TIP3    H166389   1.266   6.059  17.032 -0.9113  1.8164 -1.7636
14966TIP3    H266390   1.324   6.100  17.166  0.3247 -1.9965 -0.9938
14967TIP3   OH266391   4.420   0.916   2.978 -0.6070 -0.6006 -0.0349
14967TIP3    H166392   4.419   1.004   2.942  3.3627 -0.7382 -0.9583
14967TIP3    H266393   4.390   0.926   3.068  0.6303  1.8551  0.1775
14968TIP3   OH266394   4.236   6.131   4.585 -0.2703  0.0537 -0.6796
14968TIP3    H166395   4.324   6.139   4.550 -0.5663  0.1996 -1.4255
14968TIP3    H266396   4.227   6.206   4.644  0.3636 -0.4010  0.0043
14969TIP3   OH266397   6.209   5.721   4.056 -0.3234  0.2034 -0.3748
14969TIP3    H166398   6.204   5.630   4.083 -2.4024  0.2763 -0.3748
14969TIP3    H266399   6.205   5.718   3.960  0.3614  0.2820 -0.4146
14970TIP3   OH266400   2.191   6.642   2.551  0.7690  0.1059  0.2023
14970TIP3    H166401   2.231   6.574   2.497  0.8213 -0.5632  1.0543
14970TIP3    H266402   2.108   6.604   2.580  1.2458  0.0057  1.4888
14971TIP3   OH266403   1.392   2.489   2.596 -0.1033  0.3285 -0.2285
14971TIP3    H166404   1.340   2.566   2.573 -0.5870  0.1993  0.4147
14971TIP3    H266405   1.331   2.416   2.591  0.2238  0.0602 -0.3112
14972TIP3   OH266406   0.989   3.169   5.914  0.1683 -0.3736  0.3243
14972TIP3    H166407   0.926   3.139   5.979 -0.2419  0.2227  0.2022
14972TIP3    H266408   1.055   3.099   5.910 -0.9893 -1.4710 -0.2530
14973TIP3   OH266409   2.240   6.305  17.119  0.1813  0.2113 -0.6520
14973TIP3    H166410   2.159   6.354  17.106 -0.0827  0.7312  2.1452
14973TIP3    H266411   2.306   6.354  17.070 -1.0373  0.1143 -2.4876
14974TIP3   OH266412   3.499   5.334   1.713  0.2380 -0.0848 -0.5848
14974TIP3    H166413   3.413   5.299   1.737  0.2951 -0.1794 -0.5173
14974TIP3    H266414   3.544   5.346   1.797 -0.0857  0.9543 -0.5334
14975TIP3   OH266415   2.467   0.618   0.235  0.5450 -0.0603  0.4966
14975TIP3    H166416   2.524   0.549   0.203  0.0685  0.6149 -1.9949
14975TIP3    H266417   2.470   0.685   0.167  2.3221  3.2559  3.4891
14976TIP3   OH266418   6.574   6.521  15.762  0.2655 -0.3320  0.4676
14976TIP3    H166419   6.640   6.574  15.807 -1.4952 -0.2724  3.2131
14976TIP3    H266420   6.513   6.585  15.725 -0.2715 -0.3977  1.2258
14977TIP3   OH266421   5.727   3.777   3.751 -0.0437  0.5553  0.1218
14977TIP3    H166422   5.797   3.745   3.808 -0.5513  0.1623  0.5333
14977TIP3    H266423   5.647   3.761   3.801 -0.5026  0.1315 -0.7321
14978TIP3   OH266424   3.678   0.249   4.914  0.2780  0.0380  0.3981
14978TIP3    H166425   3.632   0.280   4.992  0.1899  1.5763 -0.2256
14978TIP3    H266426   3.609   0.208   4.861  0.7110 -3.1708  2.0699
14979TIP3   OH266427   3.185   1.013   2.272  0.0759  0.2218 -0.8433
14979TIP3    H166428   3.145   1.094   2.304 -0.1829 -0.3311  0.3056
14979TIP3    H266429   3.133   0.944   2.313  2.0338 -0.5260  0.5092
14980TIP3   OH266430   6.224   3.025   4.477  0.3014 -0.0182  0.9702
14980TIP3    H166431   6.247   3.066   4.560  1.8323 -1.7939  1.4939
14980TIP3    H266432   6.180   2.943   4.502 -0.3562  0.0233  0.0026
14981TIP3   OH266433   4.981   3.935   1.934 -0.2962  0.0464 -0.1987
14981TIP3    H166434   4.973   3.840   1.947  1.3691 -0.4647 -2.2602
14981TIP3    H266435   5.029   3.943   1.851 -0.4945  2.7113 -0.1232
14982TIP3   OH266436   1.770   0.054  12.518 -0.1788 -0.4478 -0.2744
14982TIP3    H166437   1.725  -0.007  12.576 -0.3026  1.3801  1.6755
14982TIP3    H266438   1.858   0.061  12.553 -0.1207  0.3563 -0.5669
14983TIP3   OH266439   3.412   1.339  16.969  0.8865  0.1620 -0.4336
14983TIP3    H166440   3.390   1.376  16.883 -2.9838  1.2199  0.7816
14983TIP3    H266441   3.409   1.414  17.028  2.0932 -0.7624  0.8396
14984TIP3   OH266442   5.773   2.928  13.927  0.0330  0.3889  0.1390
14984TIP3    H166443   5.802   3.016  13.904  0.4877  0.6038  1.4670
14984TIP3    H266444   5.854   2.879  13.940 -0.2087 -0.4119 -1.1883
14985TIP3   OH266445   3.920   1.460  14.537 -0.2579 -0.1608  0.0135
14985TIP3    H166446   3.872   1.399  14.592 -2.0701  0.0998 -1.1797
14985TIP3    H266447   3.981   1.405  14.488 -0.1927 -0.6778  0.6614
14986TIP3   OH266448   0.740   3.317   1.031 -0.1654 -0.5257 -0.1405
14986TIP3    H166449   0.800   3.374   0.983  0.2411  0.5163  1.5540
14986TIP3    H266450   0.738   3.236   0.979  1.9779 -0.2578 -0.7568
14987TIP3   OH266451   2.755   1.557   0.026  0.3120 -0.2569  0.4915
14987TIP3    H166452   2.673   1.537  -0.020  0.1258  1.4290 -0.0065
14987TIP3    H266453   2.792   1.472   0.048 -0.7458 -1.0865 -0.7674
14988TIP3   OH266454   5.547   5.766  16.929  0.3538  0.0872  0.3568
14988TIP3    H166455   5.464   5.809  16.907 -0.1185 -1.6527 -1.5145
14988TIP3    H266456   5.613   5.835  16.919 -0.5725  0.8614 -0.6695
14989TIP3   OH266457   0.722   2.130   5.171 -0.1729 -0.0518  0.0320
14989TIP3    H166458   0.668   2.203   5.142  0.3952 -0.5055 -2.3389
14989TIP3    H266459   0.794   2.171   5.219 -0.7364  0.7914  0.1762
14990TIP3   OH266460   1.369   2.505   5.142 -0.5831 -0.2720 -0.6316
14990TIP3    H166461   1.406   2.581   5.097  3.2130 -2.5467 -1.8381
14990TIP3    H266462   1.406   2.508   5.230 -0.8296 -0.4609 -0.5180
14991TIP3   OH266463   5.122   4.245  16.749  0.4108 -0.3812 -0.1619
14991TIP3    H166464   5.154   4.221  16.662 -1.7927 -2.2373 -0.5521
14991TIP3    H266465   5.080   4.330  16.735  0.1926 -0.5962 -0.8886
14992TIP3   OH266466   6.132   1.095  14.831 -0.2596  0.1238 -0.9605
14992TIP3    H166467   6.225   1.104  14.814 -0.1841  0.3601 -0.4393
14992TIP3    H266468   6.112   1.004  14.806  0.6494 -0.7843  1.2919
14993TIP3   OH266469   2.303   3.436   6.210  0.2412  0.1887  0.0153
14993TIP3    H166470   2.255   3.499   6.156  0.8566  1.7557  1.2465
14993TIP3    H266471   2.394   3.464   6.204  0.5535 -0.7014  0.4632
14994TIP3   OH266472   0.847   5.295   3.262 -0.0877 -0.2814 -0.0291
14994TIP3    H166473   0.916   5.361   3.252 -0.4984  0.1892  0.1914
14994TIP3    H266474   0.851   5.270   3.354 -1.1421  0.8026  0.3350
14995TIP3   OH266475   3.912   0.822  15.162 -0.2720 -0.2695 -0.0071
14995TIP3    H166476   3.912   0.890  15.095 -0.0858 -0.0049  0.2620
14995TIP3    H266477   3.939   0.866  15.242  2.4068 -1.1205 -0.3212
14996TIP3   OH266478   2.528   6.083   2.369  0.3789  0.4273 -0.4874
14996TIP3    H166479   2.614   6.089   2.411  0.5098 -0.4860 -0.5951
14996TIP3    H266480   2.539   6.126   2.284  0.9034 -0.2270 -0.7560
14997TIP3   OH266481   4.103   6.321   2.597  0.4759 -0.6226  0.2198
14997TIP3    H166482   4.138   6.406   2.624 -0.1011 -0.3791  0.2357
14997TIP3    H266483   4.066   6.284   2.677 -0.9529 -0.0402 -0.1234
14998TIP3   OH266484   0.500   3.155  10.942 -0.0305  0.2873 -0.0748
14998TIP3    H166485   0.441   3.090  10.980 -0.8485  0.9240 -0.2168
14998TIP3    H266486   0.459   3.179  10.859  1.3398 -0.5261 -1.0449
14999TIP3   OH266487   4.010   0.576   1.528 -0.6502 -0.3116 -0.0121
14999TIP3    H166488   4.008   0.669   1.551 -1.9989 -0.0861 -0.9172
14999TIP3    H266489   4.048   0.533   1.605  1.6572  1.1453 -0.2422
15000TIP3   OH266490   4.871   1.439   5.392 -0.0682  0.4873  0.0589
15000TIP3    H166491   4.959   1.448   5.354 -0.2497  0.9540 -0.2543
15000TIP3    H266492   4.827   1.521   5.370 -1.0632 -0.3055 -1.0199
15001TIP3   OH266493   1.919   5.028   1.534 -0.0983 -0.0200  0.0569
15001TIP3    H166494   1.845   5.012   1.475 -0.3559 -0.2575  0.4342
15001TIP3    H266495   1.928   4.946   1.583  1.6398 -0.6844 -1.3081
15002TIP3   OH266496   4.568   4.534  16.129 -0.4389 -0.4571 -0.3710
15002TIP3    H166497   4.658   4.519  16.157 -0.0492 -1.0809 -1.8446
15002TIP3    H266498   4.545   4.455  16.079 -1.4169  0.1630 -0.9348
15003TIP3   OH266499   1.396   2.539  10.804 -0.3208  0.5667 -1.1119
15003TIP3    H166500   1.344   2.519  10.726 -0.8263  2.2680 -1.2569
15003TIP3    H266501   1.481   2.497  10.787 -0.3587  1.0383 -2.6835
15004TIP3   OH266502   6.181   2.098  15.912  0.4532  0.2977  0.0858
15004TIP3    H166503   6.193   2.183  15.870 -0.5188 -0.1744 -1.1971
15004TIP3    H266504   6.260   2.049  15.891 -0.3636 -0.2308 -2.0065
15005TIP3   OH266505   3.555   4.065   1.480 -0.0049  0.2783  0.2176
15005TIP3    H166506   3.548   4.140   1.539 -2.3482  0.7328 -0.5282
15005TIP3    H266507   3.471   4.064   1.433  0.2393 -2.3887 -0.3056
15006TIP3   OH266508   1.661   4.028  12.824 -0.1098  0.2143  0.2410
15006TIP3    H166509   1.704   3.987  12.900  1.8419  1.6555 -0.0108
15006TIP3    H266510   1.607   4.098  12.862  1.3071  1.3098  0.3415
15007TIP3   OH266511   0.136   5.748  14.018  0.9403 -0.1356  0.1424
15007TIP3    H166512   0.076   5.673  14.020 -0.2389  0.7164 -0.9685
15007TIP3    H266513   0.223   5.709  14.008  0.4754 -1.3810  0.7109
15008TIP3   OH266514   2.473   3.365  16.082 -0.0291 -0.0755 -0.1570
15008TIP3    H166515   2.527   3.299  16.040 -1.6989 -2.6120  1.4059
15008TIP3    H266516   2.530   3.405  16.148  1.2478  0.7126 -1.6826
15009TIP3   OH266517   5.015   2.902  16.440  0.1746  0.9077 -0.6440
15009TIP3    H166518   5.038   2.930  16.529  0.6480 -0.1906 -0.3923
15009TIP3    H266519   4.943   2.840  16.452 -0.3227  1.3944 -1.1029
15010TIP3   OH266520   5.668   2.044  15.061  0.5411  0.0933  0.1847
15010TIP3    H166521   5.586   2.057  15.108  0.4226  1.1210 -0.2828
15010TIP3    H266522   5.709   1.969  15.104  0.1702  0.6345  1.5415
15011TIP3   OH266523   0.545   5.950  13.098 -0.1014 -0.7948  0.0581
15011TIP3    H166524   0.615   5.970  13.159 -1.5361  1.8644  0.9737
15011TIP3    H266525   0.583   5.964  13.012  0.5963  0.3645  0.5350
15012TIP3   OH266526   3.149   3.257   0.622  0.4020  0.0321  0.1925
15012TIP3    H166527   3.077   3.195   0.633  1.0171 -0.7440 -0.1405
15012TIP3    H266528   3.152   3.305   0.705 -2.1737  1.8995 -0.6477
15013TIP3   OH266529   6.150   2.763   2.757 -0.0681  0.1494  0.1302
15013TIP3    H166530   6.064   2.763   2.715  0.1408  0.1759 -0.3043
15013TIP3    H266531   6.205   2.816   2.700 -0.0033  0.9531  0.9158
15014TIP3   OH266532   3.492   5.848  15.181 -0.1625  0.3461  0.0709
15014TIP3    H166533   3.429   5.919  15.169 -1.0585 -0.0865  1.7957
15014TIP3    H266534   3.461   5.803  15.260 -1.2115 -3.6141 -2.3293
15015TIP3   OH266535   6.337   3.077   0.227 -0.5405  0.0028 -0.0245
15015TIP3    H166536   6.388   3.014   0.278 -2.0135 -1.1909  0.0512
15015TIP3    H266537   6.337   3.041   0.138  0.6234  1.1971 -0.5358
15016TIP3   OH266538   2.902   1.318   0.033 -0.0556  0.4840 -0.2232
15016TIP3    H166539   2.894   1.253   0.102 -0.6706  0.0103 -0.7300
15016TIP3    H266540   2.989   1.355   0.045  0.2814 -0.3918  0.1068
15017TIP3   OH266541   0.291   1.340   3.592  0.4607 -0.3048  1.0472
15017TIP3    H166542   0.314   1.433   3.596  0.4219 -0.2548  0.3295
15017TIP3    H266543   0.261   1.327   3.502 -1.5610 -0.5571  1.7164
15018TIP3   OH266544   4.449   3.105  14.639  0.1354  0.2633 -0.5574
15018TIP3    H166545   4.469   3.193  14.672  1.3519 -0.0518 -0.3729
15018TIP3    H266546   4.535   3.062  14.636 -0.5413 -1.1953  0.1841
15019TIP3   OH266547   6.344   4.156  14.058  0.3801  0.4800  0.0991
15019TIP3    H166548   6.281   4.195  14.119  0.3774  0.8032 -0.1132
15019TIP3    H266549   6.428   4.197  14.081  0.6024 -0.2548  0.6631
15020TIP3   OH266550   2.520   6.679  16.360  0.3776 -0.9260  0.1316
15020TIP3    H166551   2.485   6.768  16.366 -0.2968 -1.2077  0.4719
15020TIP3    H266552   2.584   6.673  16.431 -0.7102 -1.2013  1.1185
15021TIP3   OH266553   5.237   0.330  16.656 -0.7273 -0.1194 -0.4411
15021TIP3    H166554   5.262   0.268  16.725 -1.0098 -0.7773 -0.9228
15021TIP3    H266555   5.146   0.355  16.678 -0.4298  0.5700  0.0636
15022TIP3   OH266556   2.106   6.767  10.796  0.0921 -0.2861 -0.3357
15022TIP3    H166557   2.136   6.719  10.873 -1.6298  0.6182  0.9711
15022TIP3    H266558   2.051   6.705  10.749  1.7590 -1.0926 -1.3297
15023TIP3   OH266559   6.845   0.715  15.370  0.5253  0.2465  0.2171
15023TIP3    H166560   6.778   0.745  15.309  0.2755 -0.7034  0.0107
15023TIP3    H266561   6.888   0.796  15.400 -1.0148  0.9113  0.7198
15024TIP3   OH266562   2.930   0.616   6.244 -0.4809  0.1831  0.3999
15024TIP3    H166563   2.901   0.692   6.194 -1.3794 -1.1180 -1.1502
15024TIP3    H266564   2.983   0.566   6.183  0.9750  0.0409  1.7202
15025TIP3   OH266565   4.113   0.323   3.805  0.4695  0.0742  0.5053
15025TIP3    H166566   4.115   0.297   3.897  2.1366  0.6486  0.6607
15025TIP3    H266567   4.034   0.282   3.770  2.4121 -4.5606  0.8844
15026TIP3   OH266568   6.134   5.587  14.427  0.4824  0.5516 -0.1553
15026TIP3    H166569   6.170   5.549  14.347  1.4640  0.5617  0.2582
15026TIP3    H266570   6.079   5.660  14.396  0.3812  0.1947 -0.8394
15027TIP3   OH266571   4.066   4.644  15.226 -0.2147 -0.2551  0.0800
15027TIP3    H166572   4.086   4.554  15.203 -0.0760 -0.1319 -0.2955
15027TIP3    H266573   3.982   4.662  15.185 -0.9778 -0.6721  1.3937
15028TIP3   OH266574   3.548   5.973  11.282 -0.6764  0.3323 -0.1309
15028TIP3    H166575   3.542   6.068  11.276  0.6737  0.4138 -0.6180
15028TIP3    H266576   3.506   5.942  11.202  0.1968  0.5945 -0.7011
15029TIP3   OH266577   2.928   3.707   4.247  0.0969 -0.0987 -0.1075
15029TIP3    H166578   3.004   3.700   4.306 -1.1088  0.7069  1.6301
15029TIP3    H266579   2.964   3.742   4.166  1.6206  0.2062  0.6591
15030TIP3   OH266580   1.062   5.239   6.579 -0.0236 -1.0973 -0.7081
15030TIP3    H166581   1.038   5.308   6.517  0.6549 -0.0512  0.1625
15030TIP3    H266582   1.067   5.160   6.525 -2.4204 -0.8176 -1.4376
15031TIP3   OH266583   4.552   1.943   0.222 -0.8155  0.0374  0.1370
15031TIP3    H166584   4.536   1.936   0.128  0.3920 -3.2886  0.0356
15031TIP3    H266585   4.464   1.942   0.261 -1.3037  0.1730 -0.9184
15032TIP3   OH266586   2.128   2.113  16.813  0.0275  0.2280  0.1045
15032TIP3    H166587   2.071   2.036  16.817  1.1466 -0.8868 -2.7902
15032TIP3    H266588   2.216   2.078  16.824  0.4179  1.4713  1.1789
15033TIP3   OH266589   3.366   6.595   1.183  0.4469  0.2774 -0.0179
15033TIP3    H166590   3.415   6.515   1.201  1.9698  0.6899 -1.9829
15033TIP3    H266591   3.415   6.664   1.228  1.3511  0.5985 -1.4416
15034TIP3   OH266592   1.784   3.731  14.038 -0.6630 -0.4713 -0.5938
15034TIP3    H166593   1.739   3.647  14.036 -0.1622 -0.7693  0.2331
15034TIP3    H266594   1.832   3.734  13.955 -1.3236 -0.6365 -0.9850
15035TIP3   OH266595   3.929   5.405  14.292 -0.6219 -0.3945 -0.2454
15035TIP3    H166596   3.928   5.496  14.319 -0.7251 -0.6971  0.8140
15035TIP3    H266597   4.020   5.387  14.269 -0.6484  0.0361 -0.6887
15036TIP3   OH266598   1.840   3.637  14.808  0.1348 -0.1693 -0.7632
15036TIP3    H166599   1.749   3.627  14.781 -0.3840  0.0025  0.8124
15036TIP3    H266600   1.846   3.588  14.890  1.4168 -0.0228 -0.7576
15037TIP3   OH266601   5.638   4.336  11.992  0.0028  0.0198 -0.3095
15037TIP3    H166602   5.722   4.359  11.953  0.3970  2.0751  1.5810
15037TIP3    H266603   5.646   4.243  12.013  2.1111  0.3192  0.4610
15038TIP3   OH266604   6.392   0.236   4.348  0.0325  0.1463  0.2934
15038TIP3    H166605   6.421   0.264   4.262 -3.0798 -1.3332 -1.4479
15038TIP3    H266606   6.454   0.168   4.374  1.6710  1.4131 -0.2089
15039TIP3   OH266607   2.566   3.725  11.629 -0.1389  0.1946  0.5009
15039TIP3    H166608   2.502   3.753  11.695 -0.0974  0.3374  0.4812
15039TIP3    H266609   2.585   3.804  11.579  0.1239  0.1746  0.5661
15040TIP3   OH266610   0.253   0.948   4.994 -0.4065  0.1729  0.0370
15040TIP3    H166611   0.345   0.964   5.013 -0.5099  0.1931  0.5130
15040TIP3    H266612   0.208   1.025   5.027 -0.4706  0.7523 -1.3148
15041TIP3   OH266613   2.597   5.009   5.438  0.7524  0.0371 -0.2020
15041TIP3    H166614   2.526   4.953   5.470 -0.3026  0.9600 -0.8484
15041TIP3    H266615   2.575   5.096   5.470  0.3397  0.7591 -2.3232
15042TIP3   OH266616   0.191   1.528   5.530 -0.2917 -0.0420  0.6570
15042TIP3    H166617   0.193   1.605   5.474  0.4969 -1.8980 -2.1128
15042TIP3    H266618   0.102   1.495   5.523  0.1504 -1.0399 -0.7607
15043TIP3   OH266619   6.324   0.781  15.656 -0.0712  0.1297 -0.0186
15043TIP3    H166620   6.280   0.696  15.662 -1.2427  0.7712  1.0504
15043TIP3    H266621   6.416   0.760  15.643 -0.5653 -1.2706 -1.5912
15044TIP3   OH266622   4.744   2.721   2.721 -0.3690  0.0460  0.1526
15044TIP3    H166623   4.800   2.672   2.781  2.8159  0.0365 -2.4907
15044TIP3    H266624   4.682   2.656   2.689 -0.9613 -0.3703  2.0160
15045TIP3   OH266625   0.592   3.683  15.769  0.3605  0.1114  0.0357
15045TIP3    H166626   0.635   3.709  15.687 -0.3030 -0.3292 -0.4725
15045TIP3    H266627   0.502   3.716  15.759  0.0021 -0.8026  0.1458
15046TIP3   OH266628   2.738   1.460  15.728 -0.3462 -0.3433 -0.0205
15046TIP3    H166629   2.681   1.529  15.763  0.0467  0.1167 -0.2774
15046TIP3    H266630   2.684   1.417  15.661 -0.3247  0.2290 -0.4151
15047TIP3   OH266631   2.638   4.517   1.073 -0.1961 -0.0579 -0.5248
15047TIP3    H166632   2.696   4.446   1.045  1.1482  0.1827  1.4536
15047TIP3    H266633   2.590   4.481   1.147  0.5302  1.0385  0.5344
15048TIP3   OH266634   1.769   5.050   2.991  1.0410 -0.2051 -0.5095
15048TIP3    H166635   1.759   5.105   3.069  2.2359 -1.4782  0.5959
15048TIP3    H266636   1.774   4.961   3.026  1.4917 -0.8132 -2.0644
15049TIP3   OH266637   4.741   2.214   5.001  0.4132 -0.0492 -0.4832
15049TIP3    H166638   4.794   2.156   4.946 -1.0292 -2.5632  0.6077
15049TIP3    H266639   4.780   2.206   5.088 -2.0022 -2.5434  0.5075
15050TIP3   OH266640   5.426   6.675  12.845  0.1635 -0.1330  0.0074
15050TIP3    H166641   5.463   6.654  12.931 -0.5574  0.6118  0.5108
15050TIP3    H266642   5.499   6.714  12.797 -0.0340  1.7727  1.1597
15051TIP3   OH266643   1.039   3.600   3.024  0.1635  0.3164 -0.1654
15051TIP3    H166644   1.027   3.694   3.012 -0.5636  0.1384 -0.8634
15051TIP3    H266645   0.952   3.562   3.012 -0.2882 -0.1572  3.3822
15052TIP3   OH266646   1.490   0.636   1.990  0.5428  0.5558  0.0612
15052TIP3    H166647   1.451   0.578   2.055 -0.5965  1.0891 -0.1151
15052TIP3    H266648   1.559   0.682   2.036  1.2324 -0.6637  0.2977
15053TIP3   OH266649   6.366   4.708  14.180 -0.1262 -0.4316  0.0341
15053TIP3    H166650   6.389   4.696  14.088  0.7148  1.0824  0.0189
15053TIP3    H266651   6.283   4.660  14.190  1.1665 -3.0318 -0.7684
15054TIP3   OH266652   1.661   5.941   4.828  0.1353  0.4573 -0.1666
15054TIP3    H166653   1.654   6.013   4.765  2.9581 -0.2548 -1.4470
15054TIP3    H266654   1.754   5.939   4.851  0.2278 -2.9213 -0.3838
15055TIP3   OH266655   4.634   6.412  16.326  0.0619  0.4611 -0.7770
15055TIP3    H166656   4.711   6.355  16.329  0.0819  0.4525 -1.3481
15055TIP3    H266657   4.573   6.373  16.388  0.0106 -0.2865 -1.2832
15056TIP3   OH266658   0.751   4.936  15.420  0.3482 -0.1780 -0.0986
15056TIP3    H166659   0.838   4.908  15.391  0.2770 -0.0088 -0.4829
15056TIP3    H266660   0.691   4.892  15.361  0.2280  0.6547 -0.6252
15057TIP3   OH266661   6.249   5.367  13.652  0.5232  0.7500 -0.1343
15057TIP3    H166662   6.155   5.358  13.634  0.3766  1.3620  0.2942
15057TIP3    H266663   6.289   5.369  13.565  0.2316 -0.3143 -0.3209
15058TIP3   OH266664   3.499   2.193   4.303 -0.2144 -0.2509  0.0342
15058TIP3    H166665   3.541   2.130   4.244 -0.2650 -0.3322  0.0854
15058TIP3    H266666   3.482   2.144   4.383 -1.3551 -0.5216 -0.3457
15059TIP3   OH266667   3.271   2.545   0.834 -0.4458  0.2828  0.0553
15059TIP3    H166668   3.232   2.632   0.840 -1.0461  0.1483 -1.3831
15059TIP3    H266669   3.331   2.551   0.760 -0.3373 -0.4628  0.0762
15060TIP3   OH266670   2.832   0.685   2.174 -0.0777 -0.2642 -0.5433
15060TIP3    H166671   2.832   0.736   2.093  0.0470  1.9374  0.7457
15060TIP3    H266672   2.918   0.703   2.213 -0.7514  0.0761  0.8351
15061TIP3   OH266673   3.933   3.788   5.870 -0.4324 -0.3011 -0.2445
15061TIP3    H166674   3.951   3.694   5.879  1.5656  0.1031  0.4307
15061TIP3    H266675   3.989   3.816   5.798 -0.5358  0.5100 -0.0180
15062TIP3   OH266676   6.787   4.150  11.581 -0.6394 -0.2722 -0.4226
15062TIP3    H166677   6.771   4.187  11.494  0.1152  0.1641 -0.3896
15062TIP3    H266678   6.741   4.066  11.580  0.3757 -0.8568 -1.7037
15063TIP3   OH266679   3.948   0.898   4.961 -1.0350 -0.4107 -0.0635
15063TIP3    H166680   3.968   0.960   5.031 -1.3780 -0.6232  0.2272
15063TIP3    H266681   3.880   0.842   4.998 -2.1253  0.2693 -1.0097
15064TIP3   OH266682   2.406   4.577   0.956  0.4224 -0.0267 -0.0330
15064TIP3    H166683   2.455   4.558   0.876 -0.3208  0.2617 -0.5672
15064TIP3    H266684   2.468   4.560   1.027  0.9904 -0.5999 -0.6550
15065TIP3   OH266685   1.612   4.656  14.601 -0.5995 -0.6232  0.0834
15065TIP3    H166686   1.624   4.572  14.556 -0.4188 -0.5749  0.0405
15065TIP3    H266687   1.528   4.647  14.646 -0.0175 -1.2930  1.0826
15066TIP3   OH266688   0.704   5.872   1.707  0.0697 -0.5092  0.3343
15066TIP3    H166689   0.696   5.951   1.760  1.2157 -0.9594  1.2262
15066TIP3    H266690   0.644   5.886   1.633  1.4170  1.8941 -0.4147
15067TIP3   OH266691   2.864   2.476   0.835  0.0692  0.3000 -0.3198
15067TIP3    H166692   2.788   2.526   0.865 -0.6346 -1.4246  0.9390
15067TIP3    H266693   2.908   2.450   0.916  1.2634  0.1357 -1.0056
15068TIP3   OH266694   2.914   5.069   4.964  0.3364 -0.0044 -0.0543
15068TIP3    H166695   2.979   5.048   4.897  1.8197  1.2818  0.9073
15068TIP3    H266696   2.871   5.148   4.932  0.9040  0.4937  0.3950
15069TIP3   OH266697   4.141   4.993   3.571  0.0537 -0.1097  0.1116
15069TIP3    H166698   4.061   5.039   3.596  0.2257 -0.1920  0.8363
15069TIP3    H266699   4.199   5.003   3.646  0.2170 -1.2210  0.1546
15070TIP3   OH266700   5.063   1.517   1.269  0.0599  0.5676  0.1324
15070TIP3    H166701   5.042   1.524   1.176  0.5808  1.0343  0.0456
15070TIP3    H266702   5.099   1.428   1.279 -2.1939 -0.3855  0.3515
15071TIP3   OH266703   4.454   2.756   5.925 -0.2438 -0.0269 -0.3399
15071TIP3    H166704   4.533   2.737   5.975 -0.5450 -0.9488 -0.1858
15071TIP3    H266705   4.466   2.710   5.842 -1.9015 -2.8821  0.8405
15072TIP3   OH266706   5.437   4.936   1.089  0.4044  0.0039  0.3566
15072TIP3    H166707   5.387   4.858   1.063 -0.6023  0.2582  1.4420
15072TIP3    H266708   5.441   4.990   1.010 -0.6835 -0.2201  0.1324
15073TIP3   OH266709   6.062   6.839  11.467  0.3311  0.3105  0.1874
15073TIP3    H166710   6.002   6.783  11.418  0.1754  2.3486 -2.1648
15073TIP3    H266711   6.022   6.848  11.553 -0.8063 -1.3021 -0.1372
15074TIP3   OH266712   0.193   6.664   4.444 -0.1303  0.2001 -0.9351
15074TIP3    H166713   0.111   6.705   4.470 -0.3036 -1.0789  0.7042
15074TIP3    H266714   0.261   6.722   4.478 -0.3617  0.5044 -0.9894
15075TIP3   OH266715   2.015   1.303  11.986  0.1207  0.3321 -0.2263
15075TIP3    H166716   2.059   1.241  11.927  1.9122  0.2040  1.1658
15075TIP3    H266717   1.929   1.264  12.001  0.2609 -0.4905 -1.4225
15076TIP3   OH266718   4.910   1.456  12.073 -0.8498 -0.5616 -0.2005
15076TIP3    H166719   4.877   1.367  12.085 -2.5334 -0.1748 -1.5560
15076TIP3    H266720   5.005   1.446  12.071 -0.9947 -2.2672  0.0730
15077TIP3   OH266721   3.071   4.302  14.236  0.0165 -0.2538 -0.1415
15077TIP3    H166722   3.126   4.267  14.167 -1.4793 -1.0021 -1.0025
15077TIP3    H266723   3.023   4.226  14.269 -0.2140  0.3077  0.8612
15078TIP3   OH266724   6.473   5.062  15.649  0.5840 -0.8835 -0.3069
15078TIP3    H166725   6.539   4.999  15.620  1.1633  0.6717 -2.6778
15078TIP3    H266726   6.393   5.036  15.604 -0.3746 -2.4762  2.1863
15079TIP3   OH266727   3.654   4.570   5.090  0.3958 -0.2965 -0.0111
15079TIP3    H166728   3.616   4.557   5.177 -0.2546 -1.8599 -0.5002
15079TIP3    H266729   3.583   4.551   5.029  1.8112 -3.1008 -0.9613
15080TIP3   OH266730   4.301   3.911   2.406 -0.4085 -0.0897  0.0329
15080TIP3    H166731   4.264   3.859   2.335 -1.0981 -0.3972  0.5953
15080TIP3    H266732   4.318   3.846   2.475  0.7995  0.1131 -0.0627
15081TIP3   OH266733   6.417   5.920  16.005  0.6591 -0.7622  0.3841
15081TIP3    H166734   6.328   5.933  15.973  0.7255 -2.0596 -0.3755
15081TIP3    H266735   6.449   5.843  15.957  2.3569 -0.0320  0.2704
15082TIP3   OH266736   0.971   6.854   2.882  0.2336 -0.3550  0.5704
15082TIP3    H166737   0.896   6.794   2.879  0.3099 -0.5540  1.8834
15082TIP3    H266738   1.007   6.852   2.794 -1.7300  0.2893 -0.3083
15083TIP3   OH266739   3.622   1.697   1.430  0.2028 -0.0177  0.6681
15083TIP3    H166740   3.604   1.734   1.517  0.1010  0.8550  0.2847
15083TIP3    H266741   3.700   1.742   1.400 -0.8179  1.0725 -0.4669
15084TIP3   OH266742   5.136   5.475   2.854 -0.2126 -0.0825 -0.3864
15084TIP3    H166743   5.165   5.402   2.909  2.6963 -0.5446 -2.3270
15084TIP3    H266744   5.207   5.539   2.858 -0.9941  0.9326 -1.7162
15085TIP3   OH266745   1.464   4.136  13.693  0.5178 -0.2860  0.0083
15085TIP3    H166746   1.420   4.221  13.701 -0.0570 -0.3582 -1.8897
15085TIP3    H266747   1.414   4.078  13.750 -0.0747  0.2766  0.0798
15086TIP3   OH266748   4.204   5.751  15.556  0.4792 -0.3421  0.0481
15086TIP3    H166749   4.212   5.812  15.482  2.5954  0.6707  1.0270
15086TIP3    H266750   4.210   5.664  15.515 -0.1651  0.1323 -1.1187
15087TIP3   OH266751   4.902   1.478   2.851  0.5597  0.7157 -0.5217
15087TIP3    H166752   4.820   1.513   2.817  2.0450  3.0714 -2.0093
15087TIP3    H266753   4.907   1.511   2.940  0.0284  0.8503 -0.5402
15088TIP3   OH266754   5.871   2.093  13.559  0.5627  0.0318  0.0841
15088TIP3    H166755   5.939   2.085  13.493  2.7606  1.3233  2.0582
15088TIP3    H266756   5.819   2.168  13.530  0.7454 -0.1584 -0.7726
15089TIP3   OH266757   1.297   4.597   0.131 -0.4747  0.7600 -0.4337
15089TIP3    H166758   1.250   4.536   0.073 -1.4726  0.6817  0.4418
15089TIP3    H266759   1.348   4.540   0.189 -0.5433  0.7980 -0.3371
15090TIP3   OH266760   6.383   3.621  13.653 -0.6167  0.2201  0.2275
15090TIP3    H166761   6.316   3.605  13.720 -1.6586 -1.6256 -1.1376
15090TIP3    H266762   6.466   3.605  13.698 -1.3406 -2.8516  0.7286
15091TIP3   OH266763   4.168   1.325   0.635  0.6417 -0.4258  0.2019
15091TIP3    H166764   4.135   1.413   0.654  0.9903 -0.0135 -0.9691
15091TIP3    H266765   4.122   1.268   0.696  0.1524  0.5289  0.7481
15092TIP3   OH266766   6.006   1.243  16.499 -0.6797 -0.0851  0.5150
15092TIP3    H166767   5.977   1.288  16.419 -1.2374 -0.4669  0.4992
15092TIP3    H266768   5.985   1.151  16.484 -1.3413 -0.0764  1.3529
15093TIP3   OH266769   2.287   1.523   1.980 -0.0975 -0.7415  0.0958
15093TIP3    H166770   2.254   1.474   1.905 -0.2416  2.2881 -1.9862
15093TIP3    H266771   2.376   1.547   1.956 -0.9778  2.4537 -0.4221
15094TIP3   OH266772   3.843   6.113  14.787 -0.0959  0.5023  0.1758
15094TIP3    H166773   3.779   6.170  14.829  0.1722  1.5146 -0.7484
15094TIP3    H266774   3.841   6.032  14.838 -0.2370  1.4579  1.7333
15095TIP3   OH266775   5.597   3.909  13.902 -0.4384  0.1182 -0.5624
15095TIP3    H166776   5.503   3.919  13.889 -0.5509  0.4335  0.4324
15095TIP3    H266777   5.610   3.914  13.996  0.7670  1.9277 -0.7574
15096TIP3   OH266778   4.530   6.147  15.591 -0.4730 -0.4155 -0.4801
15096TIP3    H166779   4.466   6.085  15.628 -0.7651  0.6412  0.8615
15096TIP3    H266780   4.548   6.208  15.663 -0.0418  0.9373 -1.7062
15097TIP3   OH266781   5.231   5.386   3.776 -0.1414  0.0376 -0.0793
15097TIP3    H166782   5.310   5.383   3.829 -0.1826 -1.7951 -0.0443
15097TIP3    H266783   5.256   5.438   3.699 -0.2333  3.1529  1.8303
15098TIP3   OH266784   1.851   1.432  15.982  0.3592  0.4832  0.0779
15098TIP3    H166785   1.808   1.480  15.912  0.2615 -0.9308 -0.8749
15098TIP3    H266786   1.944   1.434  15.960  0.5322  1.4552  0.8277
15099TIP3   OH266787   0.058   0.587  16.114 -0.1632  0.6827  0.1823
15099TIP3    H166788  -0.012   0.637  16.156 -0.5668  0.1695  0.1333
15099TIP3    H266789   0.027   0.496  16.117  0.3974  0.4827 -0.0475
15100TIP3   OH266790   6.185   5.233   0.731  0.4694 -0.1001  0.1683
15100TIP3    H166791   6.208   5.158   0.675  1.7542  0.4138 -0.0308
15100TIP3    H266792   6.235   5.218   0.811  0.9448  0.6545  0.0281
15101TIP3   OH266793   2.485   2.964  10.692  0.0536  0.5478 -0.2758
15101TIP3    H166794   2.504   2.870  10.699 -0.1253  0.5796  0.7018
15101TIP3    H266795   2.566   3.002  10.657  1.1301  0.3850  1.8407
15102TIP3   OH266796   4.941   2.026   6.383  0.6624 -0.3054  0.5273
15102TIP3    H166797   4.977   2.089   6.446  3.4063 -1.2444  0.0674
15102TIP3    H266798   4.903   1.957   6.437  4.2615 -1.8265  1.4309
15103TIP3   OH266799   0.422   6.449   2.716  0.1577 -0.2379 -0.1515
15103TIP3    H166800   0.329   6.427   2.715 -0.5416  2.2828  0.4102
15103TIP3    H266801   0.453   6.426   2.628 -0.9928 -1.0764 -0.3622
15104TIP3   OH266802   5.876   5.161   0.061 -0.4009 -0.6326  0.2420
15104TIP3    H166803   5.881   5.218   0.138  0.3738 -0.5054  0.1069
15104TIP3    H266804   5.898   5.219  -0.012 -1.5188 -0.6567 -0.1314
15105TIP3   OH266805   3.167   3.613   0.937  0.2904  0.2787 -0.2353
15105TIP3    H166806   3.210   3.676   0.995  0.8533 -1.1760  1.0292
15105TIP3    H266807   3.198   3.635   0.849 -0.5213  2.4972 -0.0271
15106TIP3   OH266808   1.207   3.347   5.799 -0.1561  0.4127  0.4343
15106TIP3    H166809   1.142   3.302   5.853  0.1794 -0.6692 -0.0358
15106TIP3    H266810   1.277   3.370   5.859  0.0326 -0.4255  0.5441
15107TIP3   OH266811   0.529   0.784   0.987  0.6120 -0.0045  0.1176
15107TIP3    H166812   0.437   0.759   0.998  1.0045 -1.6570 -0.1865
15107TIP3    H266813   0.525   0.874   0.955 -0.9140 -0.1990 -0.3312
15108TIP3   OH266814   3.510   5.527  13.287  0.1578  0.4996 -0.1643
15108TIP3    H166815   3.421   5.545  13.257 -0.0067  0.9178  0.5452
15108TIP3    H266816   3.503   5.525  13.383  0.8073 -0.0176 -0.1199
15109TIP3   OH266817   4.297   5.523  16.197  0.1706 -0.3396  0.1849
15109TIP3    H166818   4.249   5.601  16.171  0.4858 -0.5470 -1.0446
15109TIP3    H266819   4.234   5.452  16.186  0.7439 -0.6232 -1.5143
15110TIP3   OH266820   0.385   0.709  11.894 -0.3080 -0.5412  0.3875
15110TIP3    H166821   0.399   0.712  11.799 -2.1757 -1.1911  0.0437
15110TIP3    H266822   0.412   0.621  11.919 -0.1558 -0.4887  0.4131
15111TIP3   OH266823   6.366   4.725   0.133 -0.1864  0.1742 -0.2153
15111TIP3    H166824   6.409   4.716   0.048  1.2244 -1.4978  0.6059
15111TIP3    H266825   6.418   4.791   0.180  1.2002 -1.3938  0.5491
15112TIP3   OH266826   4.348   3.064   2.694 -0.5293 -0.3462  0.1298
15112TIP3    H166827   4.395   3.147   2.680 -0.3772 -0.1274  1.7091
15112TIP3    H266828   4.324   3.035   2.606  1.3678  0.2384 -0.6479
15113TIP3   OH266829   0.223   1.695   2.606  0.0808 -0.2665 -0.5274
15113TIP3    H166830   0.235   1.708   2.700 -1.2125  2.6257 -0.6595
15113TIP3    H266831   0.312   1.703   2.569  0.4314 -0.0489  0.3334
15114TIP3   OH266832   2.530   4.305   2.748 -0.2386 -0.4438 -0.1535
15114TIP3    H166833   2.503   4.220   2.714  0.4396 -0.1608 -1.4913
15114TIP3    H266834   2.471   4.367   2.707  0.1834 -0.1501 -0.3284
15115TIP3   OH266835   4.808   0.418   4.848 -0.6281  0.4021 -0.5920
15115TIP3    H166836   4.875   0.486   4.851 -0.0501 -0.1813  1.3018
15115TIP3    H266837   4.856   0.336   4.844 -0.9452 -0.2052  3.4990
15116TIP3   OH266838   5.625   3.275   1.999 -0.3563  0.3534 -0.8513
15116TIP3    H166839   5.660   3.244   1.915  0.1739  1.8342 -1.2119
15116TIP3    H266840   5.589   3.362   1.979  1.3644  1.5141  0.7788
15117TIP3   OH266841   2.122   3.675   2.722  0.0128  0.0400 -0.2409
15117TIP3    H166842   2.040   3.725   2.720 -0.1312 -0.2114 -0.6729
15117TIP3    H266843   2.096   3.589   2.756 -0.0756 -0.3446 -1.2454
15118TIP3   OH266844   3.911   1.627   2.168  0.6124  0.5537 -0.1710
15118TIP3    H166845   3.841   1.687   2.140  0.8611 -0.2415 -2.8328
15118TIP3    H266846   3.873   1.577   2.240 -1.1019  1.0505 -0.6786
15119TIP3   OH266847   3.402   1.296  11.604  0.0561 -0.0204 -0.2339
15119TIP3    H166848   3.388   1.243  11.682 -2.4195 -0.2852 -0.7664
15119TIP3    H266849   3.456   1.242  11.547 -1.7132 -1.7126 -0.4191
15120TIP3   OH266850   6.059   5.724  14.061 -0.0218  0.6246 -0.3165
15120TIP3    H166851   6.132   5.752  14.117 -0.4200  0.9833  0.0310
15120TIP3    H266852   6.099   5.665  13.998  0.6685  1.2469 -0.4759
15121TIP3   OH266853   5.563   0.688   5.722 -0.4794 -0.3940  0.1473
15121TIP3    H166854   5.625   0.717   5.656 -1.9546  0.0677 -1.0992
15121TIP3    H266855   5.603   0.715   5.805  0.9139 -0.0201 -0.6047
15122TIP3   OH266856   5.799   1.228  13.426 -0.4409  0.1938  0.6421
15122TIP3    H166857   5.867   1.214  13.492 -0.3600  0.7746  0.6835
15122TIP3    H266858   5.730   1.274  13.472 -0.8141 -0.2773  0.5638
15123TIP3   OH266859   2.845   2.461   5.920  0.0332 -0.2227  0.0876
15123TIP3    H166860   2.824   2.390   5.859 -0.6849 -0.6857  0.8386
15123TIP3    H266861   2.931   2.492   5.893  0.9161 -2.1917  0.4555
15124TIP3   OH266862   0.746   0.609   0.998  0.5075  0.5235  0.4557
15124TIP3    H166863   0.674   0.673   0.990  2.2796  2.6711  0.7867
15124TIP3    H266864   0.779   0.621   1.087  0.5776 -1.2514  0.6905
15125TIP3   OH266865   5.631   0.980  14.032 -0.0484  0.1499  0.1295
15125TIP3    H166866   5.651   1.074  14.030 -0.9707  0.3477 -1.5620
15125TIP3    H266867   5.538   0.976  14.054 -0.7237 -0.1789 -2.4896
15126TIP3   OH266868   4.309   2.857   4.055  0.4986  0.5625 -0.3109
15126TIP3    H166869   4.239   2.858   3.990  0.0171 -0.6397  0.1661
15126TIP3    H266870   4.353   2.941   4.044  2.3698 -0.6480 -4.3012
15127TIP3   OH266871   4.669   6.605   3.147 -0.2934 -0.4154  0.1856
15127TIP3    H166872   4.692   6.688   3.189 -2.1832  0.5160 -0.5115
15127TIP3    H266873   4.685   6.539   3.213  0.7948  0.5500  0.9232
15128TIP3   OH266874   0.391   1.184  11.327 -0.3751 -0.3261  0.1824
15128TIP3    H166875   0.471   1.197  11.378 -1.3209 -0.4750  1.7688
15128TIP3    H266876   0.407   1.103  11.278  0.5859 -0.1430  0.1596
15129TIP3   OH266877   6.670   4.576  15.024 -0.1436 -0.0860 -0.4708
15129TIP3    H166878   6.599   4.546  14.967 -0.6207 -1.8207  0.9721
15129TIP3    H266879   6.743   4.518  15.003 -0.1915 -0.4571  0.3749
15130TIP3   OH266880   4.690   2.286  14.485 -0.5071  0.5090 -0.3537
15130TIP3    H166881   4.668   2.267  14.576  0.6530  1.4495  0.1645
15130TIP3    H266882   4.682   2.203  14.440 -1.6601  0.1429  0.4876
15131TIP3   OH266883   5.977   5.738   3.232 -0.5762  0.2588 -0.0240
15131TIP3    H166884   5.943   5.664   3.182 -1.1105  0.4759  0.0046
15131TIP3    H266885   5.899   5.790   3.254 -0.2296  0.7464  0.0836
15132TIP3   OH266886   1.963   3.796  12.914  0.3931 -0.2895 -0.2627
15132TIP3    H166887   1.908   3.849  12.856 -1.5238 -1.1988  0.6400
15132TIP3    H266888   1.930   3.815  13.002  1.7004 -0.6974  0.3407
15133TIP3   OH266889   4.410   4.824  11.959  1.7083 -0.6869  0.0599
15133TIP3    H166890   4.377   4.847  11.872  0.9468 -0.2850  0.4517
15133TIP3    H266891   4.353   4.754  11.990  0.2591  0.9778  1.3304
15134TIP3   OH266892   4.195   3.242   1.214 -0.3108  0.0901  0.2925
15134TIP3    H166893   4.121   3.215   1.160  0.6519  1.0707 -1.6130
15134TIP3    H266894   4.261   3.272   1.152  0.6144  1.9366  2.0279
15135TIP3   OH266895   4.602   5.355  13.091  0.0879  0.2945 -0.0224
15135TIP3    H166896   4.650   5.435  13.069  0.9505 -0.4197 -0.8190
15135TIP3    H266897   4.650   5.319  13.166 -0.2298  0.4566  0.2605
15136TIP3   OH266898   6.500   2.194   2.682  0.6558  0.1060 -0.2400
15136TIP3    H166899   6.571   2.254   2.658 -0.7669  1.6666 -0.7684
15136TIP3    H266900   6.446   2.188   2.603  0.1685 -1.0403  0.1496
15137TIP3   OH266901   5.389   3.074  14.218  0.1057 -0.0895  0.1284
15137TIP3    H166902   5.466   3.122  14.248 -0.0567  1.6012 -1.8999
15137TIP3    H266903   5.418   3.029  14.138 -0.7900 -0.0384 -0.2372
15138TIP3   OH266904   1.143   1.998  13.388 -0.0087  0.3240  0.1768
15138TIP3    H166905   1.095   1.948  13.454  0.6944 -1.5714 -0.6738
15138TIP3    H266906   1.229   2.014  13.429 -0.3321  1.1418  0.5628
15139TIP3   OH266907   1.388   2.283  14.471 -0.4720  0.1030  0.4191
15139TIP3    H166908   1.311   2.337  14.451 -0.7974 -1.3081 -2.7897
15139TIP3    H266909   1.426   2.262  14.386  1.9921 -1.4029  1.7553
15140TIP3   OH266910   1.411   5.479   0.075 -0.0416  0.4538 -0.2678
15140TIP3    H166911   1.325   5.499   0.037 -0.3996 -2.3955 -1.2230
15140TIP3    H266912   1.400   5.495   0.168 -1.2983  1.0742 -0.4979
15141TIP3   OH266913   4.472   1.577   1.917  0.2229 -0.1784  0.0033
15141TIP3    H166914   4.407   1.528   1.865  0.9310 -1.9058  0.6523
15141TIP3    H266915   4.532   1.613   1.852  0.4714 -1.3899 -0.4807
15142TIP3   OH266916   4.275   3.987   5.330  0.5509  0.2635 -0.1584
15142TIP3    H166917   4.226   3.910   5.302 -1.9585  0.9793  1.8407
15142TIP3    H266918   4.243   4.057   5.272 -0.3195  0.5882  0.6892
15143TIP3   OH266919   3.693   0.262  15.908 -0.4806  0.2594 -0.6645
15143TIP3    H166920   3.601   0.289  15.911  0.1644  2.7081  2.4545
15143TIP3    H266921   3.699   0.193  15.974  0.0044  0.4565 -0.5027
15144TIP3   OH266922   5.378   0.967  12.632 -0.4228 -0.1855 -0.1129
15144TIP3    H166923   5.310   0.982  12.566  1.9711  1.1920 -2.4690
15144TIP3    H266924   5.437   1.042  12.623  1.5511 -1.4200  1.6443
15145TIP3   OH266925   3.765   4.861  11.388 -0.1289  0.1565 -0.0745
15145TIP3    H166926   3.744   4.941  11.339 -0.0102 -1.2909 -2.6604
15145TIP3    H266927   3.830   4.816  11.334 -0.3313 -1.8116  1.2011
15146TIP3   OH266928   4.816   1.018  17.099 -0.2148  0.3367 -0.2528
15146TIP3    H166929   4.806   1.111  17.119  1.1339  0.3735  0.3636
15146TIP3    H266930   4.857   0.980  17.177 -0.6981 -0.7760 -0.5126
15147TIP3   OH266931   5.254   1.517  14.080 -0.1422 -0.7075 -0.2441
15147TIP3    H166932   5.345   1.496  14.100  0.0308 -1.3375 -1.5637
15147TIP3    H266933   5.253   1.612  14.066  0.3789 -0.7397 -0.5118
15148TIP3   OH266934   1.682   0.353   2.935  0.4679 -0.0883 -1.2297
15148TIP3    H166935   1.709   0.267   2.905  0.0168  0.3671 -3.0926
15148TIP3    H266936   1.691   0.409   2.858  0.0835  1.3794 -0.2542
15149TIP3   OH266937   3.878   0.742   6.008  0.1886 -0.0084 -0.1925
15149TIP3    H166938   3.808   0.806   6.021  0.7473  0.4387  0.7863
15149TIP3    H266939   3.957   0.788   6.036  0.7224 -0.8546 -0.2845
15150TIP3   OH266940   0.736   6.386  10.945 -0.5531 -0.0454  0.3090
15150TIP3    H166941   0.665   6.437  10.983 -2.2450 -0.1987 -2.4055
15150TIP3    H266942   0.704   6.296  10.944 -0.0909 -0.2133 -0.3740
15151TIP3   OH266943   3.947   4.769   3.553  0.4147 -0.0161 -0.3275
15151TIP3    H166944   4.030   4.743   3.512  1.4642 -0.6387  2.0373
15151TIP3    H266945   3.972   4.828   3.624 -1.3416  1.0345 -0.4965
15152TIP3   OH266946   0.863   4.626  12.070 -0.0041  0.0487 -0.0967
15152TIP3    H166947   0.880   4.720  12.071 -3.2312  0.8007 -1.9474
15152TIP3    H266948   0.926   4.591  12.008 -1.3061  1.7230 -2.5010
15153TIP3   OH266949   5.539   5.655  12.235  0.0693  0.0583 -0.3019
15153TIP3    H166950   5.520   5.611  12.318  1.2714  0.2180  0.0885
15153TIP3    H266951   5.546   5.584  12.171 -0.8913 -0.0629 -0.2790
15154TIP3   OH266952   4.537   5.349   3.364  0.4085 -0.2345 -0.2924
15154TIP3    H166953   4.603   5.411   3.395  0.9042 -0.4088 -0.9793
15154TIP3    H266954   4.532   5.283   3.432 -1.1522  1.2698  1.1505
15155TIP3   OH266955   4.045   6.314  11.786  0.3958 -0.2694  0.3887
15155TIP3    H166956   4.028   6.396  11.740  2.6912 -0.6814 -1.4262
15155TIP3    H266957   3.992   6.249  11.740 -0.3953 -0.0338  0.9574
15156TIP3   OH266958   6.182   4.995   0.567 -0.0391 -0.0602  0.8854
15156TIP3    H166959   6.205   4.959   0.481 -1.1294  0.0543  0.5394
15156TIP3    H266960   6.144   4.922   0.615 -2.5946  0.6349  0.0545
15157TIP3   OH266961   3.170   0.544   5.910 -0.1007  0.3467  0.0991
15157TIP3    H166962   3.253   0.519   5.951 -0.2026 -1.7299 -0.8137
15157TIP3    H266963   3.104   0.503   5.965 -0.4828  1.0597  0.1831
15158TIP3   OH266964   2.673   4.821  14.945  0.4600 -0.1301  0.6580
15158TIP3    H166965   2.648   4.763  15.017 -2.1596  1.8321  1.5059
15158TIP3    H266966   2.601   4.814  14.882  0.8225  1.0495  0.0708
15159TIP3   OH266967   0.722   2.335   0.986 -0.3111 -0.6051 -0.5686
15159TIP3    H166968   0.640   2.286   0.979 -1.1493  0.7741 -0.8166
15159TIP3    H266969   0.718   2.399   0.914  0.1316  0.6952  0.5195
15160TIP3   OH266970   5.770   2.116  11.278  0.7040 -0.1276  0.1918
15160TIP3    H166971   5.760   2.198  11.230  1.1284 -0.7807 -1.0416
15160TIP3    H266972   5.858   2.086  11.257  1.0242 -0.2853  1.6389
15161TIP3   OH266973   6.601   1.890  14.902 -0.2371  0.3685 -0.1871
15161TIP3    H166974   6.525   1.841  14.870  0.7235 -1.5660  0.3567
15161TIP3    H266975   6.573   1.924  14.987 -1.2759  1.7323 -1.0357
15162TIP3   OH266976   4.961   0.224   2.166 -0.0552 -0.0833 -0.0995
15162TIP3    H166977   4.914   0.149   2.201 -0.9292 -0.5266 -2.0867
15162TIP3    H266978   5.011   0.190   2.092  0.1598  1.1261 -0.5503
15163TIP3   OH266979   0.456   4.639   5.454  0.0842  0.0303 -0.6116
15163TIP3    H166980   0.501   4.631   5.538  0.5497 -1.0176 -0.9457
15163TIP3    H266981   0.443   4.734   5.442  1.5180  0.3091 -0.1490
15164TIP3   OH266982   6.108   5.280   3.251  0.1867  0.3074 -0.2540
15164TIP3    H166983   6.135   5.254   3.339  1.3561  0.2231 -0.6254
15164TIP3    H266984   6.189   5.285   3.201 -0.5226 -0.4125 -1.5380
15165TIP3   OH266985   3.051   1.937   1.047 -0.2395  0.5320 -0.3250
15165TIP3    H166986   3.070   1.860   0.995 -0.5748  0.6857 -0.6822
15165TIP3    H266987   3.130   1.951   1.100 -0.3505 -0.3245  0.0903
15166TIP3   OH266988   3.636   0.898   2.220  0.5601 -0.4286  0.2502
15166TIP3    H166989   3.590   0.911   2.303  0.0468  1.0916 -0.2291
15166TIP3    H266990   3.601   0.816   2.186 -0.5721 -0.1559  0.6906
15167TIP3   OH266991   2.035   3.386  17.071 -1.0145  0.0355  0.0736
15167TIP3    H166992   2.097   3.425  17.009 -2.2309  0.4923 -0.9156
15167TIP3    H266993   2.074   3.401  17.157 -0.1099  0.9726 -0.4739
15168TIP3   OH266994   5.009   6.602   4.549  0.6129  0.7849 -0.4480
15168TIP3    H166995   5.059   6.646   4.618 -0.7446  0.8970  0.5129
15168TIP3    H266996   5.035   6.510   4.556  0.6945  0.8414  0.0302
15169TIP3   OH266997   2.573   3.403  16.389 -0.2380 -0.2585 -0.3165
15169TIP3    H166998   2.481   3.419  16.409  0.2617  0.7959  1.3823
15169TIP3    H266999   2.610   3.371  16.472  0.7356 -1.5964 -1.2296
15170TIP3   OH267000   0.281   2.664   3.438  0.0877  0.0471 -0.6101
15170TIP3    H167001   0.342   2.732   3.465  1.2861 -0.6252 -1.5380
15170TIP3    H267002   0.336   2.597   3.397 -0.8155 -2.2599  1.6911
15171TIP3   OH267003   2.717   1.785  13.421 -0.2349  0.3711 -0.1195
15171TIP3    H167004   2.708   1.690  13.409 -1.9753  0.5489 -0.3973
15171TIP3    H267005   2.756   1.794  13.508 -0.6768 -0.5865  0.1875
15172TIP3   OH267006   6.212   1.116  14.269  0.7736 -0.4443  0.5291
15172TIP3    H167007   6.216   1.119  14.365 -0.3254 -0.5508  0.5956
15172TIP3    H267008   6.161   1.193  14.245 -2.9989 -2.7147  0.3843
15173TIP3   OH267009   6.287   5.510  14.805  0.1815  0.7257 -0.0564
15173TIP3    H167010   6.210   5.455  14.813  0.0667  0.8133 -0.5540
15173TIP3    H267011   6.357   5.460  14.848 -0.1667  0.6846  0.4630
15174TIP3   OH267012   5.298   3.679  10.920  0.8254 -0.2316 -0.8455
15174TIP3    H167013   5.240   3.748  10.890  1.6327  0.3972 -0.9918
15174TIP3    H267014   5.240   3.616  10.963  0.3350  1.9171  1.9381
15175TIP3   OH267015   4.553   1.220  13.285  0.0839 -0.3987  0.0524
15175TIP3    H167016   4.545   1.311  13.255 -0.4657 -0.2815  0.5236
15175TIP3    H267017   4.536   1.225  13.379  1.2206 -0.8357  0.2874
15176TIP3   OH267018   4.790   5.924   5.360 -0.1860 -0.0797  0.0539
15176TIP3    H167019   4.750   6.004   5.396  3.4926  1.1427  1.9075
15176TIP3    H267020   4.753   5.917   5.272 -0.3971  3.9701 -0.3941
15177TIP3   OH267021   0.130   4.486  12.126  0.0396 -0.3704  0.1115
15177TIP3    H167022   0.111   4.400  12.163  2.7028 -1.9485 -1.8120
15177TIP3    H267023   0.189   4.468  12.053 -1.6198  2.8844 -2.2578
15178TIP3   OH267024   5.563   0.855   0.038 -0.0455 -0.4545 -0.0032
15178TIP3    H167025   5.573   0.881  -0.053  0.4605  0.5333  0.3174
15178TIP3    H267026   5.569   0.937   0.087  1.1710 -1.1139  1.0284
15179TIP3   OH267027   5.453   4.104  12.233 -0.1312  0.0626  0.1884
15179TIP3    H167028   5.364   4.081  12.257 -0.7862  1.2406 -0.9688
15179TIP3    H267029   5.461   4.197  12.257  0.4622  0.2148 -0.5599
15180TIP3   OH267030   2.968   5.615  16.842  0.7175 -0.6537 -0.2560
15180TIP3    H167031   3.060   5.625  16.868  0.2777  3.1053  0.4377
15180TIP3    H267032   2.921   5.605  16.925  0.2176  1.7547 -0.1604
15181TIP3   OH267033   6.671   6.146   2.268 -0.1537  0.1113 -0.0742
15181TIP3    H167034   6.611   6.164   2.195  1.6438 -0.6298 -1.8473
15181TIP3    H267035   6.631   6.073   2.315  0.2380 -1.7490 -2.4315
15182TIP3   OH267036   6.535   1.637  12.013 -0.1458 -0.4807  0.3231
15182TIP3    H167037   6.523   1.546  11.987  3.4298 -0.4549 -2.1194
15182TIP3    H267038   6.500   1.688  11.941  0.6026 -0.0431  0.2596
15183TIP3   OH267039   1.950   5.952   5.718 -0.1690  0.2696 -0.3904
15183TIP3    H167040   1.875   5.972   5.774 -0.4455 -0.3172 -0.5471
15183TIP3    H267041   1.930   5.867   5.680  0.8675 -0.1937  0.0626
15184TIP3   OH267042   1.379   5.880   2.660 -0.3617 -0.7387  0.1537
15184TIP3    H167043   1.446   5.892   2.592 -1.6997 -0.0778 -1.0982
15184TIP3    H267044   1.352   5.788   2.651  0.3145 -0.9936  0.6287
15185TIP3   OH267045   4.239   3.059   1.400 -0.3368  0.1325  0.5681
15185TIP3    H167046   4.153   3.027   1.429 -0.9573 -0.0801 -1.3265
15185TIP3    H267047   4.219   3.117   1.327  1.0306  1.9251  1.5426
15186TIP3   OH267048   1.831   3.822   4.937  0.3271 -0.0196  0.4438
15186TIP3    H167049   1.746   3.830   4.982 -0.7137 -1.6356 -1.0891
15186TIP3    H267050   1.825   3.883   4.864  0.0139 -0.9160 -0.2968
15187TIP3   OH267051   3.099   0.720   2.310 -0.0070 -0.4240  0.4428
15187TIP3    H167052   3.072   0.693   2.398  2.1457 -0.1914  1.2305
15187TIP3    H267053   3.191   0.695   2.304  1.0805  3.1444 -0.1879
15188TIP3   OH267054   5.805   1.466  16.674 -0.0826 -0.0386 -0.2193
15188TIP3    H167055   5.838   1.506  16.594 -2.5395 -0.9854 -1.8097
15188TIP3    H267056   5.819   1.532  16.742  1.0599  1.2178 -1.6341
15189TIP3   OH267057   3.204   4.536   1.602 -0.3641  0.6179  0.0719
15189TIP3    H167058   3.156   4.566   1.524  0.9323  2.1004 -0.2234
15189TIP3    H267059   3.207   4.613   1.659  1.4706  0.5391  0.1494
15190TIP3   OH267060   4.530   1.935   3.053  0.1693 -0.4005  0.8009
15190TIP3    H167061   4.523   1.956   2.960  0.1123  3.7551  1.5698
15190TIP3    H267062   4.592   1.861   3.056  1.3120  0.2579 -2.4134
15191TIP3   OH267063   2.763   0.515  14.949 -0.1419  0.1959 -0.2805
15191TIP3    H167064   2.811   0.464  14.883 -1.3186 -0.0711 -0.9542
15191TIP3    H267065   2.730   0.591  14.901  1.2675  1.4499  0.6261
15192TIP3   OH267066   3.064   4.625   1.384 -0.0946  0.2301  0.2921
15192TIP3    H167067   2.985   4.572   1.396 -0.2060  0.1182 -0.8741
15192TIP3    H267068   3.097   4.600   1.298  1.9766 -0.7294  1.2968
15193TIP3   OH267069   1.587   1.842  15.235 -0.1182  0.1279 -0.0067
15193TIP3    H167070   1.572   1.759  15.189 -0.3364 -0.1758  0.5911
15193TIP3    H267071   1.521   1.901  15.201  0.5077  0.2875 -0.9818
15194TIP3   OH267072   2.440   4.995   3.504  0.0204 -0.3531 -0.5268
15194TIP3    H167073   2.496   5.062   3.544  0.4337 -1.4831  0.8954
15194TIP3    H267074   2.426   5.024   3.414  0.6540  1.3336 -0.1040
15195TIP3   OH267075   2.488   5.592   0.801  0.3218  0.2872  0.3006
15195TIP3    H167076   2.499   5.501   0.773  0.1665  0.6903 -1.1734
15195TIP3    H267077   2.531   5.643   0.733 -1.3170  1.4024  0.0244
15196TIP3   OH267078   2.899   3.278  13.330 -0.5929  0.0369  0.5686
15196TIP3    H167079   2.974   3.335  13.310 -0.5260 -0.0570  0.5536
15196TIP3    H267080   2.859   3.262  13.245  0.3655 -1.3090  0.3397
15197TIP3   OH267081   4.954   3.648   0.396  0.2865  0.0384  0.1604
15197TIP3    H167082   4.929   3.684   0.482 -0.0161  2.3639 -0.8123
15197TIP3    H267083   5.012   3.714   0.359 -0.5008 -0.3446 -1.8796
15198TIP3   OH267084   5.666   3.309  12.737  0.3136 -0.0033 -0.1057
15198TIP3    H167085   5.690   3.401  12.727  0.4945  0.0375  0.5984
15198TIP3    H267086   5.662   3.296  12.832 -0.8830 -0.4252 -0.1939
15199TIP3   OH267087   3.030   0.104   3.949 -0.0788  0.1312  0.0120
15199TIP3    H167088   3.073   0.025   3.980  0.4796  0.1923 -0.5922
15199TIP3    H267089   3.088   0.138   3.880 -0.5230  0.8291 -0.0282
15200TIP3   OH267090   6.209   5.753  14.683  0.2366  0.9810  0.1822
15200TIP3    H167091   6.280   5.703  14.723  0.0326 -0.6275 -1.3724
15200TIP3    H267092   6.241   5.777  14.597 -1.1793 -0.0152 -0.6594
15201TIP3   OH267093   0.020   3.768  13.729  0.1974  0.3001 -0.3068
15201TIP3    H167094  -0.000   3.686  13.684 -0.2177  0.9958 -1.4237
15201TIP3    H267095  -0.062   3.817  13.729  0.2935  0.4976  0.8693
15202TIP3   OH267096   5.248   0.645  14.240 -0.1149  0.4826 -0.0940
15202TIP3    H167097   5.252   0.625  14.333  0.9023  1.3161  0.0631
15202TIP3    H267098   5.212   0.734  14.236 -1.0382  0.1009 -0.5567
15203TIP3   OH267099   2.123   5.233  17.080  0.0450  0.4482 -0.2339
15203TIP3    H167100   2.051   5.231  17.143 -1.7066 -0.0925 -2.1651
15203TIP3    H267101   2.149   5.325  17.077  1.1586  0.3066  2.2551
15204TIP3   OH267102   3.783   3.708  16.776 -0.1245  0.5751 -0.1227
15204TIP3    H167103   3.812   3.731  16.688  0.5201 -1.9875 -0.6628
15204TIP3    H267104   3.692   3.682  16.766  0.6219 -2.1538 -0.6099
15205TIP3   OH267105   5.735   4.735  11.011  0.2867  0.5200 -0.0178
15205TIP3    H167106   5.763   4.650  11.046  2.5456  0.7018 -1.2519
15205TIP3    H267107   5.646   4.746  11.045 -0.3465 -2.6342 -0.3485
15206TIP3   OH267108   3.423   1.174  12.692  0.1238  0.1617 -0.3825
15206TIP3    H167109   3.367   1.201  12.620  1.5841 -1.1124 -2.0795
15206TIP3    H267110   3.426   1.079  12.686 -0.0651 -0.0285  1.6737
15207TIP3   OH267111   5.878   1.781  16.950 -0.7911 -0.2250 -0.0214
15207TIP3    H167112   5.784   1.767  16.964 -0.8441  0.0949 -0.0356
15207TIP3    H267113   5.882   1.863  16.901 -0.4405  0.4307  1.0768
15208TIP3   OH267114   6.347   3.743  13.399  0.0228 -0.8037 -0.2552
15208TIP3    H167115   6.309   3.685  13.464  0.2043 -0.0487  0.5547
15208TIP3    H267116   6.393   3.686  13.338  0.0448 -1.5073  0.4185
15209TIP3   OH267117   4.391   6.096  11.827  0.1032 -0.6143 -0.5731
15209TIP3    H167118   4.351   6.183  11.817 -0.6860 -0.7879  0.8449
15209TIP3    H267119   4.416   6.071  11.738 -0.2354  0.7906 -1.0921
15210TIP3   OH267120   6.174   1.087   0.382 -0.1938 -0.1376  0.4806
15210TIP3    H167121   6.128   1.020   0.332 -0.2176 -0.0178  0.3418
15210TIP3    H267122   6.161   1.167   0.333  0.6483 -0.2049  0.1266
15211TIP3   OH267123   6.267   1.198   4.391  0.3029 -0.0250  0.1427
15211TIP3    H167124   6.245   1.163   4.305 -1.3409 -0.7649  0.8100
15211TIP3    H267125   6.299   1.286   4.374 -2.9035  1.0590 -1.0821
15212TIP3   OH267126   1.545   0.538   5.546  0.6696 -0.5348  0.3902
15212TIP3    H167127   1.615   0.545   5.611  0.4251 -2.3461  0.9061
15212TIP3    H267128   1.531   0.628   5.516  1.6969  0.1609  1.8766
15213TIP3   OH267129   0.456   5.718  11.564  0.2199 -0.2840  0.0716
15213TIP3    H167130   0.424   5.642  11.613 -0.7201  0.1624  0.1706
15213TIP3    H267131   0.536   5.687  11.522  0.5944 -0.9333  1.2016
15214TIP3   OH267132   2.355   3.487   5.855 -0.2884  1.2663  0.3701
15214TIP3    H167133   2.333   3.403   5.894 -0.2257  0.0520 -2.0421
15214TIP3    H267134   2.281   3.544   5.877 -2.0651 -0.4462 -0.7984
15215TIP3   OH267135   5.626   3.083  14.772  1.0026 -0.0971 -0.3519
15215TIP3    H167136   5.637   3.042  14.857  1.9244 -0.2304 -0.5334
15215TIP3    H267137   5.673   3.166  14.778 -0.1172  0.5671 -0.2779
15216TIP3   OH267138   0.188   3.668  15.238 -0.3296 -0.1328  0.7027
15216TIP3    H167139   0.197   3.763  15.252 -1.6047  0.4724 -1.9741
15216TIP3    H267140   0.267   3.631  15.277  0.2956  2.0235  1.6754
15217TIP3   OH267141   2.875   3.881  15.708 -0.2397  0.2196 -0.4118
15217TIP3    H167142   2.944   3.900  15.772  2.0458 -1.4604 -2.2367
15217TIP3    H267143   2.853   3.967  15.671 -0.0544  0.9311  1.0616
15218TIP3   OH267144   3.328   0.674  15.361 -0.3520  0.4836 -0.1297
15218TIP3    H167145   3.318   0.608  15.292  0.2222 -0.6419  0.8429
15218TIP3    H267146   3.414   0.657  15.399  0.8798  3.2835 -1.3722
15219TIP3   OH267147   3.529   3.868  11.774  0.4656 -0.2236  0.6696
15219TIP3    H167148   3.550   3.951  11.815  1.1533 -1.0615  2.0919
15219TIP3    H267149   3.489   3.816  11.844  1.2984 -1.5548  0.2035
15220TIP3   OH267150   2.983   5.712  11.866 -0.0181  0.1659  0.1847
15220TIP3    H167151   2.923   5.667  11.925 -0.6209  1.5078  0.6459
15220TIP3    H267152   2.992   5.800  11.903  1.9239  0.1332 -0.1135
15221TIP3   OH267153   6.241   3.523  12.366  0.0340  0.1901 -0.0017
15221TIP3    H167154   6.163   3.567  12.401  1.2708  2.1792  0.4313
15221TIP3    H267155   6.282   3.482  12.443  0.7836  1.4103  0.2781
15222TIP3   OH267156   6.023   5.010   2.061  0.2563 -0.6756  0.2028
15222TIP3    H167157   6.061   5.083   2.110  0.3645 -1.6321  1.6072
15222TIP3    H267158   6.095   4.977   2.007  0.1894  0.2735 -0.4839
15223TIP3   OH267159   1.486   5.877   3.506 -0.3173 -0.2874  0.2679
15223TIP3    H167160   1.520   5.801   3.459 -2.1927 -0.3977 -0.9816
15223TIP3    H267161   1.482   5.946   3.440 -2.1862 -0.1952  0.4334
15224TIP3   OH267162   4.567   0.939   1.260 -0.1631  0.2233  0.0522
15224TIP3    H167163   4.596   0.852   1.230 -0.8664  0.6671 -2.1666
15224TIP3    H267164   4.644   0.978   1.301  0.8086 -0.6403 -0.8929
15225TIP3   OH267165   0.353   3.796   3.895  0.5479  0.2513  0.1037
15225TIP3    H167166   0.289   3.808   3.965  0.1368 -0.6882 -0.0915
15225TIP3    H267167   0.438   3.817   3.936  0.2843 -0.0026  0.7992
15226TIP3   OH267168   4.523   0.945   5.724 -0.3795 -0.0240  0.3091
15226TIP3    H167169   4.519   0.985   5.637 -0.0182 -0.1733  0.2230
15226TIP3    H267170   4.614   0.917   5.733 -0.4702 -0.2075  0.6480
15227TIP3   OH267171   2.591   5.032  15.812  0.9024 -0.0040 -0.0627
15227TIP3    H167172   2.647   5.019  15.889  0.9431 -2.3109 -0.4093
15227TIP3    H267173   2.507   4.992  15.838  0.6947 -0.1515 -0.9471
15228TIP3   OH267174   5.653   0.558   3.376  0.1232  0.6412 -0.2630
15228TIP3    H167175   5.608   0.566   3.460 -1.8407 -0.3743 -1.1326
15228TIP3    H267176   5.666   0.648   3.347 -0.6846  0.9881  0.4011
15229TIP3   OH267177   2.396   6.534  15.713 -0.4115 -0.1273  0.2143
15229TIP3    H167178   2.446   6.591  15.773  0.5090  0.0500 -0.6955
15229TIP3    H267179   2.307   6.570  15.714  0.1212  1.2459 -0.2290
15230TIP3   OH267180   2.799   3.390   0.390  0.4845  0.0539 -0.1321
15230TIP3    H167181   2.856   3.432   0.455  0.8550 -0.8199  0.1292
15230TIP3    H267182   2.828   3.425   0.306 -0.6101  1.9004  0.2182
15231TIP3   OH267183   1.338   5.108  15.762  0.4293  0.5749  0.0019
15231TIP3    H167184   1.294   5.031  15.797 -1.5941  1.2224 -1.0021
15231TIP3    H267185   1.281   5.140  15.693  2.0256  2.0528 -0.7143
15232TIP3   OH267186   3.999   4.726   1.484  0.7905  0.2531 -0.7760
15232TIP3    H167187   3.922   4.681   1.518  0.1739  0.2850 -2.0393
15232TIP3    H267188   4.006   4.805   1.537  0.7996 -0.4328  0.2715
15233TIP3   OH267189   2.999   5.479  15.993 -0.2410  0.0270 -0.2538
15233TIP3    H167190   3.003   5.552  16.055  0.0238 -0.9603  0.9375
15233TIP3    H267191   3.055   5.506  15.920  1.8817  0.0155  1.2887
15234TIP3   OH267192   5.232   6.663  11.324  0.4086  0.3645  0.3019
15234TIP3    H167193   5.278   6.735  11.367 -0.9510  1.1705  0.4630
15234TIP3    H267194   5.204   6.699  11.240  2.0122 -0.8352 -0.8246
15235TIP3   OH267195   3.356   6.725  16.075 -0.6031  0.1749 -0.6679
15235TIP3    H167196   3.310   6.661  16.020  0.2362 -0.5857 -0.5019
15235TIP3    H267197   3.372   6.678  16.157  0.5364  0.3976 -0.7560
15236TIP3   OH267198   5.459   5.690  10.958  0.4296  0.2042  0.2307
15236TIP3    H167199   5.484   5.600  10.940  1.6964  0.4579  0.5624
15236TIP3    H267200   5.392   5.710  10.893 -0.4686 -1.2128  0.6780
15237TIP3   OH267201   4.491   1.314  11.355 -0.2554  0.5816 -0.1343
15237TIP3    H167202   4.528   1.301  11.268  1.8498  0.9611  0.6375
15237TIP3    H267203   4.553   1.373  11.399 -0.8220 -0.2289  1.8776
15238TIP3   OH267204   3.848   5.095   2.024 -0.1296 -0.2244  0.2260
15238TIP3    H167205   3.890   5.023   2.073 -1.5552  0.5250  2.7292
15238TIP3    H267206   3.760   5.101   2.061 -1.1723  0.7210 -2.2290
15239TIP3   OH267207   5.962   0.565  16.690  0.5379 -0.5463  0.3009
15239TIP3    H167208   5.915   0.501  16.638  1.7358 -1.0718 -0.1706
15239TIP3    H267209   6.049   0.526  16.703  0.6116  0.0598  1.7678
15240TIP3   OH267210   3.710   1.532   4.327  0.6194 -0.2560 -0.1993
15240TIP3    H167211   3.744   1.457   4.376  1.0690  1.0261  1.5604
15240TIP3    H267212   3.785   1.593   4.323 -0.2282  0.8260 -0.0201
15241TIP3   OH267213   0.462   3.583  14.248 -0.2263 -0.0504  0.1557
15241TIP3    H167214   0.556   3.566  14.241 -0.0001  0.6154  1.2862
15241TIP3    H267215   0.442   3.567  14.340 -1.9563 -3.5564 -0.6693
15242TIP3   OH267216   1.695   2.108  11.821 -0.2072  0.4450 -0.3739
15242TIP3    H167217   1.785   2.119  11.851 -0.8788  1.7701  1.3761
15242TIP3    H267218   1.687   2.015  11.800  0.9863 -0.1372  1.5186
15243TIP3   OH267219   0.718   0.737  14.290 -0.4951 -0.7069 -0.2153
15243TIP3    H167220   0.673   0.743  14.374  1.0002  0.0497  0.5660
15243TIP3    H267221   0.659   0.782  14.229 -0.8203  0.2392  0.7674
15244TIP3   OH267222   6.402   0.829   1.021 -0.3177 -0.4304 -0.2502
15244TIP3    H167223   6.389   0.789   1.107  0.1570  0.7395  0.3872
15244TIP3    H267224   6.338   0.786   0.964 -0.9277 -0.9227  0.7875
15245TIP3   OH267225   0.754   2.680  15.413  0.1590  0.6700  0.1098
15245TIP3    H167226   0.777   2.772  15.429 -0.6330  0.7763  0.7023
15245TIP3    H267227   0.659   2.681  15.398  0.4589  0.2297 -2.1140
15246TIP3   OH267228   3.761   2.838  12.918  0.3180  0.0074 -0.2104
15246TIP3    H167229   3.696   2.767  12.915  1.8204 -1.5433  1.3951
15246TIP3    H267230   3.808   2.823  13.000  3.0436  0.7562 -1.5448
15247TIP3   OH267231   2.538   3.362   0.505 -0.0681 -0.1704 -0.4850
15247TIP3    H167232   2.634   3.361   0.505  0.0200 -0.3052  2.4665
15247TIP3    H267233   2.514   3.446   0.544 -1.1731 -0.3100 -0.8113
15248TIP3   OH267234   4.912   1.466   4.331 -0.1466 -0.1791 -0.0259
15248TIP3    H167235   4.963   1.385   4.331  0.5200  0.2216 -1.1637
15248TIP3    H267236   4.821   1.437   4.336  0.1214 -0.9573  0.5762
15249TIP3   OH267237   5.035   2.603   2.620  0.6934  0.0021 -0.1831
15249TIP3    H167238   4.965   2.656   2.583  1.2020  0.0718 -1.0660
15249TIP3    H267239   5.000   2.514   2.621  0.3841  0.1243 -0.0796
15250TIP3   OH267240   6.060   2.002  11.303  0.4046  0.4849 -0.1548
15250TIP3    H167241   6.072   2.094  11.282  1.8493  0.8235  1.9011
15250TIP3    H267242   6.146   1.972  11.331 -0.6898 -0.6065  2.3808
15251TIP3   OH267243   5.654   4.651   0.678 -0.6364  0.1675 -0.7056
15251TIP3    H167244   5.560   4.668   0.681 -0.6536 -0.0531  0.0564
15251TIP3    H267245   5.688   4.717   0.618 -1.1111  1.0130 -0.0663
15252TIP3   OH267246   4.004   6.775   3.706 -0.1892  0.1784  0.3412
15252TIP3    H167247   4.004   6.871   3.704 -0.5973  0.1731  0.0870
15252TIP3    H267248   3.966   6.753   3.791  1.2038  0.2460  1.0114
15253TIP3   OH267249   0.803   0.144  14.041  0.0661  0.0085  0.0830
15253TIP3    H167250   0.747   0.174  14.113  0.1700  0.3428  0.0289
15253TIP3    H267251   0.847   0.067  14.075  0.3631  0.3537  0.4980
15254TIP3   OH267252   3.413   0.511   1.417  0.6759 -0.3420 -0.4461
15254TIP3    H167253   3.388   0.451   1.347 -0.0581  0.1562 -0.6175
15254TIP3    H267254   3.374   0.473   1.496 -0.4076  0.2842 -0.6688
15255TIP3   OH267255   1.504   5.435  11.976 -0.7424 -0.2766  0.8906
15255TIP3    H167256   1.532   5.353  11.934  0.9376  0.3711  0.6496
15255TIP3    H267257   1.413   5.446  11.950 -0.0510 -0.3967 -1.8605
15256TIP3   OH267258   4.606   2.854  13.983 -0.4497  0.6764 -0.4376
15256TIP3    H167259   4.621   2.948  13.978 -0.5993  0.6575 -1.7957
15256TIP3    H267260   4.629   2.822  13.896 -0.4462 -0.5414 -0.0066
15257TIP3   OH267261   4.599   6.046   3.428  0.7289 -0.0456 -0.2221
15257TIP3    H167262   4.590   5.964   3.475 -1.7172  0.6987  0.7311
15257TIP3    H267263   4.685   6.040   3.385  0.9356 -2.7353  0.4313
15258TIP3   OH267264   4.069   3.682  11.896  0.8103 -0.1986  0.5799
15258TIP3    H167265   4.133   3.612  11.915  2.3139  1.0823  0.4729
15258TIP3    H267266   4.103   3.758  11.943  0.0373  0.8604 -0.5254
15259TIP3   OH267267   2.395   1.456   0.900 -0.7868  0.3238 -0.0785
15259TIP3    H167268   2.462   1.509   0.857 -2.0415  1.3050 -0.9138
15259TIP3    H267269   2.439   1.416   0.975  1.5518 -1.5581 -2.2952
15260TIP3   OH267270   0.355   3.057  13.494 -0.6179 -0.5116  0.2048
15260TIP3    H167271   0.379   3.129  13.553 -2.9003 -0.6508  1.4216
15260TIP3    H267272   0.408   3.071  13.416 -0.5134  2.1205  0.6626
15261TIP3   OH267273   5.799   0.241  12.595 -0.3647 -0.1309  0.3747
15261TIP3    H167274   5.708   0.213  12.587 -0.7895  0.8223  1.5175
15261TIP3    H267275   5.796   0.315  12.656  0.9140  1.2788 -1.1749
15262TIP3   OH267276   0.560   2.270  11.597 -0.0296 -0.1074 -0.0360
15262TIP3    H167277   0.616   2.230  11.663  0.2353  1.1934  0.5769
15262TIP3    H267278   0.544   2.201  11.533  2.4003 -0.5172 -0.3183
15263TIP3   OH267279   0.825   3.066  13.568 -0.4517 -0.1636  0.4705
15263TIP3    H167280   0.870   3.141  13.606  2.0750 -1.7026  0.7068
15263TIP3    H267281   0.797   3.014  13.644 -0.0538 -0.6461  0.2898
15264TIP3   OH267282   2.555   5.812  15.275  0.3268  0.4535 -0.3661
15264TIP3    H167283   2.528   5.723  15.250 -0.0709 -0.2924  2.4063
15264TIP3    H267284   2.624   5.834  15.213 -1.6422 -0.5064 -3.0899
15265TIP3   OH267285   4.659   4.365   1.290  0.4827  0.4885  0.1423
15265TIP3    H167286   4.649   4.459   1.277 -1.2755  0.5713  1.6894
15265TIP3    H267287   4.614   4.325   1.215 -1.5578  0.9284  1.0659
15266TIP3   OH267288   6.512   6.448  11.135  0.6901 -0.0064  0.3277
15266TIP3    H167289   6.592   6.399  11.154  1.1349  0.5977 -0.0179
15266TIP3    H267290   6.515   6.466  11.042  0.8180  1.2017  0.5511
15267TIP3   OH267291   0.160   0.109   5.696 -0.8006 -0.2408  0.4618
15267TIP3    H167292   0.155   0.102   5.600 -2.6787  1.4171  0.3598
15267TIP3    H267293   0.174   0.202   5.712 -0.5243 -0.4960  1.8047
15268TIP3   OH267294   6.165   6.694  10.405 -0.4019 -0.1636  0.6664
15268TIP3    H167295   6.157   6.598  10.402 -2.6855 -0.0052 -1.0283
15268TIP3    H267296   6.140   6.723  10.318  0.6512  1.9973  1.0166
15269TIP3   OH267297   4.879   5.316   5.301  0.0344 -0.7162 -0.2982
15269TIP3    H167298   4.789   5.321   5.333  0.3216 -0.5603  0.5359
15269TIP3    H267299   4.932   5.334   5.379  0.7740 -0.3824 -0.8697
15270TIP3   OH267300   6.437   5.645   1.648 -0.2748 -0.0887 -0.4842
15270TIP3    H167301   6.512   5.586   1.658  1.4054  1.9309 -0.4485
15270TIP3    H267302   6.419   5.677   1.736  0.8716  1.7474 -0.8609
15271TIP3   OH267303   1.622   3.876   4.118 -0.2972 -0.5060 -0.0232
15271TIP3    H167304   1.557   3.827   4.168  0.1592 -2.1556 -0.9761
15271TIP3    H267305   1.582   3.887   4.032  0.1059 -0.2783 -0.1830
15272TIP3   OH267306   4.513   3.878  13.168 -0.0231 -0.1458 -0.4804
15272TIP3    H167307   4.597   3.891  13.123 -1.1418 -1.5273 -3.2706
15272TIP3    H267308   4.472   3.965  13.168  1.8244  0.8389  2.1061
15273TIP3   OH267309   4.453   3.354  16.591 -0.3203 -0.2082  0.4634
15273TIP3    H167310   4.544   3.373  16.566 -0.5514  0.1286 -0.1380
15273TIP3    H267311   4.441   3.262  16.569 -0.8814  0.3539 -1.8925
15274TIP3   OH267312   5.456   2.505   2.574  0.2078  0.1451 -0.0030
15274TIP3    H167313   5.423   2.586   2.534 -0.5616 -0.0249  0.2815
15274TIP3    H267314   5.378   2.458   2.602  0.6731 -0.4737  0.2826
15275TIP3   OH267315   2.312   3.130   4.638 -0.2589 -0.1154  0.0395
15275TIP3    H167316   2.260   3.116   4.717  0.5909  0.2385  0.6740
15275TIP3    H267317   2.401   3.105   4.663  0.0213  0.0316 -0.7962
15276TIP3   OH267318   3.231   2.109   5.105 -0.1750 -0.2743  0.4189
15276TIP3    H167319   3.266   2.136   5.020  1.3534  0.5355  1.2621
15276TIP3    H267320   3.137   2.128   5.099 -0.0836 -0.1324 -1.0311
15277TIP3   OH267321   2.660   2.732  11.513  0.3262 -0.6185 -0.0666
15277TIP3    H167322   2.680   2.825  11.501 -1.8494 -0.1453 -0.3574
15277TIP3    H267323   2.739   2.687  11.482  2.9480  1.1225  3.3980
15278TIP3   OH267324   2.329   1.360   3.593 -0.8610  0.4867 -0.3573
15278TIP3    H167325   2.388   1.368   3.668 -1.0476  0.8143 -0.2459
15278TIP3    H267326   2.319   1.265   3.582 -0.4273  0.4290 -0.2917
15279TIP3   OH267327   6.582   0.011  12.233  0.0775 -0.2056 -0.5996
15279TIP3    H167328   6.501  -0.019  12.275  0.7235  0.4942  1.2546
15279TIP3    H267329   6.552   0.067  12.161 -1.2024  2.2515  1.6546
15280TIP3   OH267330   0.367   0.809   4.269 -0.1311  0.1042  0.0850
15280TIP3    H167331   0.285   0.797   4.223 -0.6763 -1.9924  1.4595
15280TIP3    H267332   0.434   0.806   4.201 -0.9086 -2.7808 -0.6920
15281TIP3   OH267333   5.784   1.468   2.304 -0.1380 -0.4884  0.2727
15281TIP3    H167334   5.868   1.422   2.301  1.0610  1.6202 -1.0921
15281TIP3    H267335   5.808   1.560   2.310 -2.3520  0.1913 -0.4831
15282TIP3   OH267336   5.872   4.913   0.910  0.0698 -0.0597  0.3558
15282TIP3    H167337   5.921   4.992   0.934  0.4810 -0.7388  1.8850
15282TIP3    H267338   5.898   4.896   0.820  0.0969  1.4518  0.0475
15283TIP3   OH267339   4.246   1.955  12.250 -0.5363  0.4297 -0.1824
15283TIP3    H167340   4.318   2.008  12.283 -1.0759  0.9399  0.2045
15283TIP3    H267341   4.196   2.015  12.194 -0.0080 -0.2434 -1.4114
15284TIP3   OH267342   2.657   1.049  11.392 -0.1340 -0.1049  0.3989
15284TIP3    H167343   2.625   0.995  11.319 -2.8152  0.7207  0.8615
15284TIP3    H267344   2.733   1.094  11.356  0.1986 -1.6896 -1.0255
15285TIP3   OH267345   6.352   3.438   2.825  0.4863  0.3143 -0.2779
15285TIP3    H167346   6.367   3.529   2.802 -0.4957  0.8410  1.0040
15285TIP3    H267347   6.371   3.389   2.745 -0.5279  1.7959 -1.4917
15286TIP3   OH267348   6.117   1.270   6.763 -0.1004 -0.2740  0.5798
15286TIP3    H167349   6.072   1.353   6.746  0.4270  0.0041  0.5026
15286TIP3    H267350   6.047   1.208   6.783 -0.8697 -0.6780 -2.7670
15287TIP3   OH267351   4.407   0.826  13.931  0.7424  0.7754 -0.3369
15287TIP3    H167352   4.402   0.770  13.853 -0.8135  0.5102 -0.0621
15287TIP3    H267353   4.321   0.820  13.971  1.7760  0.1848  1.9270
15288TIP3   OH267354   0.043   0.061   4.473 -0.4654  0.0159  0.3710
15288TIP3    H167355   0.014   0.065   4.382 -2.7020  1.5896  1.0601
15288TIP3    H267356   0.111   0.128   4.480 -0.8995  0.5020  0.0276
15289TIP3   OH267357   5.290   0.961   0.299 -0.3685 -0.1666 -0.4959
15289TIP3    H167358   5.381   0.945   0.323 -0.3655  1.5310  0.7813
15289TIP3    H267359   5.293   0.979   0.205  0.4677 -1.0333 -0.6505
15290TIP3   OH267360   2.252   6.157   3.502  0.0041  0.1003  0.2704
15290TIP3    H167361   2.164   6.121   3.497 -0.3100  1.0211 -2.7724
15290TIP3    H267362   2.304   6.101   3.444  1.2377  0.1376  1.2946
15291TIP3   OH267363   1.566   4.841   3.651  0.3627  0.4236  0.5743
15291TIP3    H167364   1.660   4.834   3.667  0.1635  1.1956  2.2709
15291TIP3    H267365   1.557   4.827   3.557  2.0426 -0.8217  0.5388
15292TIP3   OH267366   3.289   5.937   1.446  0.1889 -0.1867 -0.6717
15292TIP3    H167367   3.337   5.872   1.498  0.3415  1.2350  1.0597
15292TIP3    H267368   3.205   5.896   1.428  0.8035 -1.4168 -0.8733
15293TIP3   OH267369   3.330   5.861  15.408 -0.2469  1.4002  0.0454
15293TIP3    H167370   3.307   5.936  15.352 -0.3606  1.5133  0.2425
15293TIP3    H267371   3.297   5.885  15.495 -0.7322  0.9068  0.0019
15294TIP3   OH267372   0.694   5.997   2.332 -0.2968  0.3575 -0.2814
15294TIP3    H167373   0.685   6.090   2.314 -1.1447  0.0060 -1.8161
15294TIP3    H267374   0.628   5.978   2.398  0.5911  1.0252  0.8275
15295TIP3   OH267375   0.451   1.742  13.739 -0.0332 -0.0719 -0.1741
15295TIP3    H167376   0.446   1.728  13.833 -1.5584  0.7351 -0.1131
15295TIP3    H267377   0.460   1.653  13.703 -0.5089 -0.4756  0.6644
15296TIP3   OH267378   2.757   4.851  16.880  0.1730 -0.3323  0.2770
15296TIP3    H167379   2.696   4.888  16.943  1.5303 -0.5098  1.7701
15296TIP3    H267380   2.833   4.909  16.883  1.0256 -1.4040  0.2641
15297TIP3   OH267381   5.114   2.713   4.342  0.7297  0.3388  0.4698
15297TIP3    H167382   5.085   2.769   4.270  0.2770 -0.1119  0.2924
15297TIP3    H267383   5.062   2.633   4.332  1.0096  0.0858  1.0128
15298TIP3   OH267384   6.337   1.715  11.778 -0.3140  0.2722  0.6205
15298TIP3    H167385   6.347   1.632  11.730  2.4249  0.4848  0.6747
15298TIP3    H267386   6.273   1.695  11.846  1.2988 -2.3087  1.5306
15299TIP3   OH267387   2.380   5.875  13.440  0.0423  0.7975  0.4144
15299TIP3    H167388   2.298   5.921  13.456 -0.1943  0.5111  0.0174
15299TIP3    H267389   2.381   5.857  13.346  0.5099  0.7106  0.4321
15300TIP3   OH267390   3.261   4.643  14.736 -0.0378  0.2192  0.6932
15300TIP3    H167391   3.271   4.641  14.641  1.5323  0.1440  0.8315
15300TIP3    H267392   3.342   4.684  14.767 -0.0421 -0.7733  2.0680
15301TIP3   OH267393   1.434   5.773  15.610  0.3224  0.5345  0.2541
15301TIP3    H167394   1.372   5.726  15.554  1.0274 -2.4058  1.7119
15301TIP3    H267395   1.383   5.844  15.649 -1.4899 -0.3413 -0.4251
15302TIP3   OH267396   3.544   5.469   0.332 -0.6484 -0.0282  0.6798
15302TIP3    H167397   3.571   5.487   0.422  0.8248 -2.5857  0.8514
15302TIP3    H267398   3.564   5.550   0.285 -0.3328  0.9584  2.3999
15303TIP3   OH267399   3.940   2.083   0.259  0.7833  0.0798 -0.4162
15303TIP3    H167400   3.919   2.173   0.286  3.0027  0.6581 -0.3577
15303TIP3    H267401   3.864   2.054   0.210 -0.3693  1.6684  0.3335
15304TIP3   OH267402   3.365   4.112   2.425 -0.0263 -0.2718 -0.2024
15304TIP3    H167403   3.288   4.083   2.474  0.4196 -1.3107 -0.0938
15304TIP3    H267404   3.335   4.190   2.377 -0.6499  0.3951  1.2040
15305TIP3   OH267405   2.096   3.905  15.608 -0.0029  0.2527 -0.1455
15305TIP3    H167406   2.175   3.890  15.661 -0.2403 -0.9082 -0.0858
15305TIP3    H267407   2.044   3.967  15.659  1.0564  1.3937 -0.4013
15306TIP3   OH267408   6.585   1.943   3.251 -0.0513  0.4458  0.4144
15306TIP3    H167409   6.538   2.025   3.261 -0.2588  0.2809  0.8415
15306TIP3    H267410   6.671   1.959   3.291  0.7644  1.1532 -1.5207
15307TIP3   OH267411   4.824   0.464  15.369 -0.9451  0.0611 -0.7879
15307TIP3    H167412   4.901   0.469  15.312  1.7045  0.1155  2.4528
15307TIP3    H267413   4.805   0.371  15.375  0.6585 -0.2304  0.4229
15308TIP3   OH267414   0.667   3.815  12.918 -0.1994 -0.3904 -0.2777
15308TIP3    H167415   0.693   3.906  12.908 -0.7463 -0.0616  1.0917
15308TIP3    H267416   0.740   3.765  12.881  1.3129  0.5377  1.3242
15309TIP3   OH267417   6.514   1.934  13.408 -0.4879 -0.4924 -0.0919
15309TIP3    H167418   6.536   1.905  13.496  1.4755 -0.8172 -0.6270
15309TIP3    H267419   6.589   1.907  13.355 -1.1028  0.6950 -1.6456
15310TIP3   OH267420   1.912   3.882  16.993  0.7545 -0.0417 -0.5953
15310TIP3    H167421   1.997   3.901  17.032 -0.0274  2.1278  0.2329
15310TIP3    H267422   1.867   3.966  16.994 -1.4466 -1.1555 -0.9053
15311TIP3   OH267423   4.609   0.183   4.564  0.4271 -0.0331  0.0519
15311TIP3    H167424   4.637   0.161   4.653 -2.4375 -0.5571  0.9421
15311TIP3    H267425   4.653   0.120   4.508  1.6096 -0.2577  1.1959
15312TIP3   OH267426   5.786   3.438  13.816  0.9536 -1.0277  0.0261
15312TIP3    H167427   5.874   3.450  13.780  0.6641  0.0732 -0.3675
15312TIP3    H267428   5.775   3.510  13.878 -1.0852  1.3772 -2.8326
15313TIP3   OH267429   0.381   1.539   3.906  0.2230 -0.1643  0.5132
15313TIP3    H167430   0.328   1.551   3.828  0.5508  0.1881  0.3419
15313TIP3    H267431   0.462   1.499   3.874  0.5773  0.4738  0.5904
15314TIP3   OH267432   3.683   0.975   0.455  0.0036 -0.2830 -0.5076
15314TIP3    H167433   3.731   0.892   0.451  0.1890 -0.3466  1.7849
15314TIP3    H267434   3.751   1.042   0.464 -0.1580  0.1460 -2.1312
15315TIP3   OH267435   2.507   2.677  11.743 -0.1717  0.6625  0.4144
15315TIP3    H167436   2.454   2.728  11.681 -1.3631  0.6755  1.3914
15315TIP3    H267437   2.594   2.673  11.703 -0.2861  2.6450 -0.1445
15316TIP3   OH267438   4.783   4.621  15.880 -0.0423  0.3035  0.0988
15316TIP3    H167439   4.726   4.577  15.943  2.7069 -2.6621  0.7741
15316TIP3    H267440   4.808   4.703  15.923  1.3210 -1.3670  2.7929
15317TIP3   OH267441   6.242   6.233   2.096  0.7147  0.9912 -0.5344
15317TIP3    H167442   6.200   6.203   2.016  0.3406 -0.6547  0.2375
15317TIP3    H267443   6.181   6.297   2.132 -1.3008 -1.3902  0.5838
15318TIP3   OH267444   0.836   5.033  13.352  1.1120 -0.6662 -0.0602
15318TIP3    H167445   0.879   4.970  13.293  0.1540  0.9579 -2.6757
15318TIP3    H267446   0.904   5.056  13.416  2.6754 -1.5482 -1.3282
15319TIP3   OH267447   6.298   0.255  16.861 -0.2191  0.0673 -0.1985
15319TIP3    H167448   6.272   0.320  16.796  1.2818 -0.6171 -1.5356
15319TIP3    H267449   6.388   0.278  16.884  0.1639 -1.2365 -0.3292
15320TIP3   OH267450   0.609   0.481   4.229 -0.4918 -0.4568  0.5433
15320TIP3    H167451   0.586   0.567   4.264 -2.4636 -0.9664  0.5917
15320TIP3    H267452   0.634   0.430   4.306  1.9985  0.3924  0.3859
15321TIP3   OH267453   0.012   3.591   0.382 -0.6233 -0.7123  0.4737
15321TIP3    H167454  -0.058   3.575   0.445 -0.3470 -0.9739  0.7208
15321TIP3    H267455   0.088   3.614   0.436  0.2371 -3.0949  0.4252
15322TIP3   OH267456   4.195   6.716  13.505  0.4906  0.4922  0.4306
15322TIP3    H167457   4.277   6.763  13.519  2.2023 -2.4563  1.3993
15322TIP3    H267458   4.163   6.698  13.594  0.7013 -1.2973  0.1858
15323TIP3   OH267459   3.279   4.399   5.897  0.2889  0.1803 -1.1363
15323TIP3    H167460   3.196   4.373   5.937  1.0775 -1.4335 -0.4801
15323TIP3    H267461   3.257   4.415   5.805 -0.3566 -2.6440 -1.5610
15324TIP3   OH267462   2.626   0.489   4.615 -0.2892 -0.3352  0.0293
15324TIP3    H167463   2.626   0.471   4.521 -1.5059 -3.3077  0.4951
15324TIP3    H267464   2.698   0.436   4.650  0.2728  0.8826  0.8154
15325TIP3   OH267465   1.545   1.474  15.429 -0.0297  0.4720  0.3801
15325TIP3    H167466   1.520   1.382  15.437  1.2174 -0.4090 -3.6446
15325TIP3    H267467   1.640   1.472  15.416  0.2366  2.5159  1.5634
15326TIP3   OH267468   6.645   5.196   4.039 -0.4186  0.4268  0.6063
15326TIP3    H167469   6.597   5.167   3.962 -0.3518 -1.3690  1.2034
15326TIP3    H267470   6.660   5.290   4.024 -1.0812  0.2816 -1.1735
15327TIP3   OH267471   3.174   4.148   5.324 -0.0461  0.2002  0.7064
15327TIP3    H167472   3.226   4.089   5.270 -0.4042 -1.6246  2.2399
15327TIP3    H267473   3.204   4.132   5.413 -2.4521 -0.1639  1.5229
15328TIP3   OH267474   6.488   2.395  16.047  0.4221  0.2291  0.0895
15328TIP3    H167475   6.578   2.397  16.080  0.6284  1.3787 -0.4857
15328TIP3    H267476   6.438   2.355  16.118  1.4821 -1.1379  0.1184
15329TIP3   OH267477   0.958   4.214   1.818  0.1583 -0.3254 -0.5481
15329TIP3    H167478   1.004   4.168   1.888 -0.5785 -0.6990 -0.3002
15329TIP3    H267479   0.883   4.159   1.798 -0.3470  0.4097 -0.7396
15330TIP3   OH267480   5.999   2.064   0.362  0.1222 -0.0849  0.3076
15330TIP3    H167481   6.035   1.978   0.342  2.6088  1.2518 -1.3769
15330TIP3    H267482   5.905   2.048   0.373  0.4528 -2.9345 -0.1712
15331TIP3   OH267483   4.732   5.403   6.111  0.2350 -0.0961 -0.3847
15331TIP3    H167484   4.774   5.436   6.032  0.3934  0.2376 -0.1662
15331TIP3    H267485   4.639   5.394   6.088  0.7368 -3.2084 -1.6570
15332TIP3   OH267486   4.198   2.957   2.148 -0.7377 -0.7472 -0.1224
15332TIP3    H167487   4.178   2.876   2.195  3.6174 -1.7381  0.4347
15332TIP3    H267488   4.228   2.929   2.062  0.6948  0.2168  0.0232
15333TIP3   OH267489   0.793   5.172   4.983  0.0774 -0.4356  0.9299
15333TIP3    H167490   0.705   5.171   4.944 -0.4962  0.4875  2.1381
15333TIP3    H267491   0.851   5.148   4.911 -1.0982 -0.4068 -0.0635
15334TIP3   OH267492   0.738   1.614  16.302 -0.4025 -0.1652 -0.3996
15334TIP3    H167493   0.748   1.679  16.372  1.3318 -0.1329 -0.6475
15334TIP3    H267494   0.735   1.530  16.349  0.8292 -0.1505 -0.2637
15335TIP3   OH267495   1.023   4.506   1.929  0.1704  0.1845  0.1638
15335TIP3    H167496   1.068   4.473   2.007  1.0087  1.2625  0.1509
15335TIP3    H267497   1.013   4.428   1.874 -1.0354 -0.7317  1.5940
15336TIP3   OH267498   3.815   1.859   1.343  0.0486 -0.4703 -0.2538
15336TIP3    H167499   3.837   1.873   1.251  0.8374 -0.6311 -0.0964
15336TIP3    H267500   3.781   1.943   1.373 -0.0854 -0.3810 -0.6566
15337TIP3   OH267501   5.979   3.899  15.818 -0.6923  0.1505 -0.5202
15337TIP3    H167502   5.993   3.903  15.912  1.1676  1.0971 -0.7866
15337TIP3    H267503   5.884   3.902  15.808 -0.9067  1.3851  1.2934
15338TIP3   OH267504   0.374   0.642  16.549  0.8676 -0.0887 -0.2597
15338TIP3    H167505   0.461   0.664  16.580  0.6900  1.2049 -0.6198
15338TIP3    H267506   0.387   0.613  16.459  0.9070  0.3003 -0.3808
15339TIP3   OH267507   2.805   1.039  16.320 -0.6112 -0.1478 -0.5683
15339TIP3    H167508   2.758   1.027  16.402 -0.9376  0.1014 -0.7167
15339TIP3    H267509   2.772   1.122  16.285 -1.1784 -0.7011 -1.4098
15340TIP3   OH267510   2.041   5.813  12.685 -0.5323  0.0796  0.1525
15340TIP3    H167511   2.067   5.905  12.687 -1.8781  0.5595 -1.7362
15340TIP3    H267512   2.019   5.793  12.776  0.6007  1.3353  0.7547
15341TIP3   OH267513   6.842   0.003  11.605 -0.2495 -0.5054 -0.1276
15341TIP3    H167514   6.868  -0.020  11.516 -2.3345 -1.0646 -0.6396
15341TIP3    H267515   6.901   0.075  11.629  1.9407 -1.8935 -1.0091
15342TIP3   OH267516   4.176   0.565  16.722 -0.9172  0.0650  0.0942
15342TIP3    H167517   4.160   0.656  16.746  0.0013  0.4328 -0.6318
15342TIP3    H267518   4.198   0.568  16.629  0.9594 -0.6673  0.4809
15343TIP3   OH267519   4.274   4.342  15.215  0.6918  0.7579  0.6247
15343TIP3    H167520   4.309   4.313  15.130  0.8050  0.8771  0.6307
15343TIP3    H267521   4.185   4.373  15.194  0.4211  0.0331  0.6851
15344TIP3   OH267522   3.849   5.481   2.707 -0.7503 -0.4918 -0.1243
15344TIP3    H167523   3.868   5.574   2.692 -0.2796 -0.7250 -1.0470
15344TIP3    H267524   3.916   5.435   2.657 -2.7732 -1.3543 -2.1853
15345TIP3   OH267525   5.041   5.087  12.490 -0.1096 -0.2228  0.3449
15345TIP3    H167526   4.999   5.154  12.435 -1.5660  0.0476  1.7172
15345TIP3    H267527   5.135   5.102  12.479 -0.3723  2.8581  1.5140
15346TIP3   OH267528   2.201   5.575   3.708 -0.2671 -0.1782 -0.5597
15346TIP3    H167529   2.233   5.590   3.619  0.4882 -1.7854 -0.5876
15346TIP3    H267530   2.259   5.509   3.744 -1.1637 -0.2685  0.7943
15347TIP3   OH267531   1.082   6.458   1.310  0.7111  0.1776 -0.5103
15347TIP3    H167532   1.068   6.364   1.306 -0.5917  0.3433 -0.2915
15347TIP3    H267533   1.086   6.485   1.218 -2.0301  0.2908 -0.6845
15348TIP3   OH267534   1.130   5.877  14.401 -0.0400  0.5324  0.5566
15348TIP3    H167535   1.075   5.804  14.430 -0.1166  0.3412 -0.0460
15348TIP3    H267536   1.069   5.936  14.355  0.4126 -0.1550 -0.9677
15349TIP3   OH267537   2.402   3.150   5.400  0.1773  0.3118 -0.1869
15349TIP3    H167538   2.384   3.131   5.491 -0.0565  3.0156  0.4200
15349TIP3    H267539   2.317   3.147   5.356 -0.3952  2.8854  0.5707
15350TIP3   OH267540   0.794   6.583   6.196  0.3005  0.2482  0.7474
15350TIP3    H167541   0.886   6.605   6.180  0.7294  1.1626  3.7464
15350TIP3    H267542   0.798   6.514   6.263 -1.2463 -1.3179 -0.6653
15351TIP3   OH267543   0.842   3.044  16.297 -0.0791 -0.1672 -0.5215
15351TIP3    H167544   0.837   3.114  16.362  3.6587  0.8276 -1.0226
15351TIP3    H267545   0.901   2.980  16.336  1.3974 -0.0567 -2.3892
15352TIP3   OH267546   3.160   5.837  17.021 -0.4733  0.0117  1.0031
15352TIP3    H167547   3.128   5.859  16.933  0.1157  1.4996  1.1321
15352TIP3    H267548   3.214   5.759  17.009 -1.4403 -0.5748  0.2699
15353TIP3   OH267549   4.335   5.550  10.424 -0.4609  0.3764  0.1824
15353TIP3    H167550   4.414   5.599  10.403  1.8821 -2.0629  2.3658
15353TIP3    H267551   4.290   5.603  10.490 -0.0777  1.3233 -0.3107
15354TIP3   OH267552   0.136   5.437  12.320  0.2150 -0.0371  0.0022
15354TIP3    H167553   0.170   5.379  12.252  0.9972  0.7069 -0.2516
15354TIP3    H267554   0.069   5.384  12.364  0.6107 -0.9889 -0.4910
15355TIP3   OH267555   5.631   6.438   4.819 -0.3272 -0.3149 -0.3343
15355TIP3    H167556   5.645   6.396   4.904 -0.4877 -1.1950 -0.7318
15355TIP3    H267557   5.679   6.383   4.757 -1.9902 -0.9577 -1.1178
15356TIP3   OH267558   6.549   5.176  16.504 -0.7716  0.0760  0.0038
15356TIP3    H167559   6.598   5.166  16.586 -0.1824 -1.4666 -0.5083
15356TIP3    H267560   6.587   5.254  16.463 -1.2835  1.0588  1.3127
15357TIP3   OH267561   2.823   2.150  14.220 -0.0235 -0.1718 -0.1542
15357TIP3    H167562   2.793   2.112  14.302  1.3878 -0.4169  0.2780
15357TIP3    H267563   2.912   2.180  14.238  0.3734 -0.3497 -1.6350
15358TIP3   OH267564   0.199   6.392   0.743  0.0823 -0.4774  0.0003
15358TIP3    H167565   0.210   6.389   0.648  0.9788 -0.3780  0.0910
15358TIP3    H267566   0.105   6.382   0.757 -0.0021 -0.9618 -0.8729
15359TIP3   OH267567   2.576   5.695   1.708 -0.5468 -0.0029  0.1269
15359TIP3    H167568   2.484   5.701   1.731 -0.5700  0.2828 -0.0295
15359TIP3    H267569   2.588   5.605   1.678 -0.9451  0.1766 -0.5833
15360TIP3   OH267570   2.211   0.244   4.078 -0.1438 -0.1865 -0.3915
15360TIP3    H167571   2.184   0.163   4.121  0.8181 -0.3546 -0.0700
15360TIP3    H267572   2.206   0.223   3.984 -0.7263 -0.3350 -0.3304
15361TIP3   OH267573   6.171   3.636  16.450  0.1346  0.5260 -0.3037
15361TIP3    H167574   6.139   3.717  16.490 -0.9799 -0.3356  0.6118
15361TIP3    H267575   6.095   3.599  16.406  0.5429 -0.2079 -0.4013
15362TIP3   OH267576   5.019   2.064  13.185  0.1877 -0.1379 -0.3575
15362TIP3    H167577   4.933   2.051  13.145  1.0086 -1.7613 -1.6782
15362TIP3    H267578   5.001   2.060  13.279 -1.3276  0.7083 -0.5723
15363TIP3   OH267579   6.221   1.697  16.725  0.9923  0.1672  0.1762
15363TIP3    H167580   6.182   1.784  16.726 -0.8041 -0.4852 -2.2919
15363TIP3    H267581   6.288   1.701  16.656  0.9336 -0.3757  0.0790
15364TIP3   OH267582   2.488   3.914   0.253 -0.2840 -0.5084  0.3121
15364TIP3    H167583   2.512   3.821   0.261 -0.1577 -0.3527  2.0645
15364TIP3    H267584   2.521   3.954   0.333 -1.1492  0.8833 -0.0028
15365TIP3   OH267585   4.599   2.746   2.072 -0.1462 -0.0174  0.0762
15365TIP3    H167586   4.569   2.764   1.983  0.4368 -0.1732 -0.1563
15365TIP3    H267587   4.690   2.775   2.073  0.5001 -1.9478  0.0068
15366TIP3   OH267588   5.883   4.365  15.848 -0.1132  0.1789  0.0288
15366TIP3    H167589   5.826   4.343  15.775  0.1606  1.0881 -0.4834
15366TIP3    H267590   5.954   4.415  15.808 -0.4252  1.4797  1.0157
15367TIP3   OH267591   1.438   3.312  16.607 -0.1683  0.4646 -0.2348
15367TIP3    H167592   1.527   3.327  16.577 -0.0569 -0.3997 -0.3636
15367TIP3    H267593   1.384   3.317  16.528 -0.0433 -0.4872 -0.3849
15368TIP3   OH267594   3.333   4.025   1.850  0.0510 -0.1362 -0.5634
15368TIP3    H167595   3.294   4.069   1.774 -0.8381  1.9709  1.0191
15368TIP3    H267596   3.275   4.046   1.923  1.0453 -1.8264  0.8093
15369TIP3   OH267597   1.557   5.330  10.672  0.1159  0.3653  0.2259
15369TIP3    H167598   1.477   5.299  10.714 -0.1134 -1.4299 -1.3588
15369TIP3    H267599   1.530   5.405  10.620 -0.5616 -0.2389 -0.3075
15370TIP3   OH267600   4.946   3.817  16.364 -0.5180 -0.3229  0.2488
15370TIP3    H167601   4.929   3.827  16.270  1.9264 -0.3228 -0.2601
15370TIP3    H267602   4.869   3.772  16.397 -2.0014  0.7277 -1.5097
15371TIP3   OH267603   3.115   0.667  13.874  0.8960  0.1796 -0.6592
15371TIP3    H167604   3.053   0.686  13.804 -0.7120 -0.9299  0.3944
15371TIP3    H267605   3.149   0.580  13.853 -0.0086 -0.3973  0.1870
15372TIP3   OH267606   2.480   3.826  14.863  0.1532  0.1160 -0.4116
15372TIP3    H167607   2.546   3.863  14.804 -1.3818  1.2523 -1.5176
15372TIP3    H267608   2.407   3.889  14.859 -0.0236  0.2556  2.7636
15373TIP3   OH267609   0.053   0.895  16.342  0.3969  0.0942  0.0486
15373TIP3    H167610   0.046   0.880  16.436 -0.8141  0.5705  0.0467
15373TIP3    H267611  -0.033   0.874  16.306 -0.5299  3.8392 -0.3420
15374TIP3   OH267612   3.869   1.112   3.410  0.0844  0.4188 -0.3894
15374TIP3    H167613   3.783   1.071   3.398 -0.4674  0.5858  2.4462
15374TIP3    H267614   3.858   1.201   3.377 -1.1349  0.7172  0.7451
15375TIP3   OH267615   4.994   3.083   3.744 -0.1089  0.8106  0.2249
15375TIP3    H167616   4.919   3.103   3.801 -1.4889 -0.5226 -1.0386
15375TIP3    H267617   4.969   3.116   3.658  1.5707  1.9876  0.1367
15376TIP3   OH267618   0.596   5.372   0.312 -0.1275 -1.0114 -0.2265
15376TIP3    H167619   0.579   5.457   0.270  0.2261 -0.6182  0.4130
15376TIP3    H267620   0.683   5.348   0.281 -0.9675 -2.0763 -1.9245
15377TIP3   OH267621   4.115   5.213   4.582  0.6711 -0.1980 -0.1973
15377TIP3    H167622   4.040   5.198   4.523  1.8944 -0.7680 -1.6885
15377TIP3    H267623   4.075   5.241   4.664 -1.0834  3.9118 -2.1731
15378TIP3   OH267624   3.334   5.142   5.524  0.5078  0.0931  0.7311
15378TIP3    H167625   3.383   5.088   5.463 -0.0379 -2.3183  2.2877
15378TIP3    H267626   3.289   5.206   5.469  1.3784 -0.8738 -1.1926
15379TIP3   OH267627   2.978   6.443   3.451 -0.0470  0.0465  0.0496
15379TIP3    H167628   3.014   6.366   3.406 -0.7272 -0.5078  0.4406
15379TIP3    H267629   2.969   6.509   3.382 -0.1839 -0.4803 -0.4467
15380TIP3   OH267630   5.528   0.252  12.615  0.1186 -0.2002 -0.2026
15380TIP3    H167631   5.435   0.266  12.633  0.4958 -0.9094  2.8487
15380TIP3    H267632   5.556   0.333  12.572 -1.4367  1.0035  0.9075
15381TIP3   OH267633   0.659   6.084   2.730  0.0558  0.5517 -0.4371
15381TIP3    H167634   0.716   6.140   2.783 -2.4490  1.8134  1.1140
15381TIP3    H267635   0.685   5.995   2.754  1.1181  1.0839  0.4876
15382TIP3   OH267636   5.250   3.971   5.618 -0.6512 -0.5775  0.0087
15382TIP3    H167637   5.337   3.999   5.648 -0.9481  2.0176 -1.2427
15382TIP3    H267638   5.243   3.880   5.645  2.0337 -0.5526  1.0718
15383TIP3   OH267639   1.643   6.565  12.339  0.9047  0.1248  0.1683
15383TIP3    H167640   1.575   6.520  12.289  1.4556 -0.7705  0.1994
15383TIP3    H267641   1.707   6.592  12.273  1.5182 -0.8539  0.3457
15384TIP3   OH267642   6.322   3.425  13.435  0.1762  0.2331  0.4774
15384TIP3    H167643   6.406   3.438  13.389  0.8106  3.0810  2.2224
15384TIP3    H267644   6.337   3.459  13.523 -2.7833  0.7269  0.8918
15385TIP3   OH267645   5.346   2.351  16.990  0.1340  0.6951 -0.4204
15385TIP3    H167646   5.411   2.292  17.029 -2.8326 -1.3867  1.8560
15385TIP3    H267647   5.353   2.335  16.896  2.8475  0.5990 -0.2878
15386TIP3   OH267648   6.366   3.226  13.650  0.3893  0.5825 -0.2095
15386TIP3    H167649   6.359   3.131  13.638  0.1243  0.7298 -1.3410
15386TIP3    H267650   6.433   3.236  13.717 -0.4219 -0.4375  0.7910
15387TIP3   OH267651   5.828   2.400  11.490  0.1426  0.5135  0.1558
15387TIP3    H167652   5.872   2.412  11.406 -0.7729 -2.0275 -0.7737
15387TIP3    H267653   5.897   2.413  11.555  0.9630  2.0722 -0.9640
15388TIP3   OH267654   3.363   5.094   0.069 -0.3401  0.2474  0.2452
15388TIP3    H167655   3.391   5.115   0.158  2.8450  0.6612 -0.7449
15388TIP3    H267656   3.387   5.172   0.017 -0.9192 -0.4971 -1.1943
15389TIP3   OH267657   3.398   6.705   6.010  0.2482 -0.1341  0.1503
15389TIP3    H167658   3.334   6.758   6.058 -0.2517  0.6363 -1.2881
15389TIP3    H267659   3.430   6.763   5.941  2.2083 -0.6586  0.5607
15390TIP3   OH267660   1.973   6.625   3.479  0.4146 -0.0124 -0.2215
15390TIP3    H167661   1.907   6.677   3.433  2.1836  0.2715 -2.6530
15390TIP3    H267662   1.924   6.552   3.516 -1.4741  1.0350 -0.5138
15391TIP3   OH267663   2.584   0.782   3.088 -0.1714 -0.5325  0.0695
15391TIP3    H167664   2.509   0.802   3.144 -1.3530  0.4242 -1.7813
15391TIP3    H267665   2.576   0.689   3.070  0.0020 -0.7707  1.1384
15392TIP3   OH267666   5.633   6.383   5.094  0.4540  0.0817  0.1054
15392TIP3    H167667   5.599   6.297   5.120 -0.8708  0.8785  1.1494
15392TIP3    H267668   5.698   6.405   5.161  2.2042 -0.8815 -1.1929
15393TIP3   OH267669   5.244   2.511  15.853 -0.3536 -0.2649  0.4365
15393TIP3    H167670   5.162   2.560  15.857  0.4689  1.2428 -0.4691
15393TIP3    H267671   5.263   2.503  15.760  0.1142 -1.3376  0.6104
15394TIP3   OH267672   4.603   0.372   5.029 -0.5622  0.2722  0.4114
15394TIP3    H167673   4.643   0.285   5.034 -0.2098  0.4652  0.9980
15394TIP3    H267674   4.660   0.420   4.968 -0.1415  0.4149  0.9126
15395TIP3   OH267675   4.709   6.849   1.996 -0.0123 -1.1380 -0.3058
15395TIP3    H167676   4.734   6.871   2.086  1.4437  0.0124 -0.9573
15395TIP3    H267677   4.781   6.794   1.965  0.2070 -0.3340 -1.2368
15396TIP3   OH267678   2.002   2.395  16.689 -0.2570  0.6063 -0.2658
15396TIP3    H167679   1.949   2.474  16.688 -0.1224  0.7186 -2.0999
15396TIP3    H267680   2.043   2.393  16.603  1.5234 -0.2844  0.5592
15397TIP3   OH267681   1.992   3.315   1.871 -0.4396  0.0803 -0.5062
15397TIP3    H167682   2.033   3.312   1.957 -0.2477 -0.1610 -0.6056
15397TIP3    H267683   1.990   3.408   1.849 -0.9182  0.1824 -0.0386
15398TIP3   OH267684   0.315   5.226   1.357 -0.1298 -0.6520  0.3140
15398TIP3    H167685   0.359   5.281   1.293 -1.3909  0.8555  0.6829
15398TIP3    H267686   0.308   5.140   1.314  0.5986 -0.1450 -0.8535
15399TIP3   OH267687   4.152   4.608   4.754 -0.1026  0.0941 -0.1048
15399TIP3    H167688   4.133   4.609   4.660  1.5684  1.1024 -0.4628
15399TIP3    H267689   4.242   4.577   4.760 -0.1685  0.1068  1.1637
15400TIP3   OH267690   5.618   1.888  14.130  0.4373 -0.2404  0.1542
15400TIP3    H167691   5.672   1.965  14.112 -0.4277  0.0676 -1.3303
15400TIP3    H267692   5.542   1.922  14.177  1.2012 -0.5786  1.6776
15401TIP3   OH267693   0.754   1.274  13.950 -0.1749  0.1822 -0.0527
15401TIP3    H167694   0.727   1.299  14.038 -1.9462  1.2481 -0.8465
15401TIP3    H267695   0.679   1.296  13.894  0.5518 -1.2890 -1.7091
15402TIP3   OH267696   5.358   4.089   3.181 -0.4670 -0.4180  0.1264
15402TIP3    H167697   5.277   4.134   3.159  0.7738  1.4920 -0.8034
15402TIP3    H267698   5.402   4.077   3.096  1.0283  0.2555  0.7723
15403TIP3   OH267699   3.453   2.109  10.430 -0.5494 -0.6454 -0.2098
15403TIP3    H167700   3.515   2.167  10.474 -1.0790 -1.0607  1.1185
15403TIP3    H267701   3.375   2.112  10.484  0.1827 -4.4639  1.3450
15404TIP3   OH267702   4.294   1.896  16.682  0.1575  0.2977 -0.1282
15404TIP3    H167703   4.315   1.942  16.763 -0.1576  1.7747 -0.8555
15404TIP3    H267704   4.246   1.960  16.629  1.7222 -0.0670 -2.1289
15405TIP3   OH267705   3.495   6.334   5.656  0.7558 -0.8028  0.4631
15405TIP3    H167706   3.521   6.377   5.737 -0.0768  3.8392 -1.4006
15405TIP3    H267707   3.403   6.310   5.670  0.5604  0.1430  0.8885
15406TIP3   OH267708   3.884   3.288  12.771 -0.0978 -0.2985 -0.4749
15406TIP3    H167709   3.805   3.260  12.725  0.5115 -2.8370 -0.1232
15406TIP3    H267710   3.920   3.357  12.716 -1.5278 -0.4245 -1.6410
15407TIP3   OH267711   3.163   3.821   5.213  0.1544  0.3306  0.4243
15407TIP3    H167712   3.093   3.882   5.193  1.5200  1.6301 -0.6839
15407TIP3    H267713   3.121   3.749   5.260 -1.8025  1.2771  0.1932
15408TIP3   OH267714   2.375   6.014   4.868  0.3580  0.1625 -0.3772
15408TIP3    H167715   2.401   6.046   4.782  0.8198  1.5221  0.2269
15408TIP3    H267716   2.306   6.075   4.896  0.4129 -0.0886  0.3177
15409TIP3   OH267717   2.750   5.134  16.489 -0.1983  0.8997  0.1890
15409TIP3    H167718   2.778   5.056  16.536 -2.3301  0.2837  0.5570
15409TIP3    H267719   2.801   5.133  16.408  1.2263  0.2270  1.0716
15410TIP3   OH267720   2.501   4.607  15.974  0.4346 -0.0592 -0.6123
15410TIP3    H167721   2.553   4.527  15.981 -1.0393 -1.0883 -1.0195
15410TIP3    H267722   2.433   4.597  16.040  1.5214  1.9300  0.9262
15411TIP3   OH267723   3.650   6.565   4.756  0.0078  0.4858 -0.3566
15411TIP3    H167724   3.664   6.544   4.849  2.3544  1.2636 -0.4589
15411TIP3    H267725   3.723   6.624   4.734 -1.7809  2.1672 -2.1198
15412TIP3   OH267726   6.513   0.820   1.542  0.7379  0.5491 -0.6549
15412TIP3    H167727   6.564   0.901   1.553  0.3699  0.6354  0.4807
15412TIP3    H267728   6.422   0.849   1.542  0.6286  0.2369 -1.3100
15413TIP3   OH267729   2.868   5.090  12.456 -0.3524  0.4323 -0.4972
15413TIP3    H167730   2.815   5.166  12.436 -0.5857  0.3355 -0.2522
15413TIP3    H267731   2.862   5.080  12.551 -1.7944 -0.9535 -0.6917
15414TIP3   OH267732   0.652   6.540  12.690  0.1044  0.6694  0.4605
15414TIP3    H167733   0.583   6.524  12.626  1.7159 -3.0375 -0.6607
15414TIP3    H267734   0.619   6.502  12.771 -0.3664  1.7830  0.8086
15415TIP3   OH267735   4.881   1.604   1.436 -0.0616  0.3485  0.2211
15415TIP3    H167736   4.953   1.643   1.487  0.7146  0.3629 -0.8579
15415TIP3    H267737   4.922   1.532   1.389 -1.1782 -0.8458  1.0385
15416TIP3   OH267738   3.958   4.973  16.144 -0.3114  0.2840  0.1781
15416TIP3    H167739   3.924   4.915  16.212 -0.4239  1.1302  0.8739
15416TIP3    H267740   3.900   5.049  16.147  0.1384  0.6524 -0.3544
15417TIP3   OH267741   1.258   2.373   4.537 -0.2563 -0.2094  0.2324
15417TIP3    H167742   1.172   2.372   4.580 -0.7261  1.2201 -0.6076
15417TIP3    H267743   1.254   2.299   4.475 -1.1614  0.2584 -0.2976
15418TIP3   OH267744   2.019   2.405   6.620 -0.7305  0.1940  0.0980
15418TIP3    H167745   2.089   2.381   6.559 -0.4799 -0.2905  0.5608
15418TIP3    H267746   2.066   2.431   6.700 -0.9769  2.6384 -0.4910
15419TIP3   OH267747   1.600   2.910   1.235 -0.0074  0.0852  0.0534
15419TIP3    H167748   1.650   2.829   1.225  0.3298  0.0824  1.5103
15419TIP3    H267749   1.577   2.913   1.328  0.7006  2.0695  0.2132
15420TIP3   OH267750   2.858   0.368   0.588  0.2255  0.1035 -0.4556
15420TIP3    H167751   2.780   0.372   0.643  0.5275 -0.3018  0.0106
15420TIP3    H267752   2.896   0.455   0.594 -0.2055  0.3126 -0.7112
15421TIP3   OH267753   4.637   2.812  14.918  0.1590 -0.7017  0.4676
15421TIP3    H167754   4.647   2.903  14.893 -1.9351 -0.6447 -0.3811
15421TIP3    H267755   4.688   2.803  14.999 -0.7063  1.5822  1.3410
15422TIP3   OH267756   6.626   3.269  12.447  0.2274  0.4557 -0.1286
15422TIP3    H167757   6.681   3.255  12.524  0.5317  0.8902 -0.2643
15422TIP3    H267758   6.684   3.255  12.373 -0.4850 -1.8085 -0.3472
15423TIP3   OH267759   1.650   5.231   3.885  0.0545 -0.0837  0.2524
15423TIP3    H167760   1.560   5.198   3.879  0.5816 -1.3518 -1.5762
15423TIP3    H267761   1.704   5.158   3.855  1.6278  1.0145  0.3095
15424TIP3   OH267762   5.913   5.844   1.720 -0.1423 -0.9387  0.0806
15424TIP3    H167763   5.919   5.927   1.766  1.2199 -1.3266  0.6673
15424TIP3    H267764   5.954   5.860   1.635 -0.0478 -0.9607  0.1219
15425TIP3   OH267765   3.587   2.119   5.356 -0.5038  0.1355  0.1955
15425TIP3    H167766   3.619   2.057   5.290  0.0683 -0.3038  0.8745
15425TIP3    H267767   3.667   2.158   5.392 -0.8552  1.2463 -0.1912
15426TIP3   OH267768   4.621   5.011  10.736 -0.5837 -0.4834  0.0688
15426TIP3    H167769   4.606   5.075  10.666 -0.3331 -0.3343  0.1490
15426TIP3    H267770   4.715   4.992  10.732 -0.2559  0.7245  1.3720
15427TIP3   OH267771   3.679   0.745  14.365  0.0261 -0.2703  0.8840
15427TIP3    H167772   3.737   0.776  14.434  0.4190  2.6416 -0.5747
15427TIP3    H267773   3.590   0.764  14.397  0.1957  0.8264  0.7578
15428TIP3   OH267774   1.925   3.639  15.903  0.1787 -0.3943  0.3242
15428TIP3    H167775   1.866   3.678  15.968 -0.3787  0.1834 -0.5047
15428TIP3    H267776   1.903   3.546  15.903 -2.0709  0.0436 -1.2369
15429TIP3   OH267777   6.366   3.373  12.555 -0.2751  0.1543  0.1728
15429TIP3    H167778   6.376   3.303  12.619 -1.0428 -2.1335 -2.0219
15429TIP3    H267779   6.447   3.371  12.504 -0.2686  0.9308  0.1374
15430TIP3   OH267780   6.225   3.595  12.743  0.3683  0.1313  0.0837
15430TIP3    H167781   6.233   3.503  12.720  1.1679  0.6959 -2.1412
15430TIP3    H267782   6.266   3.642  12.670 -1.7041  2.3255  0.2166
15431TIP3   OH267783   4.074   3.917  15.592 -0.4988  0.5756 -0.0485
15431TIP3    H167784   4.144   3.919  15.527  0.3352  0.6617  0.8223
15431TIP3    H267785   4.036   3.829  15.585  0.4342  0.1436  0.2135
15432TIP3   OH267786   1.794   1.277  13.745 -0.6913  0.6351 -0.4415
15432TIP3    H167787   1.711   1.229  13.736 -0.4940  0.3200 -0.5970
15432TIP3    H267788   1.859   1.220  13.704  0.0507 -0.2658  1.8345
15433TIP3   OH267789   4.448   6.164  13.059 -0.5231  0.0756  0.1572
15433TIP3    H167790   4.516   6.180  12.993 -0.5875 -2.0037 -0.4736
15433TIP3    H267791   4.390   6.240  13.052  0.8964  1.1722 -0.3149
15434TIP3   OH267792   3.278   0.757   1.867 -0.1976  0.3709 -0.3505
15434TIP3    H167793   3.348   0.749   1.803 -0.4713  0.0375 -0.6184
15434TIP3    H267794   3.314   0.811   1.937 -0.4768  2.2746 -1.6054
15435TIP3   OH267795   6.307   5.850   2.478 -0.2408  0.4673 -0.0359
15435TIP3    H167796   6.247   5.778   2.497  1.8356 -1.7635 -1.2493
15435TIP3    H267797   6.310   5.853   2.382  2.6624 -0.6381 -0.0941
15436TIP3   OH267798   3.758   4.941  12.480  0.0989 -0.5449  0.6420
15436TIP3    H167799   3.799   4.955  12.565  1.1402  1.4789 -0.1395
15436TIP3    H267800   3.788   4.853  12.453  2.6755  0.1802  0.8402
15437TIP3   OH267801   0.168   4.085   2.283 -0.0987  0.5306  0.4623
15437TIP3    H167802   0.237   4.072   2.349 -0.1329  0.6432  0.5193
15437TIP3    H267803   0.189   4.169   2.243 -1.1197  1.3554  1.5890
15438TIP3   OH267804   1.103   4.891   3.596 -0.2379 -0.1198 -0.5670
15438TIP3    H167805   1.128   4.957   3.660 -0.8746 -1.2440  0.8943
15438TIP3    H267806   1.156   4.814   3.619 -1.0115 -0.7694 -0.9203
15439TIP3   OH267807   4.178   3.278  12.430 -0.4387  0.3405 -0.1340
15439TIP3    H167808   4.272   3.265  12.448 -0.4288 -1.9270 -1.4649
15439TIP3    H267809   4.136   3.201  12.469 -1.2881 -0.5074 -2.5403
15440TIP3   OH267810   5.070   0.097  13.971 -0.4811  0.1080 -0.3311
15440TIP3    H167811   5.024   0.052  13.899 -2.6402  0.7117  0.5878
15440TIP3    H267812   5.052   0.043  14.048 -2.6550  2.1138  0.6945
15441TIP3   OH267813   0.372   3.029  11.498  0.7105 -0.0112  0.1639
15441TIP3    H167814   0.315   2.987  11.563 -0.4870  1.2913 -0.0011
15441TIP3    H267815   0.325   3.020  11.415  0.5586  1.3511  0.0774
15442TIP3   OH267816   5.485   4.705  15.932  0.2592 -0.2004  0.4269
15442TIP3    H167817   5.482   4.800  15.934 -0.8994 -0.2271  0.4076
15442TIP3    H267818   5.464   4.682  15.842 -0.3364 -0.4952  0.6358
15443TIP3   OH267819   5.813   2.814  14.206  0.6608  0.3884 -0.2303
15443TIP3    H167820   5.760   2.823  14.285  1.1274  0.6878  0.0501
15443TIP3    H267821   5.782   2.883  14.147  0.5997  0.4316 -0.1467
15444TIP3   OH267822   2.080   5.786  14.306  0.2219  0.5410 -0.4704
15444TIP3    H167823   2.012   5.749  14.250  2.1443  0.7096 -3.1224
15444TIP3    H267824   2.160   5.777  14.255  1.9420  1.8366  1.8170
15445TIP3   OH267825   3.898   4.843  13.381  0.2345 -0.4803  0.1897
15445TIP3    H167826   3.966   4.845  13.313  0.2324 -1.5241  0.1356
15445TIP3    H267827   3.946   4.851  13.463  0.0361  4.0000  0.0824
15446TIP3   OH267828   4.325   0.120   6.500  0.3815 -0.1121  0.9239
15446TIP3    H167829   4.230   0.130   6.493  0.6843  1.9815 -1.8432
15446TIP3    H267830   4.341   0.028   6.478 -0.9171 -0.0236 -0.6362
15447TIP3   OH267831   1.051   6.350   4.253 -0.4253  0.1823  0.0020
15447TIP3    H167832   1.073   6.389   4.168 -2.2221  1.1812 -0.0458
15447TIP3    H267833   1.049   6.256   4.236 -0.8879  0.3807 -1.0961
15448TIP3   OH267834   6.555   4.745   2.917 -0.7820 -0.6106 -0.4247
15448TIP3    H167835   6.481   4.690   2.889 -0.8930 -0.7378  0.1126
15448TIP3    H267836   6.593   4.699   2.991 -0.5062 -0.2574 -0.3421
15449TIP3   OH267837   1.922   4.722   2.154  0.3297 -0.3199 -0.0523
15449TIP3    H167838   1.955   4.791   2.212 -0.7899 -0.0794  0.3250
15449TIP3    H267839   1.936   4.757   2.066 -2.7656  1.7570  0.1065
15450TIP3   OH267840   3.827   4.954  15.488  0.1938  0.3875 -0.4204
15450TIP3    H167841   3.812   4.873  15.438  0.1704 -0.7584  1.3444
15450TIP3    H267842   3.740   4.986  15.509  0.1919  1.2172 -1.5712
15451TIP3   OH267843   0.687   4.310  10.938  0.0108  0.2742 -0.1935
15451TIP3    H167844   0.650   4.223  10.951  2.8086 -0.9101  0.6214
15451TIP3    H267845   0.612   4.369  10.943 -1.6828 -1.8553  1.8844
15452TIP3   OH267846   0.604   4.754  13.632  0.2702 -0.4361 -0.2893
15452TIP3    H167847   0.683   4.759  13.685 -0.1430  0.5410  0.2691
15452TIP3    H267848   0.597   4.841  13.592 -0.3161 -0.6359 -0.6334
15453TIP3   OH267849   6.221   5.420   0.992 -0.1308  0.3288  0.9472
15453TIP3    H167850   6.131   5.438   0.964 -0.5287  0.6065  2.3354
15453TIP3    H267851   6.248   5.500   1.036  0.6179  0.0473  1.0095
15454TIP3   OH267852   1.589   3.022  13.011  0.8138 -0.1351 -0.6380
15454TIP3    H167853   1.509   3.064  12.978 -0.4958 -2.1754 -0.2655
15454TIP3    H267854   1.577   2.929  12.990  2.3483 -0.7212  0.8834
15455TIP3   OH267855   3.636   3.980  16.205 -0.3925 -0.8119  0.1981
15455TIP3    H167856   3.695   4.045  16.168  0.5121 -1.2665  0.8102
15455TIP3    H267857   3.686   3.898  16.204 -0.4865 -0.9414  1.9423
15456TIP3   OH267858   5.220   5.902   2.974  0.4361 -0.2773 -0.1917
15456TIP3    H167859   5.163   5.948   2.912  1.3548  1.1885  0.0041
15456TIP3    H267860   5.171   5.900   3.055  1.1296  2.2552  0.3860
15457TIP3   OH267861   4.730   0.851  14.500  0.5375  0.2611  0.7870
15457TIP3    H167862   4.665   0.832  14.432  2.2245  2.3221 -1.6319
15457TIP3    H267863   4.730   0.774  14.556 -1.6020 -1.2118 -1.0623
15458TIP3   OH267864   4.625   2.048   6.353 -0.2502  0.1128  0.8085
15458TIP3    H167865   4.673   2.090   6.425 -0.8843  1.3640  0.5222
15458TIP3    H267866   4.533   2.067   6.371 -0.4066  0.5174 -0.3861
15459TIP3   OH267867   5.371   1.964  14.240 -0.4282 -0.3170  0.6262
15459TIP3    H167868   5.375   1.974  14.335 -0.3749  0.5514  0.5330
15459TIP3    H267869   5.305   2.027  14.212 -0.8721 -0.9794  0.1405
15460TIP3   OH267870   5.494   0.117   1.542  0.1609  0.3918  0.0642
15460TIP3    H167871   5.403   0.136   1.520 -0.2347  0.8227  1.8791
15460TIP3    H267872   5.497   0.121   1.637  1.8103 -0.9644  0.1145
15461TIP3   OH267873   3.684   3.200  12.281  0.3966  0.4506  0.0138
15461TIP3    H167874   3.766   3.167  12.317  0.1313  1.2017  1.3461
15461TIP3    H267875   3.685   3.294  12.300  0.2932  0.9343 -2.0707
15462TIP3   OH267876   6.371   5.369  13.385 -0.0295  0.2308  0.2069
15462TIP3    H167877   6.371   5.354  13.290 -1.1376  0.1985  0.2042
15462TIP3    H267878   6.425   5.297  13.420 -0.0963 -0.0987 -0.3484
15463TIP3   OH267879   2.200   5.133   5.190 -0.8474 -0.2593  0.4551
15463TIP3    H167880   2.270   5.154   5.128  0.9814 -1.1276  2.1068
15463TIP3    H267881   2.121   5.169   5.150  0.3629 -0.0552 -1.9501
15464TIP3   OH267882   0.098   2.075  16.180 -0.2226 -0.2025  0.3078
15464TIP3    H167883   0.024   2.037  16.226  0.2306  0.5024  1.6904
15464TIP3    H267884   0.066   2.090  16.091 -0.8592 -2.3796  0.1231
15465TIP3   OH267885   6.284   5.864  13.868 -0.7641  0.0672 -0.6181
15465TIP3    H167886   6.219   5.900  13.807 -1.8265 -1.2728 -0.3117
15465TIP3    H267887   6.238   5.859  13.952  0.9715  2.8449  0.6510
15466TIP3   OH267888   0.411   4.011  12.782 -0.5052 -0.3611  0.7430
15466TIP3    H167889   0.316   4.017  12.786 -0.5128  0.1717  0.1038
15466TIP3    H267890   0.428   3.921  12.753 -0.8528 -0.2039  0.0206
15467TIP3   OH267891   6.337   2.374   2.206 -0.5768 -0.9846  0.0920
15467TIP3    H167892   6.352   2.428   2.128  1.5734 -2.3158 -0.4946
15467TIP3    H267893   6.330   2.285   2.172  0.5014 -1.6037  1.4071
15468TIP3   OH267894   4.410   0.139  16.734 -0.5320  0.2654  0.2248
15468TIP3    H167895   4.356   0.217  16.745  0.2106  1.1080 -1.5833
15468TIP3    H267896   4.500   0.171  16.741 -0.2087 -0.7755  1.2498
15469TIP3   OH267897   4.288   3.063   2.430 -0.1681 -0.7696  0.0834
15469TIP3    H167898   4.252   2.981   2.398  2.1953 -2.5144  1.5488
15469TIP3    H267899   4.373   3.071   2.386  0.4012 -0.0470  1.2548
15470TIP3   OH267900   2.524   4.025   1.337 -0.0846  0.6176 -0.6959
15470TIP3    H167901   2.472   4.002   1.260  0.3668 -0.6693 -0.6383
15470TIP3    H267902   2.538   3.942   1.383  0.2995  1.2496  0.3737
15471TIP3   OH267903   0.233   4.855  15.194 -0.0199  0.2548 -0.1891
15471TIP3    H167904   0.233   4.951  15.195  0.5690  0.2629  0.3412
15471TIP3    H267905   0.275   4.832  15.111 -0.3235  0.4565 -0.3975
15472TIP3   OH267906   3.302   1.210  12.453 -0.1783 -0.0418  0.2396
15472TIP3    H167907   3.294   1.301  12.422 -0.3599 -0.5671 -1.3810
15472TIP3    H267908   3.218   1.170  12.430  0.1597 -0.7998  0.3123
15473TIP3   OH267909   6.811   2.980  15.661  0.2699 -0.3692  0.2708
15473TIP3    H167910   6.893   2.994  15.614 -0.2781  2.1622 -0.0922
15473TIP3    H267911   6.838   2.948  15.747  1.5772 -0.3364 -0.0982
15474TIP3   OH267912   1.683   3.860  10.336  0.5046 -0.4049 -0.2422
15474TIP3    H167913   1.595   3.892  10.321  0.2654 -0.7680  0.3355
15474TIP3    H267914   1.690   3.782  10.280 -0.0902 -1.2720  0.8635
15475TIP3   OH267915   0.112   1.662   3.370  0.4756 -0.2028 -0.1809
15475TIP3    H167916   0.062   1.669   3.289  0.8367  2.6931 -0.2615
15475TIP3    H267917   0.198   1.629   3.342  0.0381 -0.9133 -0.7015
15476TIP3   OH267918   3.050   0.309  12.746  0.3846  0.1955 -0.0141
15476TIP3    H167919   3.011   0.227  12.776 -1.0849  0.9459  0.2303
15476TIP3    H267920   3.074   0.355  12.826 -2.0751  1.5006  0.0924
15477TIP3   OH267921   3.422   5.205  11.055 -0.1547 -0.6400 -0.0624
15477TIP3    H167922   3.458   5.169  10.974 -0.7419 -0.5373 -0.3714
15477TIP3    H267923   3.436   5.137  11.121  0.6513 -0.5820 -0.1585
15478TIP3   OH267924   6.267   0.971  10.888  0.2580 -0.1607 -0.2053
15478TIP3    H167925   6.347   0.999  10.932 -0.3481 -0.4498  1.1383
15478TIP3    H267926   6.257   1.031  10.814 -0.4275  2.5272  1.9305
15479TIP3   OH267927   3.430   3.098   6.843 -0.4746 -0.3004  0.2187
15479TIP3    H167928   3.435   3.078   6.750 -0.8335  1.2887 -0.1797
15479TIP3    H267929   3.383   3.024   6.882 -0.7064 -0.7717 -0.9260
15480TIP3   OH267930   4.560   1.305  15.200  0.5445  0.2579  0.5988
15480TIP3    H167931   4.634   1.251  15.172  0.7839  0.5492  0.6675
15480TIP3    H267932   4.600   1.385  15.234  0.2204  0.1796  1.1637
15481TIP3   OH267933   6.608   3.794   4.781 -0.4819  0.2896 -0.0446
15481TIP3    H167934   6.634   3.874   4.826 -1.3564  0.4326  0.2294
15481TIP3    H267935   6.527   3.767   4.825 -0.5222 -0.4133 -0.5300
15482TIP3   OH267936   1.958   4.907   5.708 -0.3178 -0.3601 -0.4511
15482TIP3    H167937   1.902   4.978   5.676 -1.0633 -1.8252 -2.6563
15482TIP3    H267938   2.000   4.872   5.629  1.7574 -0.9574  0.8470
15483TIP3   OH267939   3.517   4.179   3.228  0.3775  0.9396 -0.3758
15483TIP3    H167940   3.468   4.118   3.173 -0.6043  2.0344 -0.7278
15483TIP3    H267941   3.605   4.141   3.232 -0.4592 -1.0634  0.2773
15484TIP3   OH267942   2.075   3.296   1.111 -0.2405 -0.1399  0.3246
15484TIP3    H167943   2.057   3.203   1.098  0.6291 -0.4491  1.2206
15484TIP3    H267944   2.158   3.312   1.065  0.3987 -0.1693  1.4420
15485TIP3   OH267945   6.555   1.039  15.088  0.5930  0.4342 -0.2634
15485TIP3    H167946   6.609   1.115  15.065  0.5681  0.6999  0.5225
15485TIP3    H267947   6.611   0.964  15.074  0.3867  0.5347 -1.7621
15486TIP3   OH267948   2.628   4.605   4.369 -0.2295  0.4700 -0.1449
15486TIP3    H167949   2.566   4.665   4.327  0.7868  1.3085 -0.5236
15486TIP3    H267950   2.635   4.636   4.459  0.6105  1.2236 -0.4493
15487TIP3   OH267951   2.446   3.960  10.684  0.4343 -0.4383 -0.0144
15487TIP3    H167952   2.406   3.878  10.656 -1.3046 -0.0889  1.2281
15487TIP3    H267953   2.410   4.026  10.625  1.0317 -0.4346 -0.3757
15488TIP3   OH267954   2.479   4.545   0.164 -0.4062 -0.0255 -0.2587
15488TIP3    H167955   2.419   4.577   0.097 -0.2291  1.1948  0.1459
15488TIP3    H267956   2.432   4.556   0.246  0.2843  0.7588  0.0424
15489TIP3   OH267957   5.448   4.197   0.984 -0.7037  0.0123  0.0347
15489TIP3    H167958   5.356   4.174   0.970 -0.4178 -2.8193  1.9558
15489TIP3    H267959   5.449   4.235   1.072 -0.1409  1.0340 -0.3985
15490TIP3   OH267960   5.790   1.405  11.907 -0.2319 -0.1181  0.1419
15490TIP3    H167961   5.828   1.492  11.921 -0.7034 -0.0303  0.9780
15490TIP3    H267962   5.808   1.385  11.816 -0.9203  1.2682 -0.3332
15491TIP3   OH267963   5.963   1.110  11.270  0.3578  0.4811 -0.4193
15491TIP3    H167964   5.970   1.197  11.309  0.7711 -1.5161  4.8205
15491TIP3    H267965   5.885   1.071  11.310  1.3382 -2.2234 -0.9018
15492TIP3   OH267966   6.214   6.041  10.414  0.3340 -0.1878 -0.3018
15492TIP3    H167967   6.289   6.074  10.365  0.1374  0.4510 -0.1831
15492TIP3    H267968   6.138   6.073  10.366  0.1277  1.2713  0.9294
15493TIP3   OH267969   2.811   5.013  11.258 -0.2574  0.1809  0.0629
15493TIP3    H167970   2.741   5.055  11.309 -1.4066 -2.6144  1.0035
15493TIP3    H267971   2.777   5.008  11.169  0.6218  2.6752 -0.4657
15494TIP3   OH267972   0.048   5.835   6.698  0.2537 -0.8034 -0.4541
15494TIP3    H167973   0.115   5.824   6.766  0.2594  0.4167 -0.2429
15494TIP3    H267974   0.079   5.781   6.625  0.0240 -2.5181  0.6411
15495TIP3   OH267975   2.640   0.815   1.079  0.5040 -0.1483  0.3561
15495TIP3    H167976   2.663   0.737   1.028  1.0001 -0.1053  0.5121
15495TIP3    H267977   2.545   0.808   1.091  0.3557 -0.1042 -0.6585
15496TIP3   OH267978   5.776   5.921   3.284 -0.2939  0.3200  0.0928
15496TIP3    H167979   5.785   6.015   3.300 -2.5067  0.2425  2.3536
15496TIP3    H267980   5.734   5.915   3.198  0.6684  1.3194 -0.4710
15497TIP3   OH267981   4.407   6.467   5.423 -0.0300  0.0398  0.1003
15497TIP3    H167982   4.331   6.468   5.481 -1.6955 -0.6738 -1.9280
15497TIP3    H267983   4.482   6.480   5.481 -1.4752 -1.5987  2.5168
15498TIP3   OH267984   6.375   0.622  10.900 -0.2119 -0.3781  0.0452
15498TIP3    H167985   6.350   0.577  10.981 -1.9940  1.3194  0.5134
15498TIP3    H267986   6.389   0.713  10.927  1.0991 -0.1770 -1.2460
15499TIP3   OH267987   6.689   2.614  15.894 -0.4174 -0.1205  0.1426
15499TIP3    H167988   6.622   2.647  15.953 -0.2382  1.0409 -0.2682
15499TIP3    H267989   6.654   2.630  15.806  0.5839  0.9724 -0.0860
15500TIP3   OH267990   2.434   2.869  15.920 -0.4548 -0.0557  0.3458
15500TIP3    H167991   2.393   2.929  15.857 -0.6748 -0.0802  0.4651
15500TIP3    H267992   2.524   2.900  15.926  0.1310 -1.2526 -1.4749
15501TIP3   OH267993   6.707   1.651  15.907 -0.5739  0.3231 -0.1551
15501TIP3    H167994   6.688   1.635  15.814 -0.5222  0.8464 -0.2575
15501TIP3    H267995   6.779   1.591  15.928 -0.2181  0.5962 -0.5937
15502TIP3   OH267996   0.388   2.234   3.627  0.2592 -0.1492  0.0584
15502TIP3    H167997   0.303   2.270   3.601 -0.3779 -1.5973  0.0694
15502TIP3    H267998   0.446   2.310   3.631 -1.0123  0.8535 -0.0309
15503TIP3   OH267999   3.402   1.820  11.679 -0.8067  0.4912  0.4759
15503TIP3    H168000   3.384   1.907  11.643 -0.3037 -0.0241 -1.0883
15503TIP3    H268001   3.467   1.836  11.747 -0.9567  1.3690  0.4358
15504TIP3   OH268002   5.334   5.256  16.002 -0.2491 -0.2066 -1.2132
15504TIP3    H168003   5.296   5.339  16.029  1.1939  1.4801 -3.9388
15504TIP3    H268004   5.298   5.240  15.915 -0.5974 -2.5590 -0.7109
15505TIP3   OH268005   5.488   3.981   2.247 -0.8878  0.2941  0.1288
15505TIP3    H168006   5.420   4.014   2.306  1.3236 -1.0339  3.7328
15505TIP3    H268007   5.544   4.056   2.231 -2.8694  1.3571 -2.7389
15506TIP3   OH268008   1.555   3.732   1.923  0.3442 -0.0187 -0.0449
15506TIP3    H168009   1.572   3.801   1.988  0.7397  0.1507 -0.3257
15506TIP3    H268010   1.483   3.766   1.871  0.4385  0.1181 -0.0876
15507TIP3   OH268011   0.414   6.201  16.487 -0.4635 -0.0989 -0.0838
15507TIP3    H168012   0.486   6.212  16.425  1.5837  1.0014  2.3130
15507TIP3    H268013   0.443   6.132  16.546 -0.9478  0.9553  1.4537
15508TIP3   OH268014   1.079   3.751   0.437 -0.1802  0.3173  0.3464
15508TIP3    H168015   1.055   3.745   0.529 -1.0566  0.6849  0.1502
15508TIP3    H268016   1.003   3.792   0.394  0.5115  0.8596 -0.4123
15509TIP3   OH268017   2.509   2.234   1.772  0.2450  0.3892  0.4325
15509TIP3    H168018   2.433   2.231   1.715  0.3819 -0.4819  0.2812
15509TIP3    H268019   2.568   2.167   1.738  0.6732  0.4025  1.1171
15510TIP3   OH268020   0.086   0.227   4.186  0.2592  0.0909 -0.1902
15510TIP3    H168021   0.173   0.189   4.193  1.5552  2.5495 -1.6122
15510TIP3    H268022   0.066   0.224   4.092 -1.1652 -0.3659  0.1115
15511TIP3   OH268023   1.311   0.786  14.875 -0.1801 -0.5140 -0.0841
15511TIP3    H168024   1.385   0.844  14.892 -0.3528 -0.4630  0.5232
15511TIP3    H268025   1.263   0.784  14.958  0.0313 -1.8267  0.0246
15512TIP3   OH268026   1.571   2.226   2.818 -0.7326 -0.0260 -0.2200
15512TIP3    H168027   1.574   2.190   2.730 -1.5417  0.0424 -0.2814
15512TIP3    H268028   1.524   2.160   2.870 -1.1225  0.3730 -0.0600
15513TIP3   OH268029   4.831   3.507   4.979 -0.6338  0.2540  0.0976
15513TIP3    H168030   4.794   3.560   4.908 -0.3710  0.1286 -0.1345
15513TIP3    H268031   4.925   3.518   4.970 -0.5336 -0.9432 -0.5044
15514TIP3   OH268032   3.114   1.147  16.127 -0.1088 -0.2399  0.1883
15514TIP3    H168033   3.161   1.210  16.181  0.5430 -0.5539 -0.0002
15514TIP3    H268034   3.053   1.104  16.187  0.5152 -0.4905  0.6450
15515TIP3   OH268035   4.930   6.194  16.754 -0.1437  0.1120 -0.1352
15515TIP3    H168036   4.848   6.147  16.739 -1.4761  0.2574  5.0217
15515TIP3    H268037   4.908   6.286  16.739 -0.9936  0.1520  1.2356
15516TIP3   OH268038   0.744   0.297   4.523 -0.2080 -0.3171 -0.3293
15516TIP3    H168039   0.801   0.221   4.517 -0.4140 -0.6810  1.6432
15516TIP3    H268040   0.800   0.368   4.554 -0.6512 -0.5366  1.0706
15517TIP3   OH268041   4.687   1.744  14.471 -0.1726  0.1646 -0.8074
15517TIP3    H168042   4.707   1.698  14.553  0.8775  0.8581 -0.6488
15517TIP3    H268043   4.750   1.709  14.408  0.7839  1.4842 -0.6301
15518TIP3   OH268044   2.948   5.536   5.444 -0.0267 -0.3756 -0.4114
15518TIP3    H168045   3.034   5.541   5.486 -0.8338  0.9899  1.2393
15518TIP3    H268046   2.929   5.443   5.437  1.0041 -0.6703  0.5091
15519TIP3   OH268047   1.474   5.736   5.875  0.2337 -1.0672  0.1580
15519TIP3    H168048   1.492   5.681   5.799  1.2166 -0.0498 -0.3727
15519TIP3    H268049   1.556   5.781   5.892 -0.4974  0.1198  0.6768
15520TIP3   OH268050   1.652   4.134   5.813 -0.3130  0.1919  0.2389
15520TIP3    H168051   1.627   4.065   5.875  0.9654 -2.2271 -1.7593
15520TIP3    H268052   1.622   4.103   5.728  0.6119  1.9541 -0.8033
15521TIP3   OH268053   6.175   3.729  15.269 -0.3418  0.0835 -0.1300
15521TIP3    H168054   6.103   3.774  15.313 -1.9580  0.0515 -2.5879
15521TIP3    H268055   6.241   3.798  15.255 -0.5398  0.4663  0.7665
15522TIP3   OH268056   4.521   0.983  15.177  0.3114 -0.0623  0.4692
15522TIP3    H168057   4.581   1.010  15.108  1.3972  0.7485  1.6865
15522TIP3    H268058   4.435   1.014  15.148  0.7372  0.2374 -0.5119
15523TIP3   OH268059   0.378   1.780   4.331 -0.9159  0.5838 -0.8247
15523TIP3    H168060   0.363   1.869   4.361 -0.3016  0.1084  1.0226
15523TIP3    H268061   0.355   1.782   4.238 -2.1802  2.3328 -0.5337
15524TIP3   OH268062   1.666   4.435   3.756 -0.1595 -0.1180 -0.3614
15524TIP3    H168063   1.734   4.393   3.703  0.1329  1.1198 -1.0192
15524TIP3    H268064   1.647   4.372   3.825  1.2978 -0.7104 -0.4506
15525TIP3   OH268065   4.684   5.201  13.317 -0.8074 -0.0569  0.4018
15525TIP3    H168066   4.637   5.125  13.281 -0.0449 -0.0253 -0.7364
15525TIP3    H268067   4.776   5.173  13.317 -0.7620  0.0012  2.2747
15526TIP3   OH268068   2.477   1.091   2.124  0.0799  0.3875 -0.0268
15526TIP3    H168069   2.571   1.078   2.137  0.4022 -0.9115 -2.9046
15526TIP3    H268070   2.471   1.152   2.050 -1.3838  1.4127  0.8901
15527TIP3   OH268071   1.716   4.704  11.144 -0.3480  0.9616 -0.1998
15527TIP3    H168072   1.750   4.771  11.203  0.4860 -1.3180  2.0889
15527TIP3    H268073   1.790   4.680  11.088 -0.8484  2.3798 -1.5298
15528TIP3   OH268074   4.347   4.444  16.763 -0.6891  0.1981 -0.0703
15528TIP3    H168075   4.384   4.376  16.820  0.4012  0.1851 -0.7659
15528TIP3    H268076   4.256   4.417  16.750 -1.2108  0.6095  2.2556
15529TIP3   OH268077   3.995   5.972  13.011 -0.2455  0.0190 -0.1589
15529TIP3    H168078   3.928   6.037  13.030 -0.5184 -0.7342  1.6429
15529TIP3    H268079   4.031   5.999  12.926 -1.3480  1.6473 -0.1567
15530TIP3   OH268080   5.508   2.713  12.077  0.1433 -0.0210  0.0246
15530TIP3    H168081   5.550   2.696  11.993 -1.3462 -2.3130 -0.3815
15530TIP3    H268082   5.504   2.808  12.085  0.0098  0.2577 -2.6800
15531TIP3   OH268083   0.879   5.738   1.515 -0.2027 -0.9355 -0.1203
15531TIP3    H168084   0.940   5.678   1.559  1.2808  0.5896  0.0191
15531TIP3    H268085   0.854   5.801   1.583 -1.8913 -1.4556 -0.2125
15532TIP3   OH268086   0.667   6.678  14.179 -0.2967 -0.2580  0.2191
15532TIP3    H168087   0.708   6.748  14.229  1.8359 -0.3145 -1.2984
15532TIP3    H268088   0.716   6.599  14.205 -1.9308 -1.0565  1.0755
15533TIP3   OH268089   2.854   6.798  16.364  0.3797  0.3793 -0.2806
15533TIP3    H168090   2.802   6.733  16.412  0.2049  0.5377 -0.2542
15533TIP3    H268091   2.821   6.792  16.274  1.7348 -0.9825 -0.7258
15534TIP3   OH268092   5.647   4.093   0.774  0.1237 -0.7246  0.2084
15534TIP3    H168093   5.587   4.050   0.713 -1.2938  0.7429  0.5041
15534TIP3    H268094   5.592   4.118   0.848  1.4103 -0.6451  1.1625
15535TIP3   OH268095   6.051   2.208   2.472  0.2882  0.1379  0.2573
15535TIP3    H168096   5.977   2.175   2.523 -0.0874  1.3222  0.5292
15535TIP3    H268097   6.055   2.302   2.494  1.7190  0.1502  0.0641
15536TIP3   OH268098   1.396   1.847  14.741  0.0802  0.1118 -0.5763
15536TIP3    H168099   1.302   1.830  14.754 -0.1658  0.6573 -1.5278
15536TIP3    H268100   1.403   1.869  14.649  1.1196  0.3381 -0.4486
15537TIP3   OH268101   5.638   4.752   5.863 -0.5077 -0.0826  0.2730
15537TIP3    H168102   5.592   4.732   5.945 -0.1864 -1.3501  0.1657
15537TIP3    H268103   5.704   4.684   5.856  0.2104  0.6801 -0.4881
15538TIP3   OH268104   6.748   3.576  12.437  0.4016 -0.5805  0.1536
15538TIP3    H168105   6.756   3.493  12.483 -1.9251 -0.2599  1.2820
15538TIP3    H268106   6.660   3.574  12.399  0.8379  0.7891 -1.0227
15539TIP3   OH268107   6.293   0.759  14.720 -0.3482 -0.2249 -0.5772
15539TIP3    H168108   6.341   0.707  14.785 -1.5633  0.6679  1.0851
15539TIP3    H268109   6.348   0.754  14.641  2.0921  0.0891  0.9908
15540TIP3   OH268110   2.567   1.335  15.552  0.3392  0.1402  0.0841
15540TIP3    H168111   2.493   1.321  15.611  0.0080  1.8318  0.1033
15540TIP3    H268112   2.542   1.291  15.471  0.0959 -0.8130  0.6601
15541TIP3   OH268113   6.170   3.878   3.286  0.6842 -0.0586 -0.1829
15541TIP3    H168114   6.233   3.949   3.291 -0.3439  0.8267  0.9117
15541TIP3    H268115   6.223   3.798   3.287  1.7768  0.6425  1.0491
15542TIP3   OH268116   6.730   5.469   6.345 -0.3478 -0.0497  0.7789
15542TIP3    H168117   6.805   5.528   6.355  1.1781 -1.9346  1.0647
15542TIP3    H268118   6.769   5.382   6.339 -2.5326 -1.0901  0.7877
15543TIP3   OH268119   6.815   0.847  15.713  0.3268 -0.5242  0.5074
15543TIP3    H168120   6.865   0.783  15.763  0.7449  0.6367  1.6520
15543TIP3    H268121   6.851   0.932  15.741 -0.3055  0.2156 -0.8368
15544TIP3   OH268122   6.573   4.447  12.388 -0.9114 -0.4294  0.1067
15544TIP3    H168123   6.666   4.469  12.389 -1.0114  0.0838  2.0129
15544TIP3    H268124   6.538   4.494  12.313  0.4655 -1.1618 -1.0338
15545TIP3   OH268125   1.758   0.943  11.945 -0.3538  0.0534  0.1721
15545TIP3    H168126   1.685   0.980  11.895  1.2267  0.4702 -1.9609
15545TIP3    H268127   1.782   0.864  11.898 -0.1015 -0.6843  1.4934
15546TIP3   OH268128   6.077   4.180  10.584 -0.1750 -0.5111  0.4382
15546TIP3    H168129   6.056   4.176  10.677  1.0530 -2.0407  0.6892
15546TIP3    H268130   6.172   4.173  10.580  0.1594  2.9833 -0.8127
15547TIP3   OH268131   2.481   6.292  11.226  0.0029  0.0602 -0.2786
15547TIP3    H168132   2.421   6.361  11.196 -0.6700 -1.1376 -1.8123
15547TIP3    H268133   2.458   6.216  11.173  2.1658 -0.7613 -0.1252
15548TIP3   OH268134   4.740   0.517  12.699 -0.0850 -0.2877  0.0131
15548TIP3    H168135   4.743   0.422  12.687 -1.2595 -0.1742 -1.4767
15548TIP3    H268136   4.661   0.532  12.752  0.6289 -0.1924  1.0726
15549TIP3   OH268137   2.619   0.290  16.343 -0.0651 -0.2884 -0.2612
15549TIP3    H168138   2.607   0.344  16.422 -0.4844 -0.8788  0.0919
15549TIP3    H268139   2.709   0.260  16.348  1.0183  2.3442 -1.7399
15550TIP3   OH268140   6.519   2.452  15.143 -0.2373  0.4849 -0.1016
15550TIP3    H168141   6.595   2.446  15.201 -0.9958  4.1706  1.6048
15550TIP3    H268142   6.444   2.437  15.201 -0.9759  3.3282 -0.1805
15551TIP3   OH268143   0.418   6.834  14.080 -0.1099  0.6730 -0.3115
15551TIP3    H168144   0.397   6.865  13.992  0.6879  0.5905 -0.5345
15551TIP3    H268145   0.501   6.788  14.071 -0.6353 -0.4347  0.2521
15552TIP3   OH268146   2.120   2.683  16.850  0.6513 -0.3625 -0.3672
15552TIP3    H168147   2.091   2.774  16.851  2.6067  0.3019  1.1226
15552TIP3    H268148   2.166   2.674  16.766  0.5946  0.0698 -0.4477
15553TIP3   OH268149   3.934   6.775  11.454 -0.6127 -0.5171  0.4722
15553TIP3    H168150   3.877   6.836  11.502  0.1182  0.6301 -0.0731
15553TIP3    H268151   3.873   6.717  11.407 -1.3242 -0.6409  1.5172
15554TIP3   OH268152   3.962   5.592   0.978  0.6887 -0.0794 -0.2651
15554TIP3    H168153   4.024   5.537   0.930  0.9113  0.6568 -0.8379
15554TIP3    H268154   3.937   5.660   0.915  0.6375  0.6364  0.5213
15555TIP3   OH268155   4.272   5.013  15.394 -0.1604 -0.1124 -0.7068
15555TIP3    H168156   4.240   4.934  15.438  0.7167  0.9244  2.0601
15555TIP3    H268157   4.357   4.988  15.358 -1.0587 -1.0950 -2.2086
15556TIP3   OH268158   5.342   5.602  13.120  0.2273  0.2966  0.6572
15556TIP3    H168159   5.396   5.602  13.041 -0.5840 -0.1885  0.0841
15556TIP3    H268160   5.323   5.509  13.136 -1.3082  0.5169  0.2305
15557TIP3   OH268161   0.760   4.228   4.553  0.2777 -0.2241 -0.5059
15557TIP3    H168162   0.769   4.317   4.587 -1.5523  0.1601 -0.9466
15557TIP3    H268163   0.750   4.173   4.631  1.4310 -0.0818 -0.2340
15558TIP3   OH268164   0.624   0.198  10.904 -0.2149  0.4241 -0.7262
15558TIP3    H168165   0.554   0.227  10.845 -0.7037  0.2452 -0.2398
15558TIP3    H268166   0.639   0.273  10.961 -2.2353 -0.5895  1.2455
15559TIP3   OH268167   5.392   4.272  12.814 -0.0632 -0.4290  0.2502
15559TIP3    H168168   5.390   4.194  12.760 -1.1047 -0.9235  0.9549
15559TIP3    H268169   5.471   4.264  12.867 -1.4831 -2.4587  2.2902
15560TIP3   OH268170   5.509   2.374   3.780 -0.1135  0.5274  0.4846
15560TIP3    H168171   5.587   2.344   3.732  1.0063  2.4368  0.9953
15560TIP3    H268172   5.465   2.433   3.720 -1.0706 -0.3615  0.2902
15561TIP3   OH268173   0.965   2.559  11.346  0.5002  0.1712  0.3194
15561TIP3    H168174   0.884   2.516  11.371 -0.0058  0.6835 -0.4190
15561TIP3    H268175   0.990   2.518  11.263  1.6120 -0.7814  1.0896
15562TIP3   OH268176   1.095   0.605   5.403 -0.2565 -0.4278  0.4470
15562TIP3    H168177   1.122   0.543   5.471 -0.3096 -1.5395 -0.5077
15562TIP3    H268178   1.173   0.616   5.349  0.0422  1.1248  1.1585
15563TIP3   OH268179   0.393   5.539  14.536  0.3533 -0.3207  0.3079
15563TIP3    H168180   0.372   5.454  14.576  0.5019  0.1048  1.3328
15563TIP3    H268181   0.361   5.532  14.446 -0.3825 -1.1709  0.6183
15564TIP3   OH268182   4.680   2.974   2.691 -0.4201 -0.6203  0.6752
15564TIP3    H168183   4.726   2.901   2.732 -1.8240 -1.3250  1.0880
15564TIP3    H268184   4.658   2.943   2.604  2.2282  0.7408 -0.5905
15565TIP3   OH268185   6.245   6.798  16.753  0.0841 -0.1329 -0.9021
15565TIP3    H168186   6.246   6.763  16.664 -0.8278  0.7378 -1.2678
15565TIP3    H268187   6.169   6.757  16.794 -0.7573  1.0673 -1.2099
15566TIP3   OH268188   1.158   1.250   3.083 -0.1637 -0.0682 -0.4503
15566TIP3    H168189   1.117   1.321   3.132  0.6745  1.1010 -1.3972
15566TIP3    H268190   1.151   1.277   2.992  1.0229 -0.7464 -0.7591
15567TIP3   OH268191   0.510   0.919   3.457  1.3159 -0.0638 -1.1205
15567TIP3    H168192   0.555   0.873   3.528  1.1052  1.8220  0.3028
15567TIP3    H268193   0.533   0.869   3.378  2.8240 -1.3304  0.0510
15568TIP3   OH268194   2.376   0.842   1.196  0.2350 -0.1228 -0.4172
15568TIP3    H168195   2.294   0.817   1.238  0.5616 -0.8776 -0.2135
15568TIP3    H268196   2.350   0.905   1.129 -0.3705  0.5941  0.4592
15569TIP3   OH268197   4.087   1.526  16.256 -0.0775 -0.0278 -0.1346
15569TIP3    H168198   4.080   1.450  16.314 -0.4653  0.2450  0.1849
15569TIP3    H268199   4.089   1.601  16.316 -2.1028  0.3822 -0.4849
15570TIP3   OH268200   0.802   1.895  12.898  0.1914 -0.4400 -0.1091
15570TIP3    H168201   0.718   1.853  12.879 -0.4677 -0.1408  1.9736
15570TIP3    H268202   0.780   1.982  12.930  1.4841  0.9815 -2.7021
15571TIP3   OH268203   6.694   3.639   2.734 -0.2098  0.6260  0.0295
15571TIP3    H168204   6.623   3.583   2.704 -0.5455 -0.1915  2.1435
15571TIP3    H268205   6.661   3.728   2.720 -2.7734  0.3313  2.9998
15572TIP3   OH268206   1.455   1.385   4.278  0.3949 -0.1299  0.3016
15572TIP3    H168207   1.459   1.463   4.334 -3.9664  0.4950  0.0716
15572TIP3    H268208   1.497   1.412   4.196  0.3367  1.4860  0.7627
15573TIP3   OH268209   6.578   5.289  15.766  0.3271  0.0554 -0.3923
15573TIP3    H168210   6.539   5.214  15.720  0.5783 -0.1197 -0.3213
15573TIP3    H268211   6.530   5.365  15.733 -1.0054 -0.2790  0.6796
15574TIP3   OH268212   2.095   3.779   1.761 -0.1589  0.1897 -0.4267
15574TIP3    H168213   2.148   3.726   1.701 -2.1641  0.7063 -2.7851
15574TIP3    H268214   2.098   3.867   1.725 -1.1079  0.6165  0.4756
15575TIP3   OH268215   0.457   0.559   1.773 -0.5124 -0.1886 -0.5351
15575TIP3    H168216   0.406   0.615   1.714 -1.5817  0.9284  1.3214
15575TIP3    H268217   0.410   0.476   1.774 -1.5586  0.3756  0.0619
15576TIP3   OH268218   1.588   3.882  15.866 -0.2450  0.6054  0.2436
15576TIP3    H168219   1.544   3.873  15.782 -1.1160  0.3114  0.7147
15576TIP3    H268220   1.537   3.948  15.913  0.8397  1.5222  0.1656
15577TIP3   OH268221   0.589   5.920   3.057 -0.7360 -0.0876 -0.5239
15577TIP3    H168222   0.617   5.937   3.147 -0.2598  1.0747 -0.8743
15577TIP3    H268223   0.671   5.909   3.009 -0.9656  0.1787 -0.9780
15578TIP3   OH268224   5.547   1.850  16.339 -0.0715 -0.2729 -0.0095
15578TIP3    H168225   5.456   1.878  16.340  0.1790  0.6978 -1.7748
15578TIP3    H268226   5.569   1.839  16.432 -1.8102 -0.0178  0.4722
15579TIP3   OH268227   4.163   0.081  12.143  0.0898 -0.0603  0.3880
15579TIP3    H168228   4.196   0.134  12.216  0.8542 -0.8038  0.6040
15579TIP3    H268229   4.094   0.028  12.182 -0.7623  0.8435  0.1447
15580TIP3   OH268230   0.032   1.105   3.113  0.4756  0.0964 -0.5011
15580TIP3    H168231  -0.047   1.052   3.122 -0.5411  1.6381  0.0648
15580TIP3    H268232   0.104   1.042   3.116 -0.7202 -1.3427 -1.0399
15581TIP3   OH268233   6.085   5.421   2.567  0.4072  0.1676 -0.7270
15581TIP3    H168234   6.134   5.360   2.622 -0.3865  1.9162  2.1776
15581TIP3    H268235   6.138   5.431   2.488  1.0744 -3.3261 -0.8625
15582TIP3   OH268236   4.228   2.289   6.591  0.9500  0.4482 -0.2154
15582TIP3    H168237   4.200   2.375   6.620  2.6914  0.3893  1.9190
15582TIP3    H268238   4.194   2.229   6.656  0.4000 -0.4103 -1.2667
15583TIP3   OH268239   5.186   1.369   2.191  0.0677  0.0919 -0.2126
15583TIP3    H168240   5.137   1.295   2.154  2.1787 -2.6539  2.0734
15583TIP3    H268241   5.245   1.397   2.121 -1.7934  0.7386 -1.6078
15584TIP3   OH268242   1.496   3.476   6.204 -0.0085  0.3998  0.2199
15584TIP3    H168243   1.517   3.386   6.227 -0.1925 -0.3961 -2.4014
15584TIP3    H268244   1.580   3.522   6.212  0.3914 -0.3155  0.2528
15585TIP3   OH268245   4.678   2.757  13.706  0.3894  0.0199 -0.2113
15585TIP3    H168246   4.673   2.674  13.658  3.0881  0.5102 -1.5206
15585TIP3    H268247   4.667   2.824  13.639 -0.4698  0.7404  0.6305
15586TIP3   OH268248   6.422   2.315  15.775 -0.4070 -0.3923 -0.4374
15586TIP3    H168249   6.381   2.320  15.861 -1.9952 -2.5577 -0.9695
15586TIP3    H268250   6.509   2.279  15.792  0.6746  2.4433  0.5222
15587TIP3   OH268251   1.943   0.058  14.592 -0.0025 -0.4840 -0.1978
15587TIP3    H168252   2.009  -0.007  14.615 -1.4301 -2.0284 -0.2604
15587TIP3    H268253   1.941   0.117  14.668  1.6341 -0.1975 -0.3392
15588TIP3   OH268254   2.228   0.285  10.239 -0.6104  0.4448 -0.9305
15588TIP3    H168255   2.301   0.230  10.211 -0.9976 -1.6679  1.8242
15588TIP3    H268256   2.270   0.366  10.269  0.6865 -0.7456  0.6576
15589TIP3   OH268257   4.273   1.488   5.492 -0.5978 -0.0354  0.4250
15589TIP3    H168258   4.357   1.444   5.508 -0.5545 -0.3398 -0.6208
15589TIP3    H268259   4.207   1.421   5.510 -0.6206  0.1185  0.9530
15590TIP3   OH268260   4.471   2.180  17.019  0.2160  0.1219 -1.0407
15590TIP3    H168261   4.504   2.090  17.023  1.2926  0.5440  0.1608
15590TIP3    H268262   4.379   2.170  16.994  0.2575 -1.3228 -0.7279
15591TIP3   OH268263   1.859   6.483   0.674 -0.3231 -0.0344  0.6617
15591TIP3    H168264   1.866   6.403   0.726  0.6052  0.1027  0.7499
15591TIP3    H268265   1.776   6.523   0.703  0.4901  0.3985  2.5528
15592TIP3   OH268266   0.966   1.837   5.070 -0.1806 -0.5452  0.3310
15592TIP3    H168267   0.897   1.843   5.135 -0.0333  0.7397  0.4017
15592TIP3    H268268   1.015   1.919   5.080  0.6496 -0.9251 -0.4919
15593TIP3   OH268269   1.685   1.556  15.784  0.3966 -0.1980 -0.1756
15593TIP3    H168270   1.740   1.560  15.706  0.4270 -1.1911 -0.2111
15593TIP3    H268271   1.649   1.468  15.784  0.2987 -0.1710  0.8625
15594TIP3   OH268272   5.817   5.115  12.927  0.0072 -0.0909  0.6167
15594TIP3    H168273   5.880   5.054  12.965  0.5391  0.8930  1.3707
15594TIP3    H268274   5.871   5.189  12.897 -0.8587  1.2904  2.3197
15595TIP3   OH268275   5.348   0.496   5.983  0.2523  0.4402  0.1147
15595TIP3    H168276   5.388   0.487   5.896 -0.2046  0.0948 -0.0599
15595TIP3    H268277   5.256   0.512   5.965 -0.3162 -1.9727  0.5552
15596TIP3   OH268278   2.528   6.144  15.424  0.4384 -0.4700 -0.2615
15596TIP3    H168279   2.506   6.209  15.491 -0.0489 -1.0347  0.1291
15596TIP3    H268280   2.610   6.105  15.455  0.2911 -0.6263 -0.0670
15597TIP3   OH268281   3.921   6.524   3.612 -0.4781 -0.0537  0.2274
15597TIP3    H168282   3.968   6.599   3.649 -0.8797  0.5147 -0.3807
15597TIP3    H268283   3.981   6.489   3.546 -0.2045 -0.3944  0.6601
15598TIP3   OH268284   5.778   2.022   3.693  0.5566 -0.6120  0.2327
15598TIP3    H168285   5.873   2.017   3.699  0.6384  1.5011  1.5238
15598TIP3    H268286   5.746   1.995   3.779  0.1963  1.4934  0.8238
15599TIP3   OH268287   3.121   5.960  16.768 -0.0074 -0.3276 -0.2130
15599TIP3    H168288   3.168   5.991  16.690 -1.6604  1.1376 -0.6894
15599TIP3    H268289   3.096   6.040  16.814  0.5637 -1.1662  1.6337
15600TIP3   OH268290   6.166   4.229   3.730 -0.4182  0.2953 -0.1338
15600TIP3    H168291   6.122   4.222   3.645 -0.7537 -0.0361  0.0695
15600TIP3    H268292   6.141   4.150   3.777 -0.2156  0.4706  0.2714
15601TIP3   OH268293   1.440   2.224  11.765 -0.2382  0.1932  0.3532
15601TIP3    H168294   1.532   2.205  11.748 -0.4905 -2.1684  1.2798
15601TIP3    H268295   1.396   2.199  11.683 -0.0373  1.9732 -0.3420
15602TIP3   OH268296   1.067   5.678  15.116 -0.3889  0.0925  0.6384
15602TIP3    H168297   1.048   5.683  15.210 -0.6847 -0.0312  0.5827
15602TIP3    H268298   1.035   5.592  15.089  0.6046 -0.2889  0.6289
15603TIP3   OH268299   6.084   3.500   5.173  0.1938 -0.2582  0.4608
15603TIP3    H168300   6.002   3.483   5.126  0.8049 -0.1381 -0.6839
15603TIP3    H268301   6.110   3.588   5.146 -0.5469  0.7496  2.7607
15604TIP3   OH268302   1.849   5.015  15.875  0.4497 -0.5424 -0.3249
15604TIP3    H168303   1.846   5.105  15.842  2.1557 -0.3155  0.0325
15604TIP3    H268304   1.792   4.966  15.816  0.1026  0.6397 -1.0016
15605TIP3   OH268305   3.326   4.332  14.030 -0.1413  0.1648 -0.2501
15605TIP3    H168306   3.398   4.359  14.087  0.1646 -1.7048  0.3136
15605TIP3    H268307   3.359   4.254  13.986 -2.7246 -2.4715  2.1252
15606TIP3   OH268308   5.527   1.416   4.025  0.6615  0.2253 -0.0852
15606TIP3    H168309   5.487   1.419   4.112  1.3282 -0.3183  0.2399
15606TIP3    H268310   5.621   1.424   4.041  0.7093  1.5219 -0.8465
15607TIP3   OH268311   5.193   0.788  11.356  0.4162  0.4125  0.4705
15607TIP3    H168312   5.277   0.754  11.386  0.8665  1.0984  0.0131
15607TIP3    H268313   5.128   0.724  11.388  1.1637 -0.4854  0.2196
15608TIP3   OH268314   3.760   3.821  15.749 -0.3299  0.0651  0.4981
15608TIP3    H168315   3.833   3.815  15.811 -0.7340  0.3346  1.0056
15608TIP3    H268316   3.693   3.870  15.795 -1.2720 -1.1199  0.4538
15609TIP3   OH268317   1.989   4.566   5.079  0.3094  0.1313  0.1173
15609TIP3    H168318   1.926   4.581   5.008 -0.8353 -3.4626  0.1211
15609TIP3    H268319   1.994   4.649   5.126 -0.0865  2.1969 -3.1942
15610TIP3   OH268320   1.795   0.612   3.382 -0.2714  0.1047  0.1166
15610TIP3    H168321   1.781   0.532   3.332  1.8044 -0.3887  0.2376
15610TIP3    H268322   1.709   0.632   3.419 -1.2228 -1.0812 -1.3117
15611TIP3   OH268323   2.949   6.279   2.211 -0.2585  0.1279  0.4100
15611TIP3    H168324   2.997   6.213   2.162  0.1555  1.0213 -0.4220
15611TIP3    H268325   2.967   6.260   2.302  0.2538 -0.5999  0.1599
15612TIP3   OH268326   1.916   4.310   1.842 -0.2588 -0.4358 -0.0036
15612TIP3    H168327   2.008   4.335   1.853  0.4624 -2.0408 -1.7851
15612TIP3    H268328   1.890   4.280   1.929  0.6075  0.8511  0.7420
15613TIP3   OH268329   2.275   5.030   3.920  0.4810  0.2319  0.1726
15613TIP3    H168330   2.368   5.050   3.922  0.5274 -0.0033  1.5528
15613TIP3    H268331   2.259   4.995   3.832  1.1776  2.5356 -0.9456
15614TIP3   OH268332   6.733   6.000   4.464 -0.3928 -0.2471 -0.3149
15614TIP3    H168333   6.700   5.932   4.523 -1.9715  0.9206  0.2272
15614TIP3    H268334   6.806   5.959   4.418  1.7298 -0.9244  3.2518
15615TIP3   OH268335   4.326   0.152   1.615 -0.2187  0.1124 -0.2529
15615TIP3    H168336   4.298   0.064   1.592  0.7771 -0.2360 -0.1714
15615TIP3    H268337   4.245   0.198   1.640 -0.7132 -0.8299 -0.1031
15616TIP3   OH268338   4.936   6.411  12.627  0.6164  1.0014  0.1777
15616TIP3    H168339   4.847   6.437  12.604  0.7700  0.9746 -0.4753
15616TIP3    H268340   4.941   6.423  12.722 -1.1742 -2.2362  0.8511
15617TIP3   OH268341   4.675   1.892  14.060 -0.0119  0.2145 -0.2148
15617TIP3    H168342   4.618   1.832  14.012 -0.5460  0.6432 -0.1342
15617TIP3    H268343   4.762   1.879  14.022 -0.4602  0.7145 -1.4668
15618TIP3   OH268344   4.932   0.203   4.108 -0.2881 -0.0779  0.4097
15618TIP3    H168345   4.975   0.259   4.043  1.0220 -0.6824  0.7332
15618TIP3    H268346   4.844   0.240   4.116  0.4250  1.7556  0.3959
15619TIP3   OH268347   2.996   1.569  15.683  0.2681 -0.5137  0.5666
15619TIP3    H168348   3.008   1.638  15.749  1.9379 -0.9491  0.7609
15619TIP3    H268349   2.903   1.547  15.689 -0.3158  1.6627  0.5257
15620TIP3   OH268350   6.256   4.654  15.073  0.0450  0.1501 -0.2452
15620TIP3    H168351   6.328   4.598  15.099 -1.3634 -1.0146  1.3667
15620TIP3    H268352   6.200   4.598  15.018 -1.5308 -0.2257  1.6283
15621TIP3   OH268353   4.882   4.121  15.623 -0.0219  0.0237 -0.9169
15621TIP3    H168354   4.934   4.198  15.648 -0.4959 -0.3649  1.5566
15621TIP3    H268355   4.791   4.151  15.627 -0.2654 -0.8294  0.9828
15622TIP3   OH268356   0.962   3.990   2.505  0.5089 -0.1080 -0.1212
15622TIP3    H168357   1.001   4.034   2.430 -1.2052  1.5179 -0.1195
15622TIP3    H268358   1.023   4.006   2.577  1.1373  0.0931 -0.6950
15623TIP3   OH268359   2.518   2.812   1.794 -0.0395  0.2105  0.4553
15623TIP3    H168360   2.600   2.784   1.835 -0.5314 -2.5112 -0.2016
15623TIP3    H268361   2.536   2.901   1.762  2.2061  0.1889  1.4685
15624TIP3   OH268362   5.633   4.075  11.656  0.2967  0.2493  0.0844
15624TIP3    H168363   5.696   4.064  11.585  0.2236  0.0260  0.0519
15624TIP3    H268364   5.663   4.153  11.703  2.3245 -1.4209  1.7969
15625TIP3   OH268365   1.458   4.474  14.884  0.1468 -0.2437  0.0417
15625TIP3    H168366   1.439   4.561  14.851  2.2262 -0.1486 -1.0400
15625TIP3    H268367   1.424   4.474  14.974 -2.8309  0.5214 -0.9790
15626TIP3   OH268368   3.350   6.754   3.177 -0.3232 -0.7414 -0.1563
15626TIP3    H168369   3.444   6.755   3.160  0.4234  0.1956  3.1883
15626TIP3    H268370   3.342   6.728   3.269 -3.3488 -0.7523 -0.3085
15627TIP3   OH268371   1.826   6.060  16.996  0.3920 -0.5726  0.3842
15627TIP3    H168372   1.850   6.149  16.971 -0.7052 -0.5894 -0.8455
15627TIP3    H268373   1.843   6.056  17.090 -1.7835  1.7404  0.9960
15628TIP3   OH268374   0.173   3.023  16.931 -0.1608 -0.0869 -0.5982
15628TIP3    H168375   0.257   3.067  16.944  1.2299 -3.0457  1.4631
15628TIP3    H268376   0.149   3.043  16.841  3.6064 -0.4420 -1.8442
15629TIP3   OH268377   5.082   5.647  12.642 -0.2941  0.3304 -0.3378
15629TIP3    H168378   5.024   5.687  12.707  0.2459  0.6354 -0.0360
15629TIP3    H268379   5.024   5.594  12.587 -0.7334 -0.1039  0.5275
15630TIP3   OH268380   1.391   2.413   1.020 -0.1773  0.1868  0.4642
15630TIP3    H168381   1.365   2.322   1.000  0.7908 -0.3684  1.6236
15630TIP3    H268382   1.468   2.428   0.966 -0.1075  0.1845  0.5636
15631TIP3   OH268383   0.243   6.011  14.580  0.1640 -0.4252  0.3334
15631TIP3    H168384   0.165   6.035  14.631  0.4942  1.6121 -0.0203
15631TIP3    H268385   0.228   6.050  14.494  0.5906 -1.9654 -0.4745
15632TIP3   OH268386   0.565   0.290   5.102  0.3626 -0.3515 -0.2763
15632TIP3    H168387   0.631   0.272   5.169  1.2326  0.1979 -0.9687
15632TIP3    H268388   0.612   0.339   5.034 -0.6620 -0.3028 -0.9725
15633TIP3   OH268389   2.845   1.063   5.372 -0.7472 -0.0081  0.3675
15633TIP3    H168390   2.896   1.007   5.431 -0.8513  0.1273  0.5859
15633TIP3    H268391   2.857   1.151   5.406  0.6392  0.3146 -0.8497
15634TIP3   OH268392   1.206   0.310   2.465 -0.3768  0.8366  0.6740
15634TIP3    H168393   1.183   0.368   2.538  1.2465  2.8553 -0.3282
15634TIP3    H268394   1.158   0.345   2.390 -0.5675 -0.0745  0.3588
15635TIP3   OH268395   2.307   1.632  13.037 -0.0816  0.4925  0.5211
15635TIP3    H168396   2.286   1.540  13.054  1.7841 -0.1727 -0.4862
15635TIP3    H268397   2.271   1.679  13.112 -2.5094 -0.8299  0.2742
15636TIP3   OH268398   3.942   0.230   1.027 -0.0944 -0.4148  0.0048
15636TIP3    H168399   3.852   0.217   0.999 -0.3066  1.5022 -0.3409
15636TIP3    H268400   3.951   0.176   1.105 -1.2937 -1.2157 -0.3782
15637TIP3   OH268401   4.697   0.065   4.807 -0.0097 -0.1961 -0.0249
15637TIP3    H168402   4.707   0.051   4.901 -1.2570 -2.9318 -0.2038
15637TIP3    H268403   4.747  -0.007   4.767 -1.0202 -0.1834 -1.3813
15638TIP3   OH268404   5.056   0.476   3.766  0.4850  0.0656  0.0782
15638TIP3    H168405   5.018   0.480   3.678  1.9480  2.2773 -0.5138
15638TIP3    H268406   5.022   0.554   3.810 -0.0549 -0.8989  1.4519
15639TIP3   OH268407   6.560   2.221   3.187  0.3247 -0.3781 -0.0821
15639TIP3    H168408   6.541   2.304   3.144  2.6759  0.9367  1.1995
15639TIP3    H268409   6.581   2.161   3.115  2.5314  1.2965 -0.9484
15640TIP3   OH268410   1.419   2.494   1.870  0.1128 -0.7314  0.2923
15640TIP3    H168411   1.468   2.572   1.893  1.6115 -1.7910  0.8113
15640TIP3    H268412   1.350   2.526   1.812 -0.9550  1.3531  2.5242
15641TIP3   OH268413   0.334   2.457  13.417 -0.1664 -0.7164  0.5391
15641TIP3    H168414   0.399   2.527  13.419  0.8273 -1.6201  1.0042
15641TIP3    H268415   0.309   2.449  13.325 -1.2178  1.0470  0.6290
15642TIP3   OH268416   3.914   2.194  12.819  0.5549 -0.2315 -0.8398
15642TIP3    H168417   3.953   2.278  12.798  2.6642 -0.8276  0.4173
15642TIP3    H268418   3.914   2.146  12.736  2.3307 -0.1094 -0.9501
15643TIP3   OH268419   2.906   5.807  13.724 -0.0204 -0.7178  0.3447
15643TIP3    H168420   2.983   5.861  13.743 -0.3800 -0.4033  0.9352
15643TIP3    H268421   2.859   5.856  13.656  0.3076 -0.9205 -0.0313
15644TIP3   OH268422   5.473   4.092  16.276 -0.2231 -0.3899 -0.3777
15644TIP3    H168423   5.428   4.010  16.257  1.1454 -1.0349 -1.0031
15644TIP3    H268424   5.488   4.089  16.371  0.7366 -1.3889 -0.5371
15645TIP3   OH268425   2.500   0.520   3.652  0.1147  0.1943 -0.4758
15645TIP3    H168426   2.539   0.434   3.639 -0.2961  0.1031 -1.1347
15645TIP3    H268427   2.430   0.505   3.715 -0.3043 -0.0583 -0.9955
15646TIP3   OH268428   4.939   5.975  12.104 -0.0552  0.1390  0.1111
15646TIP3    H168429   4.985   5.965  12.187 -1.4059 -1.5321  0.7156
15646TIP3    H268430   4.863   6.030  12.124  0.3418  0.8561 -0.3265
15647TIP3   OH268431   5.809   4.284  11.713 -0.3052 -0.8294 -0.1151
15647TIP3    H168432   5.881   4.249  11.765 -1.1430 -0.9348  1.0184
15647TIP3    H268433   5.836   4.373  11.690 -0.2785 -0.4314  1.3175
15648TIP3   OH268434   2.281   2.603   6.169  0.1887  0.3182  0.0564
15648TIP3    H168435   2.204   2.659   6.180  0.9014  1.4458 -0.5061
15648TIP3    H268436   2.352   2.652   6.211  0.9548  0.1280 -0.9892
15649TIP3   OH268437   3.204   5.763   0.501  1.0363  0.2118  0.6617
15649TIP3    H168438   3.290   5.779   0.462  0.7872  2.0870  0.7850
15649TIP3    H268439   3.142   5.778   0.429  0.7232  0.6791  1.0280
15650TIP3   OH268440   5.562   1.107   0.526  0.7320 -0.1021 -0.0184
15650TIP3    H168441   5.533   1.029   0.573  2.0366 -1.4289 -1.3099
15650TIP3    H268442   5.650   1.125   0.560  1.5366 -0.8461 -1.5583
15651TIP3   OH268443   4.333   4.486  16.381 -0.5342 -0.4148 -0.0190
15651TIP3    H168444   4.287   4.501  16.298  1.1464 -1.5044 -1.2074
15651TIP3    H268445   4.281   4.420  16.425 -0.8917 -0.5872 -0.6847
15652TIP3   OH268446   4.786   4.463   2.405  0.1450 -0.3949  0.6185
15652TIP3    H168447   4.754   4.419   2.327  0.5301 -1.4296  1.0275
15652TIP3    H268448   4.747   4.550   2.401 -0.1592 -0.5661 -0.5148
15653TIP3   OH268449   5.755   2.224  14.872  0.5003  0.3514 -0.0066
15653TIP3    H168450   5.776   2.313  14.901 -1.3789  0.4857  1.0554
15653TIP3    H268451   5.731   2.177  14.952 -2.1323 -0.0449 -0.9248
15654TIP3   OH268452   5.258   6.339   2.528 -0.0143 -0.1163  0.4647
15654TIP3    H168453   5.208   6.420   2.524  2.7845  1.9587  3.1531
15654TIP3    H268454   5.248   6.309   2.618 -0.0078 -2.1731 -0.1632
15655TIP3   OH268455   4.058   2.257   3.490  0.7801  0.1078 -0.5928
15655TIP3    H168456   4.034   2.272   3.581  1.1580  1.0481 -0.6370
15655TIP3    H268457   4.015   2.175   3.467  0.4865 -0.0137  0.3583
15656TIP3   OH268458   3.661   0.679  15.392  0.5268 -0.4021  0.0213
15656TIP3    H168459   3.628   0.713  15.309 -0.7501 -0.2836  0.5493
15656TIP3    H268460   3.666   0.756  15.449 -3.7857 -1.0365  1.6961
15657TIP3   OH268461   1.688   1.734  10.584  0.9493 -0.3788  0.1920
15657TIP3    H168462   1.674   1.640  10.587  1.2323 -0.4387 -0.3434
15657TIP3    H268463   1.730   1.754  10.668  2.1660 -0.9543 -0.2486
15658TIP3   OH268464   6.410   3.196   0.696  0.1579  0.6141  0.4192
15658TIP3    H168465   6.443   3.119   0.649  0.6826  1.5174 -0.7627
15658TIP3    H268466   6.392   3.260   0.626 -2.8722  0.6422  1.1039
15659TIP3   OH268467   2.549   6.623   2.781 -0.4575  0.0297 -0.3544
15659TIP3    H168468   2.631   6.671   2.790  0.7554 -2.1142  0.8283
15659TIP3    H268469   2.512   6.621   2.870 -1.2760  0.0803 -0.6809
15660TIP3   OH268470   0.713   4.165   2.097 -0.3794 -0.0641 -0.0531
15660TIP3    H168471   0.733   4.258   2.092  0.0588 -0.0692  1.2546
15660TIP3    H268472   0.618   4.162   2.111 -0.6686  0.0993 -1.6899
15661TIP3   OH268473   0.382   3.233   5.084  0.2249 -0.0197  0.4883
15661TIP3    H168474   0.424   3.193   5.161  1.2174 -0.7189 -0.3886
15661TIP3    H268475   0.449   3.291   5.048  0.7089 -1.5967 -1.2758
15662TIP3   OH268476   4.295   6.848  10.705 -0.2940 -0.4163 -0.5463
15662TIP3    H168477   4.264   6.760  10.683 -1.2007 -0.5649  1.1684
15662TIP3    H268478   4.221   6.905  10.685 -0.4159 -0.3095  0.1919
15663TIP3   OH268479   1.125   3.351   4.569 -0.5943  0.5561  0.8958
15663TIP3    H168480   1.217   3.377   4.579 -0.9685  2.0964  0.6081
15663TIP3    H268481   1.121   3.310   4.482 -0.1096  0.1670  1.0557
15664TIP3   OH268482   3.406   1.174   0.062 -0.5164  0.1565  0.0727
15664TIP3    H168483   3.372   1.235  -0.003 -0.8673  0.0424  0.1461
15664TIP3    H268484   3.328   1.131   0.098 -0.2185 -1.4778 -1.0845
15665TIP3   OH268485   0.548   4.852  13.142 -0.5501  0.2539  0.8361
15665TIP3    H168486   0.489   4.873  13.215  0.8787 -1.3165  2.5557
15665TIP3    H268487   0.597   4.933  13.126 -1.7016  0.9663  0.7540
15666TIP3   OH268488   6.215   0.919  10.484 -0.0867 -0.1626 -0.9306
15666TIP3    H168489   6.233   0.982  10.554  2.2414 -2.1119  0.3878
15666TIP3    H268490   6.120   0.923  10.472 -0.2029  2.3356  0.2547
15667TIP3   OH268491   0.540   3.036  12.650  0.2284 -0.1739 -0.4318
15667TIP3    H168492   0.528   2.942  12.664 -1.3845  0.1563  0.7043
15667TIP3    H268493   0.553   3.071  12.739 -0.4757  0.8253 -0.7090
15668TIP3   OH268494   6.470   3.788  11.986 -0.3520 -0.5811  0.1894
15668TIP3    H168495   6.533   3.852  11.952 -1.1331  0.0743 -0.0524
15668TIP3    H268496   6.525   3.722  12.029  0.4529  0.6767  1.1930
15669TIP3   OH268497   2.663   3.936  16.539  0.1014 -0.0267 -0.0501
15669TIP3    H168498   2.680   3.847  16.508  1.5566 -1.0608  3.2773
15669TIP3    H268499   2.726   3.990  16.492 -0.0218 -0.9004 -1.2783
15670TIP3   OH268500   0.858   1.147   5.580 -0.0767 -0.0149 -0.3507
15670TIP3    H168501   0.830   1.238   5.591  0.9619  0.2797 -0.1006
15670TIP3    H268502   0.928   1.151   5.515  0.7221 -0.5008  0.4724
15671TIP3   OH268503   5.283   5.407  11.916  0.6293 -0.4110 -0.8919
15671TIP3    H168504   5.294   5.316  11.942  1.3154 -0.4780 -1.3870
15671TIP3    H268505   5.197   5.411  11.874  0.8046 -0.9345 -1.3075
15672TIP3   OH268506   3.634   5.698   0.216  0.1087 -0.2887  0.2308
15672TIP3    H168507   3.723   5.707   0.248 -0.1081  1.8759  0.4025
15672TIP3    H268508   3.641   5.712   0.121 -0.0093 -0.4870  0.1917
15673TIP3   OH268509   2.747   1.712  15.075  0.3305 -0.2497 -0.0195
15673TIP3    H168510   2.831   1.715  15.121  0.1555  0.8132  0.2472
15673TIP3    H268511   2.682   1.722  15.145  0.0549  1.0851 -0.4528
15674TIP3   OH268512   4.768   4.766  13.311  0.4377  0.0952 -0.2153
15674TIP3    H168513   4.846   4.719  13.281  1.0762  0.3176  1.0173
15674TIP3    H268514   4.701   4.698  13.321  0.4464 -0.0956 -1.2867
15675TIP3   OH268515   3.722   6.626  11.623  0.0861  0.2342  0.1414
15675TIP3    H168516   3.649   6.617  11.684 -0.7820  1.1762 -0.7287
15675TIP3    H268517   3.700   6.702  11.569  2.2716  1.2930  0.6112
15676TIP3   OH268518   0.270   4.033  11.503  0.4627  0.2672 -0.3360
15676TIP3    H168519   0.234   4.120  11.485  0.9674  0.8065  1.1362
15676TIP3    H268520   0.364   4.041  11.486  0.2551 -0.5242 -2.0028
15677TIP3   OH268521   1.140   3.739   0.813  0.1715  0.3436 -0.0052
15677TIP3    H168522   1.075   3.715   0.879 -2.6758  0.5611 -2.4388
15677TIP3    H268523   1.167   3.828   0.837  0.1012 -0.0125  1.4747
15678TIP3   OH268524   2.557   3.480   6.171  0.0830 -0.0950 -0.1464
15678TIP3    H168525   2.596   3.433   6.245  1.3360  0.6274 -0.3277
15678TIP3    H268526   2.623   3.474   6.102 -0.7796 -0.1515 -0.9876
15679TIP3   OH268527   2.987   5.131   2.854 -0.6405  0.1846 -0.0345
15679TIP3    H168528   2.929   5.073   2.805  0.1051 -0.4740 -0.1795
15679TIP3    H268529   3.037   5.072   2.911  1.9324  0.2836 -1.9684
15680TIP3   OH268530   3.041   5.599   3.587  0.3027  0.4279 -0.0428
15680TIP3    H168531   3.066   5.551   3.666  1.4840 -1.2827 -1.3699
15680TIP3    H268532   3.116   5.656   3.569  1.0791 -0.8809 -1.1497
15681TIP3   OH268533   0.430   1.811  15.888  0.7325 -0.1818 -0.2716
15681TIP3    H168534   0.503   1.753  15.870  0.5296 -0.2831 -0.7971
15681TIP3    H268535   0.441   1.837  15.979  2.5522  1.3935 -0.8784
15682TIP3   OH268536   0.398   2.021   5.895  0.0585 -0.1728 -0.0777
15682TIP3    H168537   0.320   2.001   5.946 -1.6307  0.5865 -2.2349
15682TIP3    H268538   0.430   1.935   5.865 -0.6711 -0.4158 -0.1713
15683TIP3   OH268539   2.786   4.457   0.298 -0.3226  0.1507  0.4092
15683TIP3    H168540   2.819   4.376   0.338 -0.2550  1.3362  2.9933
15683TIP3    H268541   2.785   4.439   0.204  2.1299 -1.9481  0.6664
15684TIP3   OH268542   6.644   3.188  10.554 -0.2749 -0.0840  0.0388
15684TIP3    H168543   6.638   3.283  10.546  2.0138  0.2193  1.0548
15684TIP3    H268544   6.566   3.162  10.603 -0.2561  1.4494  0.9209
15685TIP3   OH268545   6.021   1.914   4.364  0.2228 -0.5412 -0.6933
15685TIP3    H168546   5.974   1.981   4.315  1.9724  0.9017 -0.5048
15685TIP3    H268547   6.073   1.962   4.428 -0.0936 -2.2283  0.9388
15686TIP3   OH268548   3.368   3.285   5.949  0.0380 -0.1321 -0.5337
15686TIP3    H168549   3.401   3.198   5.926  2.5523  0.7593 -0.5766
15686TIP3    H268550   3.332   3.274   6.038 -2.0243 -1.7127 -1.4790
15687TIP3   OH268551   0.130   1.375  12.718  0.0668 -0.2670  0.3576
15687TIP3    H168552   0.076   1.446  12.754 -2.7882 -1.9000 -0.3700
15687TIP3    H268553   0.178   1.341  12.793 -0.9251  0.4226  1.3289
15688TIP3   OH268554   2.775   3.809   3.752  0.5574 -0.3042  0.0561
15688TIP3    H168555   2.843   3.830   3.817  1.0236 -0.4367 -0.3799
15688TIP3    H268556   2.696   3.850   3.787  1.1243  0.9321 -0.0276
15689TIP3   OH268557   3.948   5.766   6.273  0.2050  0.1525 -0.5960
15689TIP3    H168558   3.875   5.768   6.335  0.5289  1.9347 -0.2134
15689TIP3    H268559   4.002   5.693   6.301 -0.6810 -0.2892  0.0046
15690TIP3   OH268560   1.941   0.966   4.016  0.3693 -0.3287 -0.0220
15690TIP3    H168561   1.846   0.974   4.007  0.1854 -0.7044  1.3114
15690TIP3    H268562   1.964   1.031   4.082  0.9827 -0.5144 -0.0492
15691TIP3   OH268563   2.594   6.532   5.836  0.2612  0.1395  0.4814
15691TIP3    H168564   2.575   6.465   5.902 -1.2517 -0.3780 -0.4349
15691TIP3    H268565   2.586   6.615   5.883 -1.3077 -0.1939  0.8662
15692TIP3   OH268566   3.607   6.510   2.441  0.1083 -0.3641  0.0841
15692TIP3    H168567   3.692   6.517   2.484  0.3439 -0.8941 -0.2820
15692TIP3    H268568   3.619   6.552   2.356  0.4101 -1.6423 -0.5278
15693TIP3   OH268569   6.141   5.797  12.462 -0.0992  0.3973  0.1768
15693TIP3    H168570   6.062   5.830  12.505 -0.8067 -0.3259 -0.5623
15693TIP3    H268571   6.119   5.709  12.433  2.2616 -1.5624  3.5722
15694TIP3   OH268572   5.406   2.330   4.171  0.0008  0.2031 -0.5601
15694TIP3    H168573   5.345   2.299   4.104 -0.4233 -1.1061  0.3855
15694TIP3    H268574   5.356   2.326   4.253  1.6999 -2.3640  0.4830
15695TIP3   OH268575   5.234   5.121  11.903  0.1767 -0.0766 -0.5621
15695TIP3    H168576   5.254   5.100  11.812  0.5651 -2.7387  0.0511
15695TIP3    H268577   5.192   5.042  11.937 -0.6165  1.1190  1.3853
15696TIP3   OH268578   3.891   2.283  11.044 -0.6720  0.3261 -0.6716
15696TIP3    H168579   3.967   2.328  11.083 -1.6413  0.6323  0.9598
15696TIP3    H268580   3.909   2.190  11.057 -0.8033  0.4126  0.2245
15697TIP3   OH268581   0.792   3.015   3.415 -0.0691  0.5495  1.1783
15697TIP3    H168582   0.827   2.933   3.379  0.5642  0.0038  2.9078
15697TIP3    H268583   0.855   3.040   3.483  0.0042  2.7625  0.3625
15698TIP3   OH268584   5.446   5.311   4.272 -0.1929  0.1382 -0.3872
15698TIP3    H168585   5.373   5.286   4.214 -1.6625  1.9227  0.5970
15698TIP3    H268586   5.430   5.403   4.292  1.9336  0.3542  0.5084
15699TIP3   OH268587   0.730   4.591   4.935  0.4671 -0.0126 -0.1060
15699TIP3    H168588   0.809   4.579   4.989 -0.3274 -1.2310  0.8535
15699TIP3    H268589   0.668   4.636   4.993  0.1769  0.1963 -0.5736
15700TIP3   OH268590   3.614   1.219   6.324 -0.2641  0.2113  0.0010
15700TIP3    H168591   3.579   1.225   6.413 -0.2587 -1.0705  0.1105
15700TIP3    H268592   3.708   1.230   6.334 -0.0463 -1.6771  0.4144
15701TIP3   OH268593   5.639   2.268   2.695 -0.1990  0.0201 -0.0087
15701TIP3    H168594   5.685   2.209   2.755 -0.6269 -0.3295 -0.0156
15701TIP3    H268595   5.555   2.224   2.678 -0.6682  0.7935  0.2488
15702TIP3   OH268596   4.188   2.235   6.177  0.4772 -0.4585  0.1144
15702TIP3    H168597   4.223   2.312   6.134 -0.3705 -0.1324 -0.0159
15702TIP3    H268598   4.243   2.223   6.254 -0.1945  1.0842  0.8798
15703TIP3   OH268599   6.609   2.794   4.066 -0.1308 -0.1101 -0.4095
15703TIP3    H168600   6.551   2.870   4.066 -0.0094  0.0024  0.9247
15703TIP3    H268601   6.659   2.801   4.147 -1.5770 -2.6975  0.8502
15704TIP3   OH268602   3.126   3.286   3.622 -0.3201  0.1338 -0.1493
15704TIP3    H168603   3.139   3.195   3.649  1.2072  0.0808 -0.9541
15704TIP3    H268604   3.059   3.319   3.682 -1.3302 -1.6748 -0.2223
15705TIP3   OH268605   4.768   5.954   0.145  0.6624  0.5857 -0.3310
15705TIP3    H168606   4.742   5.981   0.057  0.4818  0.4958 -0.3062
15705TIP3    H268607   4.800   6.034   0.187  3.2031  0.1986 -1.3284
15706TIP3   OH268608   5.650   3.029  13.057  0.4067 -0.1174  0.2078
15706TIP3    H168609   5.642   3.123  13.044 -1.3923 -0.0695  1.3675
15706TIP3    H268610   5.685   3.021  13.146 -2.2364 -0.4965  1.3088
15707TIP3   OH268611   0.059   3.729   6.608  0.2787 -0.3527  0.5677
15707TIP3    H168612  -0.012   3.741   6.671 -1.4541  1.6457 -1.5655
15707TIP3    H268613   0.128   3.788   6.637  0.7796 -1.6357  2.1496
15708TIP3   OH268614   4.561   1.090   5.477  0.8084 -0.0780 -0.2033
15708TIP3    H168615   4.562   1.168   5.421 -1.0864 -0.5365 -0.9349
15708TIP3    H268616   4.612   1.025   5.429  1.5713  0.3990 -0.0508
15709TIP3   OH268617   2.939   5.817  13.301  0.1717  0.0062 -0.3269
15709TIP3    H168618   2.985   5.737  13.278  0.3452 -0.2530  0.8644
15709TIP3    H268619   3.008   5.879  13.324 -0.0215 -0.2598  1.0792
15710TIP3   OH268620   4.678   3.333   3.512  0.6427 -0.2872 -0.3374
15710TIP3    H168621   4.763   3.313   3.472  0.0199  0.1851 -1.9504
15710TIP3    H268622   4.656   3.421   3.480 -0.2368 -0.2104  0.4426
15711TIP3   OH268623   5.625   3.952   6.527  0.0017  0.0024  0.0663
15711TIP3    H168624   5.604   4.045   6.528 -0.1208 -0.0163 -0.3472
15711TIP3    H268625   5.547   3.910   6.492  0.6533 -0.0828 -1.3593
15712TIP3   OH268626   4.422   6.002   5.863 -0.2481  0.6515 -0.2817
15712TIP3    H168627   4.507   6.018   5.903 -0.7984  1.6557  0.5294
15712TIP3    H268628   4.412   5.907   5.867 -0.3865  0.6873  2.2899
15713TIP3   OH268629   6.518   0.411  13.055 -0.2068 -0.2404  0.3194
15713TIP3    H168630   6.530   0.502  13.027 -0.2604 -0.9543 -2.3358
15713TIP3    H268631   6.531   0.413  13.150 -0.4282  2.5497  0.3855
15714TIP3   OH268632   4.103   4.188  12.156 -0.2178  1.0054  0.4354
15714TIP3    H168633   4.134   4.227  12.238 -0.0580 -0.2956  1.0230
15714TIP3    H268634   4.182   4.179  12.103 -0.1296  0.7759  0.6043
15715TIP3   OH268635   0.694   5.155   1.203  0.2542  0.5492  0.1527
15715TIP3    H168636   0.708   5.224   1.138 -0.8658  0.0003 -0.7030
15715TIP3    H268637   0.638   5.091   1.158  0.9492 -0.7276  1.0588
15716TIP3   OH268638   4.794   1.506  11.833  0.1128  0.5945 -0.2142
15716TIP3    H168639   4.717   1.452  11.818  0.8288 -0.0464 -1.9065
15716TIP3    H268640   4.818   1.489  11.924 -0.7002 -0.5851 -0.1914
15717TIP3   OH268641   6.252   0.386  14.499  0.4336  0.1149  0.6420
15717TIP3    H168642   6.206   0.467  14.478 -1.1427 -0.9010  0.0099
15717TIP3    H268643   6.229   0.325  14.429  0.1018 -1.4355  2.0343
15718TIP3   OH268644   5.718   3.021  13.328 -0.2057 -0.7875 -0.3572
15718TIP3    H168645   5.779   3.078  13.376 -0.0627 -0.1525 -1.2580
15718TIP3    H268646   5.711   2.942  13.381 -0.7883  0.2603  1.1874
15719TIP3   OH268647   5.474   1.709  16.808  0.1311 -0.3490 -0.4583
15719TIP3    H168648   5.531   1.645  16.851  1.1695  0.4460 -0.6167
15719TIP3    H268649   5.534   1.767  16.761 -0.8166  0.4550 -0.7080
15720TIP3   OH268650   3.415   4.806   1.146  0.5242 -0.1121 -1.0468
15720TIP3    H168651   3.423   4.820   1.051  0.5287 -1.3675 -1.2503
15720TIP3    H268652   3.347   4.739   1.154  1.8887 -1.4721 -0.3033
15721TIP3   OH268653   6.028   5.124  16.808 -0.1502 -0.1093  0.1681
15721TIP3    H168654   5.986   5.133  16.723 -0.3531  0.3551  0.3125
15721TIP3    H268655   5.974   5.176  16.867 -1.0391 -1.8433  0.9520
15722TIP3   OH268656   3.639   6.289  16.555 -0.5618  0.2731  0.6534
15722TIP3    H168657   3.652   6.331  16.640 -3.6825  1.4825  0.6929
15722TIP3    H268658   3.608   6.201  16.576  0.8479 -0.2292  0.6866
15723TIP3   OH268659   6.317   5.393  15.725  0.4462 -0.3119  0.8462
15723TIP3    H168660   6.284   5.326  15.785  1.9894 -2.0141 -0.1015
15723TIP3    H268661   6.320   5.350  15.640  1.3328  1.0144  0.1670
15724TIP3   OH268662   6.057   4.587  14.177 -0.4451 -0.5144 -0.2264
15724TIP3    H168663   5.976   4.537  14.164  0.2411 -1.7002 -0.0376
15724TIP3    H268664   6.061   4.646  14.102 -0.6377 -1.6260 -1.1233
15725TIP3   OH268665   4.491   5.770  11.467 -0.2094 -0.1451 -0.4941
15725TIP3    H168666   4.434   5.701  11.501 -0.3599  0.4113  0.4096
15725TIP3    H268667   4.548   5.725  11.404 -1.1387 -0.8469 -0.8545
15726TIP3   OH268668   5.764   5.693  13.389  1.2261 -0.1589  1.0777
15726TIP3    H168669   5.744   5.691  13.295  0.5397  0.9649  1.1776
15726TIP3    H268670   5.822   5.618  13.403  1.6214 -0.1398 -0.3068
15727TIP3   OH268671   2.695   0.893   2.849 -0.5949 -0.6503  0.4377
15727TIP3    H168672   2.641   0.851   2.916 -3.1487  0.5201 -0.7477
15727TIP3    H268673   2.662   0.858   2.766 -0.4494  1.0762 -0.4019
15728TIP3   OH268674   4.345   0.620  14.211 -0.1227  0.2514  0.7551
15728TIP3    H168675   4.310   0.608  14.123  2.7471  0.5994 -0.5399
15728TIP3    H268676   4.298   0.556  14.265 -1.1934 -0.7070 -1.2124
15729TIP3   OH268677   5.376   2.750   0.610 -0.1280 -0.5897  0.0003
15729TIP3    H168678   5.366   2.679   0.673 -1.0041 -0.1790  0.3396
15729TIP3    H268679   5.334   2.718   0.530  2.3553 -1.7533 -0.9604
15730TIP3   OH268680   1.975   3.106   0.157  0.1655 -0.5556 -0.3248
15730TIP3    H168681   1.928   3.052   0.094 -0.5146 -0.9319  0.5042
15730TIP3    H268682   1.983   3.191   0.114  0.1218 -0.9411 -1.1070
15731TIP3   OH268683   5.534   4.176  15.308 -0.8803 -0.1291 -0.2304
15731TIP3    H168684   5.522   4.081  15.307 -2.0066  0.0015 -0.3301
15731TIP3    H268685   5.532   4.199  15.401 -3.0357  0.0507 -0.2694
15732TIP3   OH268686   6.409   3.118   3.171  0.1652 -0.0194  0.2936
15732TIP3    H168687   6.421   3.157   3.258  0.1133  1.6184 -0.3873
15732TIP3    H268688   6.374   3.190   3.118 -0.5835 -1.2173 -0.8827
15733TIP3   OH268689   1.738   1.337   4.680 -0.3019  0.2962  0.6615
15733TIP3    H168690   1.755   1.342   4.774  0.1886 -1.9697  0.7682
15733TIP3    H268691   1.652   1.295   4.674 -0.0347 -0.1856  0.1214
15734TIP3   OH268692   1.429   6.026   5.887  0.2252 -0.2533  0.9146
15734TIP3    H168693   1.425   5.931   5.882  0.6001 -0.2321  0.1887
15734TIP3    H268694   1.338   6.054   5.891  0.1072 -0.6228  0.7836
15735TIP3   OH268695   5.977   5.848  16.437 -0.3865 -0.3712  0.2837
15735TIP3    H168696   5.950   5.839  16.345 -2.1847  2.4842  0.4170
15735TIP3    H268697   6.046   5.914  16.436 -0.8258  0.1147  1.0086
15736TIP3   OH268698   3.151   2.155   2.209 -0.3034 -0.0114 -0.0908
15736TIP3    H168699   3.112   2.162   2.121 -0.7436  0.1224  0.1084
15736TIP3    H268700   3.115   2.230   2.256  0.6189  0.4104 -0.0538
15737TIP3   OH268701   1.588   6.472   4.325  0.6534 -0.2889  0.3155
15737TIP3    H168702   1.517   6.499   4.383  0.5932 -0.5906  0.3837
15737TIP3    H268703   1.545   6.419   4.258  0.6392  0.5502 -0.3422
15738TIP3   OH268704   1.614   5.061   1.122 -0.3287  0.2038 -0.1709
15738TIP3    H168705   1.624   5.147   1.162  0.6595  0.0873 -0.1218
15738TIP3    H268706   1.557   5.076   1.046 -1.0215  0.6918  0.4354
15739TIP3   OH268707   2.942   5.978   5.244  0.2662 -0.3877  0.3361
15739TIP3    H168708   2.930   5.981   5.339  0.5536  1.1039  0.3492
15739TIP3    H268709   2.968   6.067   5.220 -0.0488 -0.6757 -1.1797
15740TIP3   OH268710   6.508   5.329  12.730  0.2082 -0.1965 -0.2415
15740TIP3    H168711   6.582   5.389  12.744 -0.8470  0.8828  0.9607
15740TIP3    H268712   6.431   5.386  12.727 -1.0222 -1.4925  2.5374
15741TIP3   OH268713   2.849   4.861  13.541  0.1759 -0.4108 -0.4215
15741TIP3    H168714   2.895   4.864  13.626 -1.5089 -2.5889  0.6625
15741TIP3    H268715   2.771   4.915  13.555  0.6705  0.4979 -1.1259
15742TIP3   OH268716   3.483   4.997  14.144  0.3136  0.1216 -0.0018
15742TIP3    H168717   3.454   5.060  14.078  0.0456  2.2056  1.9614
15742TIP3    H268718   3.565   5.033  14.177  1.1625 -1.6042 -0.1085
15743TIP3   OH268719   0.870   6.411  15.131  0.1662 -0.2309  0.5327
15743TIP3    H168720   0.799   6.453  15.084 -1.4704 -0.2019  2.8601
15743TIP3    H268721   0.857   6.318  15.117  0.6934 -0.1791 -0.3837
15744TIP3   OH268722   2.799   3.313   0.847  0.5491 -0.0869 -0.9832
15744TIP3    H168723   2.822   3.362   0.768 -1.9480 -0.8929 -2.3093
15744TIP3    H268724   2.881   3.310   0.897  1.3576  3.5036 -1.8017
15745TIP3   OH268725   0.299   0.020  17.012 -0.7498 -0.0793 -0.1725
15745TIP3    H168726   0.334  -0.028  16.937 -0.5600  1.9980 -1.4816
15745TIP3    H268727   0.283   0.108  16.979  1.4026  1.5829  2.7435
15746TIP3   OH268728   4.139   4.465   0.747  0.0538 -0.1917  0.1536
15746TIP3    H168729   4.181   4.383   0.773 -0.8521 -0.5679  0.4909
15746TIP3    H268730   4.137   4.517   0.827  0.1090 -0.0741  0.0783
15747TIP3   OH268731   5.810   3.467   4.243 -0.1914 -0.5616  0.5882
15747TIP3    H168732   5.826   3.373   4.256 -0.9086 -0.5356  1.7664
15747TIP3    H268733   5.799   3.502   4.331 -0.9828  0.4547  0.1029
15748TIP3   OH268734   4.499   2.997   5.605 -0.2169  0.1384 -0.4783
15748TIP3    H168735   4.564   2.998   5.535 -1.5853  0.9417 -1.7953
15748TIP3    H268736   4.530   3.061   5.668  1.5068 -1.2383  0.1624
15749TIP3   OH268737   5.161   6.298   1.561 -0.2344 -0.1902 -0.2592
15749TIP3    H168738   5.108   6.295   1.481 -0.7592  0.2524  0.0592
15749TIP3    H268739   5.211   6.217   1.560 -3.8811 -2.7463  1.4214
15750TIP3   OH268740   4.353   4.680   0.613  0.6830  0.1145  0.7222
15750TIP3    H168741   4.347   4.711   0.703 -0.9499  1.1446  0.2969
15750TIP3    H268742   4.410   4.744   0.570  0.0610  0.6357  0.6460
15751TIP3   OH268743   5.122   2.896   0.677 -0.2683  0.0538  0.1779
15751TIP3    H168744   5.216   2.886   0.663 -0.3535 -1.5961  0.5910
15751TIP3    H268745   5.084   2.887   0.589 -0.1537 -1.2264  0.2380
15752TIP3   OH268746   2.378   0.915   3.256 -0.2393  0.3922 -0.2251
15752TIP3    H168747   2.469   0.939   3.275 -0.1148  0.0228 -0.3414
15752TIP3    H268748   2.334   0.917   3.341 -0.4737  2.0038 -0.3618
15753TIP3   OH268749   2.033   1.819  16.585 -0.1087 -0.2945  0.3135
15753TIP3    H168750   1.992   1.743  16.545  3.3799 -2.5395  0.5547
15753TIP3    H268751   2.037   1.884  16.516 -1.0057 -1.2336 -0.6552
15754TIP3   OH268752   1.414   1.155   2.144  0.0021  0.3662  0.4347
15754TIP3    H168753   1.460   1.237   2.156 -1.2707  1.2801 -0.5534
15754TIP3    H268754   1.353   1.172   2.072 -0.4616 -1.3707  0.3580
15755TIP3   OH268755   5.483   5.342   3.871 -0.5223 -0.4545 -0.5726
15755TIP3    H168756   5.532   5.369   3.793 -0.5782 -0.1278 -0.4949
15755TIP3    H268757   5.501   5.410   3.935 -0.3327 -0.8156 -0.2393
15756TIP3   OH268758   6.094   6.164   3.868  0.1423  0.4380 -0.3725
15756TIP3    H168759   6.150   6.187   3.793 -0.2609  0.8466 -0.5539
15756TIP3    H268760   6.034   6.238   3.876  0.6461  0.7342  0.8112
15757TIP3   OH268761   5.362   6.014   3.971 -0.0238  0.2510 -0.2314
15757TIP3    H168762   5.401   5.980   4.051  0.0321  1.0225  0.0802
15757TIP3    H268763   5.299   5.947   3.944 -0.6095  0.3370  0.8855
15758TIP3   OH268764   1.941   5.177   0.368  0.2264  0.6078 -0.0285
15758TIP3    H168765   1.916   5.219   0.450 -0.8254 -0.4931  0.2469
15758TIP3    H268766   2.007   5.113   0.392 -0.0198  0.3443 -0.0441
15759TIP3   OH268767   1.900   2.482  13.666  0.1608  0.1183 -0.2158
15759TIP3    H168768   1.986   2.440  13.656  0.2625  0.1823  0.3969
15759TIP3    H268769   1.882   2.479  13.760 -0.0509  1.0170 -0.2249
15760TIP3   OH268770   0.700   0.331  12.636 -0.4380  0.2713 -0.3892
15760TIP3    H168771   0.681   0.254  12.689  0.0028 -0.5867 -1.4290
15760TIP3    H268772   0.787   0.360  12.665 -0.9632  0.9067  0.5912
15761TIP3   OH268773   0.721   0.129   1.962 -0.4275 -0.1581 -0.2128
15761TIP3    H168774   0.813   0.139   1.986 -1.1386  0.6161  2.5501
15761TIP3    H268775   0.706   0.034   1.967 -0.3242 -0.1128  1.8702
15762TIP3   OH268776   2.367   5.418  14.577 -0.4455 -0.2763  0.1346
15762TIP3    H168777   2.388   5.329  14.547  0.7593  0.2142 -0.5584
15762TIP3    H268778   2.436   5.439  14.640 -0.8303  0.1085  0.4372
15763TIP3   OH268779   0.711   0.076   0.327 -0.6409  0.7920 -1.1442
15763TIP3    H168780   0.792   0.122   0.350  0.2260 -1.4598  0.6748
15763TIP3    H268781   0.716   0.066   0.232  1.6630  0.0229 -1.0149
15764TIP3   OH268782   6.393   5.468  11.250  0.3934 -0.6327 -0.1769
15764TIP3    H168783   6.368   5.541  11.193  1.3692  0.2806  0.5149
15764TIP3    H268784   6.432   5.403  11.191 -2.4066 -1.5998 -1.1081
15765TIP3   OH268785   0.973   4.414   4.799  0.0088  0.5673  0.0624
15765TIP3    H168786   1.003   4.362   4.725 -1.8775  1.2840 -1.2797
15765TIP3    H268787   0.878   4.420   4.788 -0.0293  2.9964  0.9955
15766TIP3   OH268788   3.516   6.125  14.320  0.1412 -0.3011  0.2852
15766TIP3    H168789   3.572   6.091  14.390  0.5275  1.4355  0.8561
15766TIP3    H268790   3.510   6.052  14.257 -0.8317 -2.1833  2.4204
15767TIP3   OH268791   6.433   1.257   5.673  0.1225 -0.4039 -0.0335
15767TIP3    H168792   6.510   1.209   5.643 -0.3564  0.0167 -2.0336
15767TIP3    H268793   6.371   1.190   5.701  0.4936 -0.8165 -0.1964
15768TIP3   OH268794   3.339   5.234   2.051 -0.1363  0.1216  0.1493
15768TIP3    H168795   3.289   5.265   1.975 -0.2378  0.5460  0.3842
15768TIP3    H268796   3.273   5.220   2.118  0.1013  1.2495  0.6517
15769TIP3   OH268797   3.245   1.155  15.832 -0.5873  0.5881  0.0201
15769TIP3    H168798   3.237   1.246  15.803  0.3374  0.9477  0.8478
15769TIP3    H268799   3.204   1.154  15.918 -0.4609  0.2491  0.0767
15770TIP3   OH268800   1.357   2.196  10.811 -0.2355 -0.6781  0.2122
15770TIP3    H168801   1.278   2.218  10.761  0.0490 -0.6257 -0.2148
15770TIP3    H268802   1.341   2.106  10.841 -0.9906 -0.2439  1.1726
15771TIP3   OH268803   3.615   0.837   5.999 -0.8448 -0.4803  0.0794
15771TIP3    H168804   3.595   0.791   5.918 -1.9674 -1.3898  0.8331
15771TIP3    H268805   3.590   0.775   6.068 -0.2363  0.3972  1.1152
15772TIP3   OH268806   3.626   2.255   2.813  0.4059  0.2167  0.3110
15772TIP3    H168807   3.563   2.231   2.881 -0.9497  0.4751 -0.8191
15772TIP3    H268808   3.584   2.327   2.765  1.1469 -0.2150 -1.0342
15773TIP3   OH268809   2.754   4.894   3.063  0.0435 -0.0672 -0.5648
15773TIP3    H168810   2.799   4.933   2.988  2.0860 -1.1554  0.0177
15773TIP3    H268811   2.789   4.805   3.069 -0.4601 -0.1810  1.3665
15774TIP3   OH268812   6.702   1.547   5.639  0.1858  0.1846 -0.8021
15774TIP3    H168813   6.770   1.596   5.685  0.9478 -0.4973 -1.1800
15774TIP3    H268814   6.654   1.501   5.709  1.4986 -1.0552 -0.6769
15775TIP3   OH268815   4.069   3.057  11.606  0.0625  0.4737 -0.0499
15775TIP3    H168816   4.087   3.040  11.514  1.0289  0.7405  0.0780
15775TIP3    H268817   3.974   3.060  11.612 -0.0197  0.0444 -0.9624
15776TIP3   OH268818   4.603   3.048   0.569 -0.4565 -0.2512  0.2422
15776TIP3    H168819   4.675   3.037   0.632  0.1934 -0.5003 -0.5313
15776TIP3    H268820   4.580   2.959   0.543 -0.0890 -0.1169 -0.5706
15777TIP3   OH268821   6.765   3.048   5.875  0.3245 -0.1796 -0.1741
15777TIP3    H168822   6.810   3.129   5.901  0.9696 -0.9213  1.1026
15777TIP3    H268823   6.832   2.980   5.882 -0.0915 -0.7825 -1.6574
15778TIP3   OH268824   1.518   5.364  13.326 -0.6162 -0.1395  0.0216
15778TIP3    H168825   1.598   5.413  13.307 -1.3653  2.1451  2.2110
15778TIP3    H268826   1.547   5.292  13.382  0.0682 -0.1893 -0.3862
15779TIP3   OH268827   1.434   0.453  13.219  0.0595  0.3260 -0.1128
15779TIP3    H168828   1.423   0.544  13.247 -1.4029 -0.1714  1.0686
15779TIP3    H268829   1.507   0.420  13.271 -1.6010 -0.1128  2.0792
15780TIP3   OH268830   1.474   1.145   0.419  0.4278 -0.6453  0.4614
15780TIP3    H168831   1.495   1.236   0.398  0.1677 -0.3348  1.5189
15780TIP3    H268832   1.554   1.109   0.455  1.0027 -1.3030 -1.3360
15781TIP3   OH268833   4.218   3.984   3.027 -0.3772 -0.2467  0.2797
15781TIP3    H168834   4.264   4.020   2.951 -2.0584  0.2856 -0.5326
15781TIP3    H268835   4.226   3.889   3.018  4.8972 -0.4280  2.9235
15782TIP3   OH268836   1.366   4.266   2.230  0.1784  0.5767  0.3224
15782TIP3    H168837   1.433   4.301   2.171  2.3286 -1.3525  1.4702
15782TIP3    H268838   1.414   4.244   2.310 -1.5218 -2.2491  0.6805
15783TIP3   OH268839   5.603   4.188   3.254 -0.0666 -0.3638  0.8892
15783TIP3    H168840   5.514   4.159   3.277  0.0841 -0.8622  0.8659
15783TIP3    H268841   5.603   4.190   3.159 -0.2125  0.1538  0.8997
15784TIP3   OH268842   5.517   2.862   4.520  0.4063 -0.2860 -0.0479
15784TIP3    H168843   5.486   2.850   4.610  0.4579  0.1380  0.0267
15784TIP3    H268844   5.610   2.881   4.530  0.6869 -1.4315 -0.2627
15785TIP3   OH268845   0.821   2.654   2.018  0.2297 -0.1067  0.0704
15785TIP3    H168846   0.906   2.665   1.976 -0.5092 -0.4643 -1.6416
15785TIP3    H268847   0.765   2.718   1.975 -0.9773 -1.6492 -0.7797
15786TIP3   OH268848   3.363   1.482  11.983 -0.3370  0.5738 -0.1458
15786TIP3    H168849   3.399   1.509  12.067  1.7521 -0.1103 -0.7480
15786TIP3    H268850   3.397   1.394  11.969 -2.0455 -0.0064 -0.9537
15787TIP3   OH268851   3.598   1.147   0.650  0.1739  0.4304 -0.4427
15787TIP3    H168852   3.505   1.125   0.646  0.1119  0.2526  1.3244
15787TIP3    H268853   3.642   1.076   0.604 -0.4458 -0.4447  0.2989
15788TIP3   OH268854   5.003   0.369  12.786 -0.0779 -0.5421  0.0908
15788TIP3    H168855   4.921   0.324  12.768 -1.0834  0.6647  1.4367
15788TIP3    H268856   4.990   0.410  12.872  0.8913  1.9993 -0.8834
15789TIP3   OH268857   4.842   4.565  16.230  0.1581  0.4414 -0.5887
15789TIP3    H168858   4.878   4.653  16.240  0.6853 -0.0130  2.0312
15789TIP3    H268859   4.904   4.520  16.172  0.1098  1.6251 -1.5976
15790TIP3   OH268860   4.731   4.051   1.656  0.1395  0.6575 -0.1493
15790TIP3    H168861   4.764   4.141   1.650  0.6435  0.4049 -1.3539
15790TIP3    H268862   4.726   4.034   1.750 -0.6722  2.1959  0.1160
15791TIP3   OH268863   0.890   3.055   4.405  0.1614 -0.5193  0.2623
15791TIP3    H168864   0.948   3.026   4.476  1.1719 -1.2812 -0.8357
15791TIP3    H268865   0.925   3.012   4.327 -1.6070 -0.6037 -0.5269
15792TIP3   OH268866   6.025   2.082  16.151  0.3299  0.6406  0.0284
15792TIP3    H168867   6.062   2.037  16.075  0.4936  0.3173  0.2968
15792TIP3    H268868   6.064   2.170  16.149  2.6219 -0.2577  1.3467
15793TIP3   OH268869   3.338   5.249  11.478  0.0966  0.6237 -0.0442
15793TIP3    H168870   3.304   5.206  11.557  1.6537  1.2871  1.0435
15793TIP3    H268871   3.291   5.332  11.474 -1.7045 -0.3897 -1.2090
15794TIP3   OH268872   1.268   4.733  10.692 -0.2718  0.6623  0.3013
15794TIP3    H168873   1.352   4.691  10.709  0.0440  1.7804  1.7406
15794TIP3    H268874   1.281   4.779  10.609  0.1665 -0.0582 -0.0422
15795TIP3   OH268875   2.791   0.997   0.958  0.3893 -0.0377 -0.1728
15795TIP3    H168876   2.715   1.052   0.935  1.8357  2.4446  0.5875
15795TIP3    H268877   2.757   0.935   1.022 -1.2283  0.3280 -0.6339
15796TIP3   OH268878   3.890   3.232   0.395 -0.2659 -0.0302 -0.6278
15796TIP3    H168879   3.924   3.153   0.437 -1.2500 -0.4079 -0.5175
15796TIP3    H268880   3.966   3.290   0.388  0.6808 -1.3308 -1.5549
15797TIP3   OH268881   5.499   5.060  13.572  0.1368  0.1249 -1.0039
15797TIP3    H168882   5.476   5.152  13.559  0.1817  0.2345 -0.3439
15797TIP3    H268883   5.516   5.053  13.666  0.1651 -0.5529 -1.0582
15798TIP3   OH268884   3.681   1.836  17.074 -0.3856 -0.4678 -0.2229
15798TIP3    H168885   3.592   1.852  17.106  0.4329  1.2963  1.3338
15798TIP3    H268886   3.687   1.888  16.993  0.0388  1.7413  1.1405
15799TIP3   OH268887   0.562   4.216  12.016  0.1086  0.2189 -0.1679
15799TIP3    H168888   0.590   4.300  11.981  1.5826 -0.1413  0.0513
15799TIP3    H268889   0.477   4.199  11.976  0.2242  1.3690 -0.9274
15800TIP3   OH268890   1.933   2.723   0.270  0.4848 -0.1939 -0.3087
15800TIP3    H168891   1.923   2.651   0.208  0.4857 -0.3821 -0.0912
15800TIP3    H268892   2.014   2.766   0.244  0.8293 -0.6727 -0.0326
15801TIP3   OH268893   6.362   5.358   5.141  0.5603  0.4582 -0.2199
15801TIP3    H168894   6.275   5.378   5.174  0.3317 -0.9793  0.0988
15801TIP3    H268895   6.357   5.377   5.047  0.1545  1.1397 -0.0680
15802TIP3   OH268896   5.091   6.386  11.174 -0.1322 -0.1447  0.1386
15802TIP3    H168897   5.011   6.363  11.128  0.5009 -0.2957 -0.9081
15802TIP3    H268898   5.161   6.370  11.111  0.5647  2.0538  0.2643
15803TIP3   OH268899   1.211   2.500  10.608 -0.1270 -0.3238 -0.6367
15803TIP3    H168900   1.184   2.410  10.624 -2.5755  0.2235 -1.2363
15803TIP3    H268901   1.223   2.506  10.513  0.9186 -0.2055 -0.5143
15804TIP3   OH268902   5.487   0.653   6.405  0.5547 -0.2226 -0.2232
15804TIP3    H168903   5.397   0.646   6.437  0.7168 -1.9746 -0.0849
15804TIP3    H268904   5.479   0.690   6.317 -0.0930  1.9706  0.6930
15805TIP3   OH268905   3.173   5.658   2.004 -0.6402  0.0641  0.5499
15805TIP3    H168906   3.130   5.625   1.925 -0.2036  0.3906  0.1728
15805TIP3    H268907   3.103   5.662   2.069 -0.9149 -0.6176  0.3084
15806TIP3   OH268908   2.517   5.024  11.399 -0.2841 -0.1377  0.1889
15806TIP3    H168909   2.431   5.042  11.362 -0.2956  0.4033  0.4801
15806TIP3    H268910   2.505   5.031  11.494  0.5524  2.1249  0.1817
15807TIP3   OH268911   3.773   6.497  12.282 -0.0449  0.3043  0.0027
15807TIP3    H168912   3.749   6.411  12.248  2.0958 -0.2204 -0.3249
15807TIP3    H268913   3.703   6.519  12.345  0.2537 -2.4956  1.4521
15808TIP3   OH268914   2.405   5.815  13.163 -0.6214 -0.1029 -0.1155
15808TIP3    H168915   2.358   5.738  13.131  0.0461 -0.5673  0.0010
15808TIP3    H268916   2.467   5.837  13.093 -0.9665  0.4712 -0.2464
15809TIP3   OH268917   0.687   1.373   6.644 -0.5003  0.0446 -0.1957
15809TIP3    H168918   0.615   1.325   6.603  0.9037 -1.4896 -0.9936
15809TIP3    H268919   0.683   1.460   6.603 -1.9112  0.0220 -0.1631
15810TIP3   OH268920   6.434   4.067  16.931  0.3051  0.4602 -0.5794
15810TIP3    H168921   6.490   4.012  16.985  1.4638 -0.0428 -2.2414
15810TIP3    H268922   6.361   4.010  16.906  0.2289  0.4352 -0.3146
15811TIP3   OH268923   4.754   3.930   4.916 -0.3666 -0.2593  0.0812
15811TIP3    H168924   4.663   3.905   4.899  0.0047 -1.4191 -0.2899
15811TIP3    H268925   4.767   3.910   5.008 -0.2285 -0.9491 -0.0849
15812TIP3   OH268926   4.135   5.701   3.743 -0.2636  0.2696  0.2513
15812TIP3    H168927   4.225   5.668   3.735 -1.0940 -1.7612 -1.7296
15812TIP3    H268928   4.139   5.788   3.704  0.6011 -0.3680 -1.1929
15813TIP3   OH268929   1.825   1.178  12.640  0.0418 -0.2772  0.1035
15813TIP3    H168930   1.796   1.162  12.729 -1.8328 -0.9613 -0.5836
15813TIP3    H268931   1.787   1.107  12.589 -1.1026  1.4813 -1.6401
15814TIP3   OH268932   6.201   3.856  11.453 -0.1212  0.1926 -0.1614
15814TIP3    H168933   6.255   3.835  11.529  0.3107  0.1962 -0.4665
15814TIP3    H268934   6.120   3.806  11.467 -0.5751  1.2087  0.9515
15815TIP3   OH268935   5.419   5.244  14.588  0.1872 -0.3590  0.2309
15815TIP3    H168936   5.457   5.231  14.675 -0.2892  0.9675  0.6535
15815TIP3    H268937   5.351   5.177  14.582  1.1584 -1.3761  0.3005
15816TIP3   OH268938   0.314   6.658  10.266 -0.0290  0.2238 -0.8038
15816TIP3    H168939   0.303   6.721  10.337 -1.5679 -0.4668 -0.3790
15816TIP3    H268940   0.233   6.665  10.215  0.9121  0.4792 -2.3176
15817TIP3   OH268941   5.675   1.060   1.164  0.6059  0.0867 -0.0767
15817TIP3    H168942   5.676   1.042   1.070  0.5453  0.8024 -0.2211
15817TIP3    H268943   5.760   1.029   1.196  0.0561 -1.5132 -0.0908
15818TIP3   OH268944   0.350   2.747  13.077 -0.1123 -0.2561 -0.5024
15818TIP3    H168945   0.352   2.755  13.173  1.5659  1.5615 -0.6282
15818TIP3    H268946   0.355   2.837  13.045 -3.4913 -0.5765 -2.3846
15819TIP3   OH268947   2.130   4.506  14.430 -0.0677  0.3627 -0.4327
15819TIP3    H168948   2.165   4.455  14.358  2.1335  0.1080  0.7375
15819TIP3    H268949   2.154   4.596  14.410 -1.0029  0.5397 -0.8375
15820TIP3   OH268950   3.366   4.314  12.175  0.8768 -0.5722 -0.3763
15820TIP3    H168951   3.440   4.263  12.209  1.4485  0.7257  0.4085
15820TIP3    H268952   3.406   4.375  12.113  0.5051  0.2133  0.1422
15821TIP3   OH268953   3.471   2.993  11.644  0.2046 -0.2145  0.5011
15821TIP3    H168954   3.544   2.954  11.691  1.1979 -0.2281 -1.0146
15821TIP3    H268955   3.509   3.030  11.565 -1.5330 -0.8499 -0.6993
15822TIP3   OH268956   2.826   5.714  12.106  0.4998  0.0414 -0.2490
15822TIP3    H168957   2.749   5.710  12.163  0.1765  0.7979 -0.6062
15822TIP3    H268958   2.883   5.779  12.147  0.7838 -0.2530 -0.1780
15823TIP3   OH268959   4.472   4.078   2.074  0.4053  0.9735 -0.0864
15823TIP3    H168960   4.492   3.989   2.044 -0.1372  1.5068 -2.2125
15823TIP3    H268961   4.456   4.127   1.993 -1.6965  2.4359  1.1386
15824TIP3   OH268962   5.357   1.014  14.135  0.5424  0.2300  0.7976
15824TIP3    H168963   5.270   0.980  14.157  0.9734  0.5000  3.2960
15824TIP3    H268964   5.340   1.094  14.086 -0.6902  0.6716  1.8646
15825TIP3   OH268965   0.275   4.794   0.307 -0.1052 -0.2414 -0.2595
15825TIP3    H168966   0.222   4.863   0.268 -1.5253 -1.7426 -1.1411
15825TIP3    H268967   0.228   4.768   0.386  1.4123  1.0231  1.1283
15826TIP3   OH268968   0.231   3.419  17.017 -0.2071 -0.2243  0.2645
15826TIP3    H168969   0.282   3.340  16.999 -2.7754 -1.8934 -0.1249
15826TIP3    H268970   0.224   3.421  17.112  3.3334  1.9896  0.6693
15827TIP3   OH268971   5.791   5.513   2.000 -0.1498 -0.7989 -0.4160
15827TIP3    H168972   5.714   5.495   2.054 -0.3200 -0.6428 -0.6012
15827TIP3    H268973   5.783   5.454   1.926 -1.0988  0.4920 -1.3996
15828TIP3   OH268974   3.783   5.042  15.826  0.4272  0.3826 -0.6055
15828TIP3    H168975   3.852   4.978  15.808  0.4562  0.3280 -0.2983
15828TIP3    H268976   3.714   5.022  15.762  0.9918  0.8984 -1.4019
15829TIP3   OH268977   4.718   6.484   4.978 -0.0069 -0.0749 -0.2368
15829TIP3    H168978   4.638   6.449   4.938  0.7309 -2.8214  0.4975
15829TIP3    H268979   4.788   6.459   4.918  0.3667  2.6808 -1.0946
15830TIP3   OH268980   1.632   5.205  10.263 -0.0581  0.1808  0.1017
15830TIP3    H168981   1.650   5.111  10.273 -0.3443 -0.0525 -1.3277
15830TIP3    H268982   1.566   5.224  10.330  0.1059 -0.6080  0.4986
15831TIP3   OH268983   5.885   4.395   1.903  0.0692  0.3017  0.0810
15831TIP3    H168984   5.803   4.360   1.868 -0.4311  0.8868  0.6367
15831TIP3    H268985   5.871   4.490   1.905  0.6193  0.3780  0.5327
15832TIP3   OH268986   2.589   4.784   2.086 -0.2765  0.5457  0.0043
15832TIP3    H168987   2.519   4.845   2.064 -0.7341  0.1998  0.4591
15832TIP3    H268988   2.555   4.734   2.160 -0.9903 -2.0033 -1.8893
15833TIP3   OH268989   2.804   5.679  14.104 -0.2213  0.3010 -0.0180
15833TIP3    H168990   2.796   5.644  14.015 -1.2487  0.3126  0.0507
15833TIP3    H268991   2.893   5.658  14.131  0.6487  1.6491 -1.6234
15834TIP3   OH268992   6.739   3.951  16.706 -0.0158  0.4957  0.3922
15834TIP3    H168993   6.834   3.962  16.717 -0.1896  1.1155  1.4820
15834TIP3    H268994   6.701   4.013  16.768 -1.1351 -1.8114  2.1677
15835TIP3   OH268995   3.855   5.561  15.536  0.4438 -0.0437 -0.3089
15835TIP3    H168996   3.783   5.624  15.526  0.5534  0.4267  1.5123
15835TIP3    H268997   3.907   5.572  15.457  0.3973  2.1208 -0.1131
15836TIP3   OH268998   1.569   1.198   5.860 -0.0438 -0.3524  0.3161
15836TIP3    H168999   1.574   1.103   5.851 -1.5301 -0.6145  1.8418
15836TIP3    H269000   1.626   1.231   5.790  0.6685 -2.3416 -0.1230
15837TIP3   OH269001   3.221   5.293   1.803  0.3527  0.2076 -0.1180
15837TIP3    H169002   3.214   5.229   1.733 -0.7531  0.0068  0.1599
15837TIP3    H269003   3.153   5.358   1.784  0.1082  0.2083  0.6963
15838TIP3   OH269004   4.948   1.463   0.045  0.0474  0.3383  0.5926
15838TIP3    H169005   4.935   1.555   0.023 -0.1191  0.0277 -0.7270
15838TIP3    H269006   5.021   1.463   0.107  0.4940  1.3115  0.0849
15839TIP3   OH269007   0.433   1.538  15.257 -0.1930  0.1415  0.0505
15839TIP3    H169008   0.411   1.630  15.248  1.0658  0.6197  1.3337
15839TIP3    H269009   0.417   1.518  15.350 -0.6522 -0.9973 -0.2515
15840TIP3   OH269010   5.365   4.873   0.495  0.5100  0.3085  0.5710
15840TIP3    H169011   5.350   4.780   0.513 -2.1247  0.0093 -2.2347
15840TIP3    H269012   5.451   4.876   0.454 -0.5786 -1.4703 -2.0895
15841TIP3   OH269013   1.095   5.399   3.201 -0.2475  0.2291  0.8919
15841TIP3    H169014   1.120   5.340   3.271  1.6597  0.7835  0.7297
15841TIP3    H269015   1.161   5.469   3.204 -1.5407  1.5361  0.1000
15842TIP3   OH269016   0.039   0.607   4.261 -0.0262 -0.8332  0.0048
15842TIP3    H169017   0.105   0.577   4.323  0.2496 -0.6598 -0.2012
15842TIP3    H269018  -0.011   0.673   4.309  0.2506 -0.6265  0.0106
15843TIP3   OH269019   5.711   6.343  11.699  0.0076 -0.8219  0.1235
15843TIP3    H169020   5.656   6.340  11.777 -1.5893 -1.6347 -0.9804
15843TIP3    H269021   5.801   6.343  11.733 -0.6366 -0.1152  1.9629
15844TIP3   OH269022   4.832   5.248  11.116  0.0414 -0.8002 -0.0351
15844TIP3    H169023   4.874   5.310  11.057 -0.1340 -1.4666 -0.8715
15844TIP3    H269024   4.890   5.172  11.116 -1.2542 -1.8372 -1.4009
15845TIP3   OH269025   5.644   3.483   4.547  1.0017 -0.4480  0.2548
15845TIP3    H169026   5.609   3.451   4.630  1.4224 -0.7986  0.2999
15845TIP3    H269027   5.708   3.550   4.572 -0.0566  0.6169  0.1516
15846TIP3   OH269028   0.890   4.711  16.525 -0.6788 -0.4577 -0.3983
15846TIP3    H169029   0.805   4.752  16.541 -0.5143 -0.4457  0.5444
15846TIP3    H269030   0.889   4.689  16.432 -1.2393  0.6140 -0.6688
15847TIP3   OH269031   6.033   4.686   4.329  0.1201 -0.0233 -0.3802
15847TIP3    H169032   6.080   4.695   4.246 -0.6949  1.2441 -0.7321
15847TIP3    H269033   6.100   4.697   4.396  1.3155 -3.7047 -0.7504
15848TIP3   OH269034   1.546   1.403  12.787 -0.2088 -0.0771 -0.0577
15848TIP3    H169035   1.621   1.358  12.825 -0.9972 -1.7630 -0.3888
15848TIP3    H269036   1.542   1.487  12.833  0.1990 -1.1056  1.9444
15849TIP3   OH269037   2.646   3.783   0.994 -0.2147  0.1307  0.3173
15849TIP3    H169038   2.585   3.745   0.932  0.2405 -1.3050  0.7161
15849TIP3    H269039   2.636   3.731   1.074  1.2449  0.0840  0.5062
15850TIP3   OH269040   5.956   3.194   1.942  0.1986  0.2297 -0.2973
15850TIP3    H169041   5.994   3.267   1.991  0.5625  1.1959 -1.9433
15850TIP3    H269042   5.877   3.231   1.901  1.6783  0.5023 -3.1547
15851TIP3   OH269043   0.510   0.998  11.695  0.3328  0.3952  0.3380
15851TIP3    H169044   0.504   1.092  11.679  0.0334  0.6765  1.9324
15851TIP3    H269045   0.527   0.960  11.609  0.4979  1.9052 -0.3266
15852TIP3   OH269046   6.347   4.717  13.585 -0.5304  0.0136 -0.2219
15852TIP3    H169047   6.307   4.689  13.503 -1.5553  1.3737 -0.2136
15852TIP3    H269048   6.347   4.638  13.639  1.4261 -1.2892 -1.9517
15853TIP3   OH269049   5.408   0.042   1.162  0.3349 -0.0689 -0.1385
15853TIP3    H169050   5.315   0.039   1.142  0.4880 -1.0324 -0.7556
15853TIP3    H269051   5.420  -0.023   1.232  0.8083 -1.2599 -1.2807
15854TIP3   OH269052   2.134   4.153   4.213 -0.5147 -0.1442 -0.1234
15854TIP3    H169053   2.119   4.215   4.142 -0.1382 -0.9446 -0.9247
15854TIP3    H269054   2.179   4.204   4.280  1.4325  0.0724 -1.4990
15855TIP3   OH269055   0.737   6.793  10.453  0.6506  0.2590 -0.3098
15855TIP3    H169056   0.689   6.717  10.420 -0.4954  1.2466 -1.0270
15855TIP3    H269057   0.829   6.772  10.439  0.4059 -1.3083  0.2239
15856TIP3   OH269058   0.153   5.291  16.374  0.1301 -0.2117 -0.6267
15856TIP3    H169059   0.233   5.311  16.325  1.4571  1.0932  1.8437
15856TIP3    H269060   0.159   5.197  16.393  0.6399 -0.3034 -1.2153
15857TIP3   OH269061   0.153   6.839  16.310 -0.0748 -0.2129 -0.0576
15857TIP3    H169062   0.168   6.909  16.373 -2.7778  1.7178 -1.3387
15857TIP3    H269063   0.226   6.845  16.249  0.6467  0.3163  0.8357
15858TIP3   OH269064   4.527   5.011   0.795 -0.3995  0.1463 -0.2003
15858TIP3    H169065   4.493   4.948   0.858 -0.2868 -0.6403 -0.8996
15858TIP3    H269066   4.456   5.021   0.731 -0.2553  0.4017 -0.3218
15859TIP3   OH269067   1.810   1.623   3.937 -0.0569  0.0878 -0.6031
15859TIP3    H169068   1.759   1.577   4.005  2.4511  2.1697  3.0286
15859TIP3    H269069   1.867   1.555   3.900 -1.9462 -1.2375 -1.2932
15860TIP3   OH269070   0.924   6.578  13.430  0.7940  0.1186  0.1370
15860TIP3    H169071   0.883   6.571  13.344  1.0350 -3.7946  0.1848
15860TIP3    H269072   1.008   6.621  13.413 -0.1369  1.5911 -1.0971
15861TIP3   OH269073   1.463   5.529   2.235 -0.3782  0.3150  0.2175
15861TIP3    H169074   1.419   5.613   2.245 -1.3018 -0.2139  0.8128
15861TIP3    H269075   1.409   5.482   2.171 -0.0263  0.0709  0.0984
15862TIP3   OH269076   1.367   6.067   3.653 -0.3021  0.3669 -0.2524
15862TIP3    H169077   1.352   6.015   3.732  0.6029  0.9017  0.2936
15862TIP3    H269078   1.409   6.006   3.592  0.1205  0.2596  0.1352
15863TIP3   OH269079   6.030   2.996  16.835  0.0811 -0.0490 -0.5821
15863TIP3    H169080   5.952   3.029  16.790 -0.5124  0.0133  0.4406
15863TIP3    H269081   6.099   2.997  16.769 -1.0791 -1.2716 -1.8723
15864TIP3   OH269082   0.865   3.436   5.879  0.7329 -0.4836  0.8222
15864TIP3    H169083   0.862   3.530   5.895 -0.0418 -0.7087  2.1417
15864TIP3    H269084   0.935   3.404   5.937  3.7716 -0.2737 -2.4203
15865TIP3   OH269085   4.725   1.729   0.050  0.8172 -0.5410 -0.0537
15865TIP3    H169086   4.720   1.731   0.145 -0.0378  0.5856 -0.1052
15865TIP3    H269087   4.813   1.761   0.030  0.8699 -0.4319  0.3418
15866TIP3   OH269088   6.137   5.249   2.230 -0.1223 -0.2227  0.2327
15866TIP3    H169089   6.104   5.328   2.188  0.3170 -0.4216 -0.5034
15866TIP3    H269090   6.232   5.256   2.224 -0.0471 -0.3166  1.1015
15867TIP3   OH269091   1.707   6.209   4.642  0.1030 -0.1736 -0.2847
15867TIP3    H169092   1.689   6.302   4.659 -2.8055  0.0329 -3.4761
15867TIP3    H269093   1.799   6.208   4.615 -0.0975  2.0191 -1.3152
15868TIP3   OH269094   4.967   1.088  15.740 -0.0924 -0.1476 -0.3109
15868TIP3    H169095   5.016   1.169  15.733 -0.1774 -0.0988 -0.3473
15868TIP3    H269096   5.024   1.029  15.789  1.0014 -0.8769 -2.3649
15869TIP3   OH269097   4.848   6.271  11.107 -0.1791 -0.2875 -0.3146
15869TIP3    H169098   4.820   6.217  11.032  0.2087  1.1899 -1.5698
15869TIP3    H269099   4.766   6.299  11.148 -0.4020 -2.3306  0.8049
15870TIP3   OH269100   3.340   0.609   2.858 -0.1023  0.1800  0.2574
15870TIP3    H169101   3.395   0.686   2.875  0.0309 -0.5570  3.9645
15870TIP3    H269102   3.401   0.542   2.827  0.7578  0.0582  2.1067
15871TIP3   OH269103   3.644   0.472  11.594  0.1921  0.3076 -0.0071
15871TIP3    H169104   3.597   0.405  11.644  0.7283 -0.7333 -0.8468
15871TIP3    H269105   3.736   0.452  11.609  0.5053  3.1298  2.6988
15872TIP3   OH269106   4.037   1.793  16.415 -0.3274 -0.1548 -0.1706
15872TIP3    H169107   3.946   1.816  16.393 -0.3846  1.1269  1.2401
15872TIP3    H269108   4.032   1.760  16.505  0.3412 -2.1845 -0.8088
15873TIP3   OH269109   1.318   1.376  10.104  0.1945 -0.1810  0.3539
15873TIP3    H169110   1.328   1.298  10.159 -0.5169 -1.5038 -1.3272
15873TIP3    H269111   1.227   1.374  10.076  0.0823  1.4449  0.5085
15874TIP3   OH269112   4.399   4.294   5.237 -0.1742 -0.0693 -0.0529
15874TIP3    H169113   4.304   4.287   5.240 -0.2422  0.2414 -1.0566
15874TIP3    H269114   4.416   4.364   5.173  0.7329 -0.6499 -0.4674
15875TIP3   OH269115   1.969   4.087   2.596 -0.5407  0.4015  0.4929
15875TIP3    H169116   1.959   4.177   2.565 -2.6169 -0.3559 -1.2602
15875TIP3    H269117   2.004   4.040   2.520 -1.0735 -0.5838  0.8457
15876TIP3   OH269118   2.129   5.609   1.478  0.7583  0.6071  0.7356
15876TIP3    H169119   2.160   5.563   1.400  0.4770 -1.4599  1.7692
15876TIP3    H269120   2.035   5.619   1.464  0.4852 -0.9173  1.3238
15877TIP3   OH269121   3.430   0.738  15.783 -0.5365 -0.0009 -0.2111
15877TIP3    H169122   3.336   0.725  15.796 -0.4137 -0.6983 -0.0214
15877TIP3    H269123   3.438   0.832  15.764 -1.1446  0.2884  0.8835
15878TIP3   OH269124   4.397   3.852   1.497  0.0506  0.2942  0.1930
15878TIP3    H169125   4.381   3.846   1.591 -1.8010 -1.9433 -0.1813
15878TIP3    H269126   4.333   3.917   1.466 -0.2778  0.0366  0.3190
15879TIP3   OH269127   2.642   3.639   3.035 -0.5870 -0.0873  0.3650
15879TIP3    H169128   2.648   3.544   3.045  1.6672 -0.0313  0.0011
15879TIP3    H269129   2.580   3.651   2.963 -0.2859 -1.3121 -0.1280
15880TIP3   OH269130   0.033   0.850   0.127 -0.0949  0.1117  0.4479
15880TIP3    H169131   0.067   0.939   0.127  0.9789 -0.2725  1.9955
15880TIP3    H269132  -0.048   0.855   0.177 -0.2883  0.2922  0.1230
15881TIP3   OH269133   0.869   5.390   0.250  0.2014 -0.5380 -0.4509
15881TIP3    H169134   0.964   5.378   0.244  0.0963 -1.1836 -0.8289
15881TIP3    H269135   0.858   5.459   0.316  0.9367 -0.3529 -0.5134
15882TIP3   OH269136   2.791   5.495  15.589 -0.4822 -0.2479  0.9311
15882TIP3    H169137   2.758   5.581  15.562  1.8065 -0.0362 -1.6036
15882TIP3    H269138   2.882   5.511  15.615 -0.0508 -1.8707  0.5051
15883TIP3   OH269139   6.072   3.932   4.672 -0.3048  0.4800  0.0112
15883TIP3    H169140   6.014   3.867   4.713 -0.2467  0.7956  0.6084
15883TIP3    H269141   6.050   3.928   4.579 -3.7001  2.9020  0.5078
15884TIP3   OH269142   2.382   5.301  16.312  0.4168 -0.2578  0.0674
15884TIP3    H169143   2.394   5.252  16.230  0.5321 -1.3275  0.7006
15884TIP3    H269144   2.471   5.321  16.341  0.5390 -2.4810  1.4215
15885TIP3   OH269145   4.414   4.994  16.273 -0.6146  0.0574 -0.0237
15885TIP3    H169146   4.323   5.016  16.292 -0.7372  0.0133 -0.5478
15885TIP3    H269147   4.435   5.044  16.194 -0.3735 -0.4027 -0.2511
15886TIP3   OH269148   6.688   4.865  11.704  0.1231 -0.1187 -0.0691
15886TIP3    H169149   6.695   4.959  11.719 -3.1431  0.1655  0.5364
15886TIP3    H269150   6.724   4.851  11.617  1.3319  1.5415  0.1149
15887TIP3   OH269151   5.139   3.999   4.513  0.3371 -1.1072  0.1437
15887TIP3    H169152   5.077   3.926   4.509  1.4032 -2.0716  0.7588
15887TIP3    H269153   5.119   4.052   4.435 -0.8261 -1.7429 -0.0037
15888TIP3   OH269154   4.766   3.416  10.630 -0.1627  0.1947  0.2135
15888TIP3    H169155   4.748   3.325  10.655  1.6589 -1.0399 -2.4168
15888TIP3    H269156   4.856   3.431  10.659  0.2882  0.3661 -1.1956
15889TIP3   OH269157   1.779   6.339  11.275 -0.0417  0.3371 -0.2890
15889TIP3    H169158   1.825   6.341  11.191 -0.1530 -0.0823 -0.3588
15889TIP3    H269159   1.835   6.392  11.333 -0.6688  1.8051 -0.9646
15890TIP3   OH269160   0.249   2.549   6.595 -0.7572  0.3848 -0.4502
15890TIP3    H169161   0.174   2.510   6.551 -0.1629  0.0989 -1.2395
15890TIP3    H269162   0.322   2.490   6.575 -0.1757  1.0428 -0.3119
15891TIP3   OH269163   0.757   0.648  11.689 -0.2811 -0.2339 -0.3266
15891TIP3    H169164   0.834   0.697  11.662  0.6426 -1.3053  0.2637
15891TIP3    H269165   0.729   0.688  11.771 -0.9393  0.7535 -1.0156
15892TIP3   OH269166   2.876   5.892   1.971 -0.4372  0.2903  0.2466
15892TIP3    H169167   2.789   5.911   1.937 -0.4390 -0.8661 -0.4515
15892TIP3    H269168   2.914   5.832   1.907  0.3218 -0.3810  1.2977
15893TIP3   OH269169   2.628   1.231  14.017  0.4676  0.0833 -0.1735
15893TIP3    H169170   2.630   1.151  14.068  2.3562 -0.3412 -0.8117
15893TIP3    H269171   2.719   1.244  13.989  0.1492  2.2541 -0.3902
15894TIP3   OH269172   6.409   0.165  14.607 -0.2673 -0.1036  0.5233
15894TIP3    H169173   6.375   0.245  14.568  0.1915 -0.7274 -1.2476
15894TIP3    H269174   6.415   0.184  14.700  2.4315  2.9386 -0.0965
15895TIP3   OH269175   6.078   0.634  15.734  0.0388 -0.4066 -0.3110
15895TIP3    H169176   6.109   0.682  15.810 -1.2616 -1.8010  1.1723
15895TIP3    H269177   5.984   0.621  15.750 -1.6964  3.7696 -4.6357
15896TIP3   OH269178   6.808   4.813   2.807  0.4691  0.7435  0.3774
15896TIP3    H169179   6.866   4.750   2.850  1.4911  1.5623  0.2364
15896TIP3    H269180   6.720   4.785   2.831  0.9383 -0.2064  1.0473
15897TIP3   OH269181   5.997   1.537   1.139  0.7665 -0.0757 -0.2165
15897TIP3    H169182   5.917   1.498   1.173 -0.1658  2.4963  0.7688
15897TIP3    H269183   6.049   1.462   1.109 -1.9504 -1.8334 -0.9174
15898TIP3   OH269184   0.753   4.204  16.857  0.0061  0.2050 -0.4509
15898TIP3    H169185   0.802   4.276  16.819  0.2249 -0.2635 -1.0718
15898TIP3    H269186   0.712   4.241  16.935 -0.3395  1.1450 -1.0628
15899TIP3   OH269187   4.140   1.306  11.403 -0.1833  0.0361 -0.0381
15899TIP3    H169188   4.126   1.362  11.479  0.7691  0.9527 -0.5108
15899TIP3    H269189   4.061   1.253  11.397 -0.3828  0.1415  1.4241
15900TIP3   OH269190   3.782   4.466  15.514 -0.1488  0.3482 -1.0526
15900TIP3    H169191   3.739   4.390  15.552  2.2611 -0.2725  0.6982
15900TIP3    H269192   3.867   4.433  15.484  2.3587  2.7368  2.6134
15901TIP3   OH269193   0.307   5.098   0.563  0.6711  0.4626 -1.0175
15901TIP3    H169194   0.377   5.161   0.549  0.9728  0.2930 -0.3081
15901TIP3    H269195   0.351   5.021   0.599  0.0446  0.5943  0.0752
15902TIP3   OH269196   6.052   6.190   6.476 -0.8765 -0.8343 -0.2349
15902TIP3    H169197   6.095   6.257   6.423 -1.8851  0.2022  0.2212
15902TIP3    H269198   6.123   6.153   6.529 -0.4541  0.5381  0.1875
15903TIP3   OH269199   1.727   0.572  11.580  0.6817 -0.6933  0.4920
15903TIP3    H169200   1.759   0.568  11.490  0.2084 -1.2482  0.3447
15903TIP3    H269201   1.698   0.483  11.599  0.8419 -0.5937  1.2183
15904TIP3   OH269202   4.425   0.305  17.121 -0.6601 -0.5823  0.4239
15904TIP3    H169203   4.332   0.287  17.105 -0.4172 -0.4462 -1.4015
15904TIP3    H269204   4.466   0.218  17.122 -0.1658 -0.5950 -3.7236
15905TIP3   OH269205   1.980   3.402  11.203  0.0814 -0.0102 -0.3417
15905TIP3    H169206   1.961   3.375  11.113 -0.1046  2.0472 -0.9750
15905TIP3    H269207   2.076   3.401  11.209  0.1790  1.3717 -1.1289
15906TIP3   OH269208   0.585   6.248   4.601  0.1552  0.1992 -0.0818
15906TIP3    H169209   0.530   6.216   4.530  0.1606 -1.2747  0.5354
15906TIP3    H269210   0.663   6.192   4.599  1.8743  2.4829 -1.1681
15907TIP3   OH269211   3.998   4.833   5.113  0.4023 -0.2467 -0.3827
15907TIP3    H169212   4.047   4.916   5.110  1.2076 -0.6730  0.4213
15907TIP3    H269213   4.066   4.766   5.113 -0.2126 -0.8776  0.0740
15908TIP3   OH269214   1.671   1.396  16.664  0.1056  0.5921 -0.0427
15908TIP3    H169215   1.738   1.425  16.725  1.4638 -0.8435 -0.7971
15908TIP3    H269216   1.616   1.473  16.651  1.6646  1.8468  0.4895
15909TIP3   OH269217   5.610   6.177  11.117 -0.5607  0.0898 -0.5780
15909TIP3    H169218   5.617   6.086  11.147  1.7605  0.5142  0.4271
15909TIP3    H269219   5.580   6.225  11.194 -1.8048  0.2060 -1.1154
15910TIP3   OH269220   4.336   5.710  14.942 -0.5051 -0.3901  0.1387
15910TIP3    H169221   4.358   5.752  15.025 -0.2033  1.0867 -0.6555
15910TIP3    H269222   4.409   5.651  14.925  0.0928  0.3007  0.2739
15911TIP3   OH269223   0.052   4.569  14.766  0.7195  0.1139  0.0573
15911TIP3    H169224  -0.003   4.647  14.765  0.0020 -0.3587 -1.8084
15911TIP3    H269225   0.113   4.581  14.693  0.6056 -1.0225 -0.2526
15912TIP3   OH269226   3.631   1.467  12.168  0.5038 -0.3675 -0.2962
15912TIP3    H169227   3.600   1.488  12.256  0.6768 -0.5379 -0.1950
15912TIP3    H269228   3.697   1.400  12.181  2.3257  1.3128 -0.3372
15913TIP3   OH269229   0.985   5.743   3.179  0.3647  0.0744  0.9007
15913TIP3    H169230   1.075   5.741   3.212 -0.1098 -0.3028  2.2709
15913TIP3    H269231   0.981   5.671   3.117  0.5381 -1.1209  2.2206
15914TIP3   OH269232   1.157   1.917   1.061 -0.0299 -0.8338  0.0203
15914TIP3    H169233   1.171   1.919   0.966  1.6385  0.0953  0.2416
15914TIP3    H269234   1.101   1.841   1.075 -2.8912  0.7194 -1.9885
15915TIP3   OH269235   1.708   1.013  15.182 -0.7593  0.3552 -0.1818
15915TIP3    H169236   1.674   1.064  15.255 -0.7297  0.0229  0.0683
15915TIP3    H269237   1.699   1.070  15.106 -2.5890 -0.0012 -0.2691
15916TIP3   OH269238   0.022   2.716  15.230 -0.4785  0.0698  0.1678
15916TIP3    H169239   0.099   2.768  15.253  0.4271 -1.4017  0.6069
15916TIP3    H269240  -0.005   2.749  15.144  2.0449 -0.8271 -1.0882
15917TIP3   OH269241   2.242   3.155  15.949  0.0446  0.2740  0.2608
15917TIP3    H169242   2.322   3.169  15.900  0.4005 -0.9181  0.4653
15917TIP3    H269243   2.267   3.169  16.041  0.2470 -0.9388  0.4062
15918TIP3   OH269244   3.461   2.053  15.225 -0.8989  0.1657  0.3577
15918TIP3    H169245   3.414   2.086  15.301 -1.6432 -0.2426  0.0790
15918TIP3    H269246   3.547   2.095  15.230 -1.4116  1.2023  0.6655
15919TIP3   OH269247   5.999   6.386  13.008 -0.3039  0.5104 -0.1912
15919TIP3    H169248   6.092   6.366  13.005 -0.7829 -2.0348 -0.0897
15919TIP3    H269249   5.957   6.304  13.034 -2.4001  2.2375  2.4429
15920TIP3   OH269250   2.699   0.746   5.441  0.0020 -0.2140  0.3895
15920TIP3    H169251   2.658   0.776   5.360 -0.7598 -0.5517  0.6378
15920TIP3    H269252   2.638   0.773   5.510 -0.1269 -1.2741  0.7135
15921TIP3   OH269253   6.234   2.916  17.051  0.1689 -0.0289  0.6642
15921TIP3    H169254   6.148   2.915  17.008  0.3070 -1.5888  0.3928
15921TIP3    H269255   6.254   3.009  17.060 -1.6353  0.3840  0.9112
15922TIP3   OH269256   6.481   5.420   3.832 -0.7223 -0.0195 -0.8998
15922TIP3    H169257   6.466   5.492   3.770 -0.6637 -1.2646 -2.4215
15922TIP3    H269258   6.394   5.383   3.847 -0.4693 -1.2831 -2.2650
15923TIP3   OH269259   4.133   5.879   0.284  0.0790 -0.4270 -0.1334
15923TIP3    H169260   4.174   5.961   0.314  2.1385 -0.4271 -2.5743
15923TIP3    H269261   4.196   5.811   0.307 -1.8894 -1.5474  2.4327
15924TIP3   OH269262   4.912   2.351  13.701 -0.0259 -0.8138 -0.6367
15924TIP3    H169263   4.856   2.346  13.778  0.4372  2.1092 -0.0118
15924TIP3    H269264   4.851   2.354  13.627 -0.6208  0.0218 -0.1217
15925TIP3   OH269265   5.482   5.219   2.165 -0.4250  0.0454 -0.2667
15925TIP3    H169266   5.533   5.178   2.235 -0.6119  1.1302  0.5368
15925TIP3    H269267   5.493   5.161   2.090  0.4413 -0.7258  0.4303
15926TIP3   OH269268   6.531   1.463   2.642 -0.7314  0.3669  0.1233
15926TIP3    H169269   6.491   1.432   2.561  1.0565  0.2608 -0.7720
15926TIP3    H269270   6.542   1.557   2.628  0.8258  0.1417 -0.3712
15927TIP3   OH269271   0.500   0.661   6.313 -0.3276 -0.0231 -0.0073
15927TIP3    H169272   0.410   0.631   6.326 -1.1803  1.9903 -0.9273
15927TIP3    H269273   0.525   0.628   6.226 -1.3777  2.0199 -1.1567
15928TIP3   OH269274   5.441   0.018  15.484 -0.1323  0.3237 -0.8264
15928TIP3    H169275   5.373  -0.013  15.545  1.5611 -0.0534  0.9654
15928TIP3    H269276   5.493  -0.060  15.465 -0.4639  0.4955 -2.6305
15929TIP3   OH269277   5.677   6.351  12.939  0.3877 -0.3943  0.1072
15929TIP3    H169278   5.584   6.370  12.931  0.3469 -0.0466  1.2698
15929TIP3    H269279   5.681   6.272  12.993  0.7839 -0.1601  0.4192
15930TIP3   OH269280   3.378   0.502   0.847 -0.3809 -0.4364  0.7552
15930TIP3    H169281   3.306   0.438   0.850 -1.3900  0.5283 -0.9028
15930TIP3    H269282   3.345   0.577   0.895 -1.7241  1.0679 -2.2469
15931TIP3   OH269283   4.621   2.969   3.719  0.0663  0.4170  0.0877
15931TIP3    H169284   4.621   3.063   3.740 -2.4829  0.9562 -1.7936
15931TIP3    H269285   4.661   2.965   3.632 -2.1110  0.1629 -0.9566
15932TIP3   OH269286   4.511   5.567   3.195  0.0040 -0.5483 -0.0243
15932TIP3    H169287   4.495   5.625   3.269  0.2994 -0.2028 -0.2260
15932TIP3    H269288   4.484   5.480   3.225 -0.7198 -0.2558  0.1796
15933TIP3   OH269289   2.236   2.543   5.124 -0.7968  0.3529  0.3016
15933TIP3    H169290   2.244   2.523   5.031 -2.3120 -2.1965  0.6237
15933TIP3    H269291   2.209   2.635   5.127  2.3223  1.4560 -1.5755
15934TIP3   OH269292   5.743   6.166   4.769 -0.2896 -0.8055 -0.0572
15934TIP3    H169293   5.774   6.080   4.740 -0.1516 -0.9342  0.4697
15934TIP3    H269294   5.663   6.148   4.819 -0.3048 -0.6193 -0.0130
15935TIP3   OH269295   4.649   4.167  14.425 -0.5589  0.0813 -0.3560
15935TIP3    H169296   4.739   4.166  14.460 -0.7980 -1.8429  0.2882
15935TIP3    H269297   4.594   4.142  14.500 -1.7648  2.0225 -0.5229
15936TIP3   OH269298   6.841   0.262   3.202  0.0350  0.3679 -0.1124
15936TIP3    H169299   6.752   0.256   3.236 -0.1405  1.2642 -0.3864
15936TIP3    H269300   6.897   0.250   3.279 -0.3261  0.1334  0.1144
15937TIP3   OH269301   3.571   0.763  13.112 -0.1526  0.2322 -0.4165
15937TIP3    H169302   3.482   0.739  13.086 -0.3953  0.6240  0.0374
15937TIP3    H269303   3.562   0.793  13.202  0.1794  1.6611 -0.8341
15938TIP3   OH269304   4.087   6.644   2.108 -0.1302  0.6348  0.3902
15938TIP3    H169305   4.117   6.724   2.066 -0.7668  0.3065 -0.7123
15938TIP3    H269306   4.152   6.628   2.177  0.2615  1.8263  0.3251
15939TIP3   OH269307   3.731   1.784  16.370  0.3195  0.3111  0.8511
15939TIP3    H169308   3.656   1.814  16.318  1.9288  0.8628 -1.2937
15939TIP3    H269309   3.740   1.691  16.346  1.1857  0.6166 -0.0686
15940TIP3   OH269310   1.567   4.230  11.244  0.5950  0.5675 -0.4996
15940TIP3    H169311   1.614   4.238  11.327  1.3659  2.3793 -1.0589
15940TIP3    H269312   1.635   4.220  11.178 -0.0309 -1.5643 -0.8979
15941TIP3   OH269313   2.862   0.034  13.734  0.0710  0.0888  0.4584
15941TIP3    H169314   2.949   0.028  13.775  0.9097  0.1958 -1.2138
15941TIP3    H269315   2.880   0.068  13.646 -1.5250 -1.2955 -0.4419
15942TIP3   OH269316   4.995   5.480   2.614 -0.0558  0.1503 -0.0456
15942TIP3    H169317   4.905   5.469   2.647  0.4329 -0.8266  1.0210
15942TIP3    H269318   5.048   5.488   2.693  0.9733 -0.7022 -0.6354
15943TIP3   OH269319   6.787   0.156   1.070 -0.2425 -0.7224  0.4404
15943TIP3    H169320   6.722   0.186   1.007  0.7876  0.8612  0.0901
15943TIP3    H269321   6.832   0.084   1.024 -0.3150 -0.3974 -0.1549
15944TIP3   OH269322   6.656   2.973   1.669  0.6064 -0.0033  0.0104
15944TIP3    H169323   6.578   2.983   1.614  1.7534  0.6048 -1.5940
15944TIP3    H269324   6.669   3.058   1.709 -1.3948 -0.9603  3.0085
15945TIP3   OH269325   1.277   4.894  12.111  0.3999  0.5666  0.1428
15945TIP3    H169326   1.244   4.854  12.031 -0.4586  1.6140 -0.0617
15945TIP3    H269327   1.309   4.821  12.163  1.6762 -0.0601 -1.4525
15946TIP3   OH269328   5.734   0.323  14.038  0.0548  0.3320 -0.3275
15946TIP3    H169329   5.765   0.412  14.020  2.0413 -0.1419  0.4965
15946TIP3    H269330   5.806   0.282  14.087 -1.2062 -1.4329  0.1328
15947TIP3   OH269331   2.696   5.609   5.425  0.2286  0.4409  0.1455
15947TIP3    H169332   2.681   5.677   5.359 -0.9970 -0.2842 -0.3605
15947TIP3    H269333   2.782   5.574   5.405  0.4160  1.1156 -0.2517
15948TIP3   OH269334   4.924   1.674  13.657 -0.5277  0.5157  0.5398
15948TIP3    H169335   4.996   1.668  13.719 -0.2775  0.8537  0.2883
15948TIP3    H269336   4.891   1.764  13.667 -1.3136  0.1793  1.0875
15949TIP3   OH269337   2.365   4.265  14.756  0.1689 -0.1743  0.4058
15949TIP3    H169338   2.305   4.214  14.810  2.6535 -3.7492  0.1217
15949TIP3    H269339   2.447   4.267  14.805  1.3236 -0.0265 -1.4029
15950TIP3   OH269340   5.671   6.690   3.512 -0.2306 -0.5786  0.3952
15950TIP3    H169341   5.734   6.617   3.505  1.2653  0.5748  1.1840
15950TIP3    H269342   5.723   6.763   3.546 -1.9420  0.5483  0.7121
15951TIP3   OH269343   6.625   1.488   1.096 -0.1599  0.3022  0.2967
15951TIP3    H169344   6.709   1.467   1.136  0.0796  1.4764  0.4741
15951TIP3    H269345   6.571   1.519   1.168 -1.0046 -1.1387  0.3026
15952TIP3   OH269346   4.907   2.194  16.835 -0.4594 -0.2679 -0.1384
15952TIP3    H169347   4.945   2.201  16.748 -1.4726  0.6120 -0.5311
15952TIP3    H269348   4.828   2.247  16.831 -0.9662 -0.8913  1.0759
15953TIP3   OH269349   2.781   3.435   1.992 -0.7060  0.0465 -0.2698
15953TIP3    H169350   2.860   3.381   1.988 -1.9342 -1.7458 -1.7704
15953TIP3    H269351   2.750   3.425   2.082  1.3238  1.7267  0.7110
15954TIP3   OH269352   5.562   6.324   3.636 -0.3259  0.5227  0.5924
15954TIP3    H169353   5.589   6.296   3.724  1.2536 -0.8736 -0.2638
15954TIP3    H269354   5.471   6.295   3.629  0.3468 -1.9546  0.8469
15955TIP3   OH269355   5.448   4.999  16.410 -0.0570 -0.1110  0.5718
15955TIP3    H169356   5.498   4.918  16.397 -0.2625 -0.3860  1.4286
15955TIP3    H269357   5.356   4.971  16.412 -0.1748  0.2390  0.1595
15956TIP3   OH269358   4.023   1.362   2.112  0.0276  0.0349 -0.1265
15956TIP3    H169359   4.041   1.455   2.101 -0.1448  0.1174  0.2637
15956TIP3    H269360   3.928   1.355   2.105 -0.0192 -0.0143  0.5127
15957TIP3   OH269361   4.336   5.952  15.716 -0.0292  0.0539 -0.2335
15957TIP3    H169362   4.394   5.902  15.775  1.7975  1.0869 -1.0786
15957TIP3    H269363   4.292   5.885  15.664  1.3658 -0.7462 -0.4253
15958TIP3   OH269364   5.796   5.370  15.699 -0.1493 -0.6962  0.4791
15958TIP3    H169365   5.775   5.404  15.612 -1.3072 -1.1871  0.5487
15958TIP3    H269366   5.813   5.448  15.752 -0.5771 -0.3341  0.0906
15959TIP3   OH269367   5.490   1.628   2.432 -0.2842 -0.2150  0.3151
15959TIP3    H169368   5.459   1.672   2.511  0.2270 -2.2374  1.7300
15959TIP3    H269369   5.522   1.543   2.463  1.9882 -0.2282 -1.7588
15960TIP3   OH269370   3.707   0.068   0.330  0.0815  0.0284  0.6309
15960TIP3    H169371   3.678   0.094   0.242 -1.1761 -0.5076  0.8688
15960TIP3    H269372   3.772   0.134   0.354  0.5302  0.1085 -0.7506
15961TIP3   OH269373   3.635   2.146   0.506 -0.1552  0.4919 -0.0247
15961TIP3    H169374   3.613   2.239   0.517  0.4360  1.1129 -3.0630
15961TIP3    H269375   3.700   2.128   0.573 -0.0283  2.4024  0.4146
15962TIP3   OH269376   2.744   4.618   0.515  0.1743 -0.0168 -0.4747
15962TIP3    H169377   2.834   4.647   0.533  0.3573  0.1543 -1.6388
15962TIP3    H269378   2.745   4.589   0.424 -0.7522 -0.8218 -0.2507
15963TIP3   OH269379   5.230   4.047  14.268  0.0377  0.7297 -0.5294
15963TIP3    H169380   5.204   4.014  14.182 -0.9853  1.4961 -0.5476
15963TIP3    H269381   5.151   4.090  14.301  0.4245  0.4744  0.7835
15964TIP3   OH269382   0.639   1.264   5.039  0.0442 -0.9299  1.1754
15964TIP3    H169383   0.644   1.335   5.103  0.8759 -0.5545  0.7155
15964TIP3    H269384   0.728   1.228   5.038 -0.5823 -2.6288  2.1181
15965TIP3   OH269385   2.157   2.660   5.368 -0.1762  0.3829 -0.2747
15965TIP3    H169386   2.223   2.597   5.342 -0.4256 -0.2156  0.4999
15965TIP3    H269387   2.115   2.686   5.286  0.8134  0.5524 -0.7372
15966TIP3   OH269388   4.642   4.277  15.700  0.1014  0.0166  0.5767
15966TIP3    H169389   4.564   4.290  15.753  0.5214 -0.7111  1.4093
15966TIP3    H269390   4.656   4.361  15.656 -2.0002 -0.2775 -0.8017
15967TIP3   OH269391   4.996   5.184  11.675 -0.4565  0.0645  0.0801
15967TIP3    H169392   4.935   5.217  11.740 -1.8127 -0.7874 -0.6971
15967TIP3    H269393   5.003   5.091  11.693 -0.2397 -0.0419 -0.5137
15968TIP3   OH269394   0.098   0.334  14.904 -0.4826  0.9360  0.5677
15968TIP3    H169395   0.053   0.418  14.919 -2.1256  0.1113  0.4615
15968TIP3    H269396   0.093   0.321  14.810  0.5496  1.1213  0.4819
15969TIP3   OH269397   2.473   0.193   6.101 -0.5438  0.1081 -0.5159
15969TIP3    H169398   2.528   0.150   6.167 -0.7769 -0.2203 -0.5307
15969TIP3    H269399   2.398   0.134   6.091  0.2178 -0.6490 -2.1952
15970TIP3   OH269400   5.450   6.172   0.483 -0.6146 -0.0451  0.5886
15970TIP3    H169401   5.414   6.088   0.510 -0.7370 -0.3241 -0.3883
15970TIP3    H269402   5.374   6.222   0.453 -0.3209 -0.3459 -0.7311
15971TIP3   OH269403   2.267   0.752  12.997  0.0098 -0.3996  0.3543
15971TIP3    H169404   2.257   0.737  12.903  2.2521 -0.5383  0.0667
15971TIP3    H269405   2.205   0.822  13.017 -3.4816 -3.0201 -0.3288
15972TIP3   OH269406   4.608   2.017   1.232 -0.2659  0.1659  0.1402
15972TIP3    H169407   4.591   2.009   1.326  0.5991  0.3043  0.3181
15972TIP3    H269408   4.601   2.111   1.215 -1.8612  0.0188 -0.2426
15973TIP3   OH269409   0.700   2.914   4.714 -0.2586  0.2230  0.3708
15973TIP3    H169410   0.677   2.954   4.630  1.0860  0.1277 -0.0715
15973TIP3    H269411   0.779   2.862   4.695  1.1547  1.6348  2.0327
15974TIP3   OH269412   4.280   2.725   2.893  0.2419 -0.0907 -0.1367
15974TIP3    H169413   4.283   2.669   2.816  2.2328 -2.1034  1.2740
15974TIP3    H269414   4.367   2.717   2.933 -1.2036 -0.6900  3.3061
15975TIP3   OH269415   2.537   4.140  15.653  0.3401 -0.4961  0.1913
15975TIP3    H169416   2.446   4.167  15.646  0.3648 -0.7191 -1.0808
15975TIP3    H269417   2.548   4.117  15.745 -0.3520  1.4138  0.8106
15976TIP3   OH269418   3.967   0.220   3.093 -0.2052  0.3981  0.8001
15976TIP3    H169419   4.061   0.236   3.101 -0.5032  1.2991  3.2537
15976TIP3    H269420   3.932   0.300   3.055 -0.0009 -0.0773 -0.4734
15977TIP3   OH269421   0.645   0.611   1.556  0.7377 -0.0575 -0.1397
15977TIP3    H169422   0.607   0.642   1.474  0.4953 -1.1080 -0.4427
15977TIP3    H269423   0.571   0.579   1.607  1.0653 -1.1528 -0.3066
15978TIP3   OH269424   5.285   4.584  13.920 -0.0591 -0.0927  0.2430
15978TIP3    H169425   5.213   4.537  13.962 -0.4260  1.2037  1.1361
15978TIP3    H269426   5.363   4.558  13.969  0.1187 -1.4891 -0.7189
15979TIP3   OH269427   2.377   3.213  13.828  0.2944 -0.5146 -0.1446
15979TIP3    H169428   2.305   3.228  13.766 -0.7823 -0.4703  1.0849
15979TIP3    H269429   2.435   3.152  13.782 -0.7235 -0.8542 -1.0186
15980TIP3   OH269430   6.811   0.269   5.083 -0.4988 -0.0402  0.2428
15980TIP3    H169431   6.798   0.186   5.035  0.1511  0.0606 -0.1131
15980TIP3    H269432   6.809   0.243   5.175 -1.9318 -0.2164  0.1975
15981TIP3   OH269433   1.320   3.699  12.128 -0.3289  0.0225 -0.0322
15981TIP3    H169434   1.257   3.738  12.189  0.4177  0.4510  0.4959
15981TIP3    H269435   1.404   3.707  12.174  0.3739  1.0431 -1.4249
15982TIP3   OH269436   5.691   2.567  16.021 -0.3743 -0.2849  0.7416
15982TIP3    H169437   5.644   2.540  16.100  0.0911 -0.7839  0.8549
15982TIP3    H269438   5.758   2.500  16.008 -2.9133 -2.4849 -2.3902
15983TIP3   OH269439   3.700   0.292  17.027  0.6054 -0.2598  0.1384
15983TIP3    H169440   3.719   0.386  17.032 -1.6683  0.2924 -0.3599
15983TIP3    H269441   3.718   0.269  16.936  2.7040 -0.7213  0.6324
15984TIP3   OH269442   6.642   6.338  17.030  0.7222 -0.0376  0.6109
15984TIP3    H169443   6.622   6.428  17.058  1.2389  1.0225 -2.0872
15984TIP3    H269444   6.564   6.288  17.054 -0.0858  1.3868  1.0957
15985TIP3   OH269445   6.306   0.314  12.817 -0.2109 -0.3254 -0.1701
15985TIP3    H169446   6.309   0.323  12.912 -0.1140 -0.8553 -0.1179
15985TIP3    H269447   6.234   0.252  12.802 -0.4366  0.0060 -0.4580
15986TIP3   OH269448   6.483   5.149  15.286  0.3792 -0.0032  0.1724
15986TIP3    H169449   6.415   5.092  15.322 -0.7099  1.5931  0.7887
15986TIP3    H269450   6.558   5.092  15.274 -0.8468 -1.6934  0.1360
15987TIP3   OH269451   0.023   4.951   0.243 -0.2531 -0.2043  0.2146
15987TIP3    H169452   0.006   4.933   0.151 -1.2136 -1.1514  0.5481
15987TIP3    H269453  -0.062   4.937   0.285  0.2845 -0.2543  1.3061
15988TIP3   OH269454   1.576   0.047  13.592  0.2156 -0.4255 -0.1686
15988TIP3    H169455   1.651   0.041  13.651 -1.0700 -1.1262  1.4819
15988TIP3    H269456   1.601   0.114  13.529  2.2296 -0.6570  0.3069
15989TIP3   OH269457   3.539   1.791   5.408 -0.4251 -0.3458  0.5928
15989TIP3    H169458   3.598   1.831   5.344  0.8341 -1.2915  1.1279
15989TIP3    H269459   3.482   1.734   5.357 -0.1583 -0.2485  0.1846
15990TIP3   OH269460   0.866   6.637   4.906 -0.1684 -0.1078  0.0774
15990TIP3    H169461   0.901   6.659   4.993 -1.7156  0.5344  0.5851
15990TIP3    H269462   0.785   6.589   4.924 -0.2014 -0.4876 -1.0168
15991TIP3   OH269463   3.159   3.694  15.332  0.2089  0.4377  0.4096
15991TIP3    H169464   3.115   3.617  15.294  2.0357 -1.1874  1.4417
15991TIP3    H269465   3.093   3.763  15.328 -0.9353 -0.6778 -2.1722
15992TIP3   OH269466   2.128   4.755   5.573  0.2041 -0.4197  0.3085
15992TIP3    H169467   2.067   4.729   5.504  0.1558 -0.4320  0.3562
15992TIP3    H269468   2.174   4.673   5.596  0.5194 -0.3340 -0.0053
15993TIP3   OH269469   0.803   3.919   3.824  0.2802  0.2154 -0.2545
15993TIP3    H169470   0.877   3.980   3.815  0.7611 -0.4533 -1.0006
15993TIP3    H269471   0.828   3.863   3.898  1.2087 -0.9060 -1.3699
15994TIP3   OH269472   5.329   5.074  10.523 -0.4946  0.3079 -0.5699
15994TIP3    H169473   5.256   5.037  10.572 -1.2261  0.0357 -1.8212
15994TIP3    H269474   5.379   5.124  10.588 -0.6201 -1.1925  0.7357
15995TIP3   OH269475   6.830   5.143   2.413  0.1747  0.0054  0.8614
15995TIP3    H169476   6.798   5.198   2.484 -0.1433  0.3278  0.4710
15995TIP3    H269477   6.909   5.101   2.449 -0.1328 -0.0444  1.4916
15996TIP3   OH269478   0.750   3.501  12.833 -0.1038 -0.1552 -0.2767
15996TIP3    H169479   0.819   3.567  12.843 -0.3587  0.3903 -1.8890
15996TIP3    H269480   0.693   3.515  12.909  1.4926 -0.5988  1.0884
15997TIP3   OH269481   0.003   6.008  11.294 -0.4007  1.0595  0.5839
15997TIP3    H169482   0.061   5.933  11.304 -0.1844  0.9920 -0.9009
15997TIP3    H269483  -0.085   5.973  11.309 -0.3657  0.3247 -0.7318
15998TIP3   OH269484   0.923   6.133  15.535  0.6020  0.3722  0.5444
15998TIP3    H169485   0.900   6.175  15.618 -0.4339 -0.2164  0.5769
15998TIP3    H269486   0.942   6.205  15.475  2.3805  0.8011  1.5407
15999TIP3   OH269487   0.266   5.483   3.293 -0.1965  0.1439  0.3210
15999TIP3    H169488   0.227   5.569   3.279  1.6393  0.9997  0.2038
15999TIP3    H269489   0.264   5.441   3.207 -1.6851 -0.2396  0.5049
16000TIP3   OH269490   5.481   4.555   1.479  0.1856  0.4440 -0.9529
16000TIP3    H169491   5.432   4.636   1.465  2.0881  2.2974  1.9237
16000TIP3    H269492   5.446   4.521   1.562  0.1795 -1.0966 -1.5650
16001TIP3   OH269493   5.330   1.974  14.922 -0.0531  0.4309 -0.2426
16001TIP3    H169494   5.403   1.913  14.933  0.5687  1.5927  3.4055
16001TIP3    H269495   5.366   2.047  14.872  1.0395  0.5142  0.6244
16002TIP3   OH269496   4.520   1.392   5.899  0.8074 -0.0312 -0.5936
16002TIP3    H169497   4.552   1.344   5.974 -3.3824 -0.8228  0.9675
16002TIP3    H269498   4.586   1.459   5.883  2.7200 -0.9448  2.6233
16003TIP3   OH269499   0.353   5.080  12.311 -0.4030  0.0714  0.2370
16003TIP3    H169500   0.421   5.133  12.351  0.7748 -0.8465 -0.4581
16003TIP3    H269501   0.345   5.004  12.369 -2.2389  1.0359  1.3533
16004TIP3   OH269502   1.037   1.751   4.113 -0.1144  0.1281 -0.4644
16004TIP3    H169503   0.969   1.762   4.180  1.3144  0.3528  1.0234
16004TIP3    H269504   0.995   1.699   4.045 -1.3435 -1.0519  1.1037
16005TIP3   OH269505   6.488   0.570  12.426 -0.3822  0.0084  0.3109
16005TIP3    H169506   6.527   0.485  12.404 -0.1448 -0.0146  0.8190
16005TIP3    H269507   6.394   0.554  12.422 -0.4497 -1.1407  3.4607
16006TIP3   OH269508   6.218   1.943  17.002  0.0041 -0.0254  0.1891
16006TIP3    H169509   6.253   2.032  17.000  0.7942 -0.2699  1.5655
16006TIP3    H269510   6.295   1.888  17.014 -0.6089 -0.7676  0.8526
16007TIP3   OH269511   5.725   4.466   3.444 -0.0892  0.2640  0.4738
16007TIP3    H169512   5.634   4.477   3.471 -0.6951 -2.8856  0.0604
16007TIP3    H269513   5.770   4.437   3.523 -0.3595 -2.0750 -0.1758
16008TIP3   OH269514   0.797   4.761   0.894 -0.1391 -0.2068  0.1414
16008TIP3    H169515   0.846   4.683   0.920 -2.1672 -0.9417  2.0204
16008TIP3    H269516   0.705   4.735   0.898 -0.8259  1.8252 -0.8232
16009TIP3   OH269517   1.131   5.486   0.057 -0.0780 -0.1557  0.0580
16009TIP3    H169518   1.094   5.489  -0.031 -0.4343 -1.2575  0.1597
16009TIP3    H269519   1.087   5.556   0.104  0.3026  0.6141 -0.7032
16010TIP3   OH269520   0.034   0.309  14.638 -0.1988 -0.2371 -0.2190
16010TIP3    H169521  -0.049   0.263  14.629 -1.1933  1.5309 -0.5122
16010TIP3    H269522   0.078   0.297  14.554 -0.0146 -1.3974  0.0296
16011TIP3   OH269523   5.952   5.648  12.112 -0.1124  0.1174  0.1029
16011TIP3    H169524   5.988   5.582  12.052 -1.2853 -0.1072 -0.3762
16011TIP3    H269525   6.014   5.721  12.106 -0.3546  0.2303 -1.6490
16012TIP3   OH269526   6.045   5.274  15.291 -0.1618  0.2872 -0.0882
16012TIP3    H169527   5.999   5.204  15.339 -0.1558  0.7112  0.5564
16012TIP3    H269528   6.026   5.353  15.342 -1.0605  0.9446 -1.3993
16013TIP3   OH269529   2.068   5.091  11.953 -0.3067  0.4065 -0.2441
16013TIP3    H169530   2.115   5.149  11.893  0.0901 -0.3643 -0.7096
16013TIP3    H269531   2.102   5.113  12.039 -0.6539  1.3189 -0.3408
16014TIP3   OH269532   2.724   4.929  10.141  0.1280 -0.3668  0.5715
16014TIP3    H169533   2.805   4.978  10.154 -0.0861  0.6083 -1.3723
16014TIP3    H269534   2.750   4.837  10.151  1.4205 -0.0637  0.2460
16015TIP3   OH269535   4.482   3.247   0.690 -0.2205  0.7515 -0.4862
16015TIP3    H169536   4.514   3.172   0.640 -0.1775 -0.2513  0.9744
16015TIP3    H269537   4.550   3.313   0.681  2.1436 -1.1190  2.0936
16016TIP3   OH269538   0.470   0.660   4.801 -0.4411  0.4923  0.0111
16016TIP3    H169539   0.533   0.731   4.792 -1.5307  1.4916  0.0778
16016TIP3    H269540   0.447   0.637   4.711  1.0492 -0.8682 -0.0755
16017TIP3   OH269541   6.413   3.050  15.525 -0.1982  0.0355 -0.2054
16017TIP3    H169542   6.426   3.019  15.436 -0.1802  0.1709 -0.2509
16017TIP3    H269543   6.357   3.128  15.515  0.6453  0.6630 -0.1937
16018TIP3   OH269544   3.691   2.325   3.414  0.2769 -0.2359 -0.1123
16018TIP3    H169545   3.697   2.266   3.490 -1.3478 -0.6716 -0.2787
16018TIP3    H269546   3.749   2.398   3.435 -0.8804  0.1539  2.0501
16019TIP3   OH269547   5.142   4.845  16.668 -0.3267 -0.0327  0.0938
16019TIP3    H169548   5.220   4.843  16.722  0.9691 -3.8621 -1.5758
16019TIP3    H269549   5.172   4.876  16.582 -1.5004  1.9773  0.3313
16020TIP3   OH269550   0.232   6.614  12.355  0.6870  0.2674  0.1771
16020TIP3    H169551   0.145   6.651  12.344 -0.3974 -2.3472 -1.0673
16020TIP3    H269552   0.278   6.636  12.274  0.9204  0.9648  0.4936
16021TIP3   OH269553   4.200   2.630   0.392 -0.0183  0.0948  0.2765
16021TIP3    H169554   4.228   2.684   0.466 -0.3925 -0.6508  0.9803
16021TIP3    H269555   4.257   2.553   0.396 -0.7103 -0.4251  0.4207
16022TIP3   OH269556   5.574   3.263  13.966  0.0814 -0.2104  0.1974
16022TIP3    H169557   5.630   3.339  13.952 -1.8707  1.1206 -0.8944
16022TIP3    H269558   5.627   3.203  14.018  1.4503  2.2128  1.7753
16023TIP3   OH269559   3.961   6.654   0.350 -0.3704 -0.4582 -0.3546
16023TIP3    H169560   3.960   6.668   0.444  1.8375  0.6578 -0.4232
16023TIP3    H269561   3.876   6.617   0.330 -1.1558 -0.0629  1.9777
16024TIP3   OH269562   4.171   2.554   5.270 -0.2492 -0.6851  0.0240
16024TIP3    H169563   4.149   2.532   5.179 -0.1881 -0.0822 -0.1381
16024TIP3    H269564   4.257   2.515   5.284  0.0285 -0.2391 -0.3847
16025TIP3   OH269565   5.768   4.376   2.890  0.3082  0.5248 -0.0069
16025TIP3    H169566   5.691   4.425   2.917 -0.0624 -0.6020  1.1177
16025TIP3    H269567   5.841   4.436   2.906 -0.2367  1.1902  0.0322
16026TIP3   OH269568   4.963   4.352  13.462  0.1898  0.3793 -0.3746
16026TIP3    H169569   4.987   4.409  13.389  0.3746  1.2949  0.3774
16026TIP3    H269570   5.046   4.326  13.501  0.1549 -1.2304 -1.2903
16027TIP3   OH269571   0.805   6.780  14.414 -0.5982 -0.2779  0.2623
16027TIP3    H169572   0.826   6.746  14.501  0.2241  0.6960  0.4637
16027TIP3    H269573   0.807   6.875  14.424 -0.8904 -0.1492 -0.7373
16028TIP3   OH269574   6.508   2.477  11.273  0.8176 -0.0762 -0.6588
16028TIP3    H169575   6.568   2.455  11.345 -1.0090 -0.7217  0.7509
16028TIP3    H269576   6.449   2.402  11.268 -1.2011  1.4171 -0.5144
16029TIP3   OH269577   1.155   3.179   2.744 -0.3705 -0.1786  1.0728
16029TIP3    H169578   1.129   3.093   2.779 -0.6358 -0.0012  1.3205
16029TIP3    H269579   1.109   3.186   2.661  1.7658 -1.4321 -0.2994
16030TIP3   OH269580   4.188   0.249  16.321  0.4880  0.1598  0.5796
16030TIP3    H169581   4.106   0.281  16.284  0.2799 -1.2269 -0.2160
16030TIP3    H269582   4.193   0.158  16.293  1.3709 -0.3334  2.2278
16031TIP3   OH269583   1.081   3.638   4.294 -0.1241  0.5698 -0.4286
16031TIP3    H169584   0.997   3.609   4.258 -0.1106  0.5241 -0.4230
16031TIP3    H269585   1.146   3.585   4.248 -0.1140  0.4244 -0.2473
16032TIP3   OH269586   3.978   0.603   6.341  0.6417 -0.0211 -0.4320
16032TIP3    H169587   3.986   0.602   6.436  1.3974  1.2573 -0.4494
16032TIP3    H269588   3.910   0.669   6.323  1.1880  0.4590 -0.7893
16033TIP3   OH269589   3.265   4.632  13.285 -0.0393  0.1355 -1.2783
16033TIP3    H169590   3.326   4.563  13.261  0.1255  0.0065 -0.4878
16033TIP3    H269591   3.203   4.591  13.345 -0.5917  0.4012 -1.6472
16034TIP3   OH269592   1.077   5.081   4.057  0.6033  0.1494 -0.1977
16034TIP3    H169593   1.107   5.153   4.113  0.0700  0.0489  0.2191
16034TIP3    H269594   0.986   5.067   4.082  0.6545 -0.5594 -0.3965
16035TIP3   OH269595   3.469   4.176  14.669 -0.5571 -0.2201  0.0485
16035TIP3    H169596   3.379   4.203  14.689  0.0346  1.8987  0.1331
16035TIP3    H269597   3.481   4.199  14.577 -0.5586 -1.9328 -0.4017
16036TIP3   OH269598   2.135   2.956  11.738  0.1446  0.6800 -0.3071
16036TIP3    H169599   2.178   3.041  11.730  2.3888 -0.2038  1.4200
16036TIP3    H269600   2.062   2.971  11.798  0.6760  1.3314  0.1772
16037TIP3   OH269601   2.761   1.251  15.239 -0.1288 -0.7301  0.3912
16037TIP3    H169602   2.813   1.174  15.218  0.4981  0.2130 -1.7393
16037TIP3    H269603   2.823   1.324  15.239 -1.0775  0.1060  0.0208
16038TIP3   OH269604   2.637   3.835   5.094  0.0533  0.0046  0.0450
16038TIP3    H169605   2.675   3.897   5.033 -0.9005  0.6288  0.0651
16038TIP3    H269606   2.653   3.872   5.180 -0.2821  0.0981  0.0701
16039TIP3   OH269607   5.783   3.429  12.399 -0.1372 -0.2872  0.3437
16039TIP3    H169608   5.843   3.363  12.366 -0.0148  0.6573 -1.4447
16039TIP3    H269609   5.700   3.410  12.356  0.0434  1.0255 -0.6515
16040TIP3   OH269610   2.621   0.283   1.852  0.0905  0.0315 -0.4839
16040TIP3    H169611   2.683   0.332   1.906 -0.7616  1.4438 -0.7327
16040TIP3    H269612   2.675   0.235   1.790  0.9507  1.1768 -0.6563
16041TIP3   OH269613   0.242   2.728   2.786 -0.2061  0.1116 -0.3729
16041TIP3    H169614   0.216   2.673   2.712 -0.4995  0.0027 -0.1904
16041TIP3    H269615   0.169   2.722   2.847 -0.3034  0.8174 -0.4104
16042TIP3   OH269616   6.106   0.722  14.159 -0.3230 -0.4806 -0.1172
16042TIP3    H169617   6.183   0.665  14.159  0.3670  0.4329 -0.2778
16042TIP3    H269618   6.083   0.731  14.252 -0.8658 -1.5725 -0.1349
16043TIP3   OH269619   0.424   1.714   6.072  0.3189 -0.5801 -0.0020
16043TIP3    H169620   0.377   1.702   5.989  1.6301  0.9809 -1.0340
16043TIP3    H269621   0.361   1.757   6.130 -1.1406 -3.0935  0.4220
16044TIP3   OH269622   0.797   2.387  12.468  0.3569 -0.1662 -0.1664
16044TIP3    H169623   0.804   2.476  12.503 -0.5157  0.3283 -1.1993
16044TIP3    H269624   0.737   2.342  12.527  0.9114 -0.1290  0.4390
16045TIP3   OH269625   4.665   0.380  14.503 -0.8032 -0.6590  0.0465
16045TIP3    H169626   4.646   0.288  14.485  1.3593 -0.8038 -2.0671
16045TIP3    H269627   4.658   0.424  14.417  1.6831  0.3866  0.2818
16046TIP3   OH269628   3.281   4.036  12.542 -0.0541  0.1608 -0.9027
16046TIP3    H169629   3.273   3.985  12.461  0.0420 -0.9166 -0.2390
16046TIP3    H269630   3.208   4.008  12.597 -0.1000  0.8651 -0.5819
16047TIP3   OH269631   2.442   5.263   1.774  0.2471  0.3628  0.3813
16047TIP3    H169632   2.460   5.344   1.728  2.0229  0.3056  0.9110
16047TIP3    H269633   2.508   5.201   1.743 -0.3310 -0.5378  0.8637
16048TIP3   OH269634   0.764   0.473  14.213  0.0729  0.6514  0.5301
16048TIP3    H169635   0.760   0.542  14.280  1.8448  1.6700 -0.3170
16048TIP3    H269636   0.851   0.435  14.224  0.1485  0.3989 -0.7630
16049TIP3   OH269637   3.363   0.261   3.527 -1.0931  0.2278  0.4375
16049TIP3    H169638   3.423   0.194   3.495 -0.3243  0.9089  0.4231
16049TIP3    H269639   3.288   0.212   3.562 -1.1720 -0.5928 -0.8187
16050TIP3   OH269640   1.057   5.851  13.181  0.5277  0.5336  0.4744
16050TIP3    H169641   0.993   5.846  13.111 -0.3996 -2.4540  1.3794
16050TIP3    H269642   1.140   5.827  13.140  0.0643 -0.7937  0.2734
16051TIP3   OH269643   5.594   4.672  13.854  0.2212 -0.3072 -0.2233
16051TIP3    H169644   5.561   4.606  13.914  0.2095 -0.2748 -0.1940
16051TIP3    H269645   5.640   4.735  13.910  0.4585 -0.4293 -0.2798
16052TIP3   OH269646   0.618   5.141   3.666 -0.2101 -0.4867  0.5126
16052TIP3    H169647   0.632   5.227   3.705  1.3126  0.0931 -1.1778
16052TIP3    H269648   0.701   5.095   3.679 -0.4352 -1.0776 -0.0706
16053TIP3   OH269649   6.663   1.611   0.816  0.0907  0.2528  0.3591
16053TIP3    H169650   6.623   1.555   0.882 -1.1638 -0.8511 -1.2638
16053TIP3    H269651   6.592   1.635   0.757  1.3870  0.0178 -1.4064
16054TIP3   OH269652   1.888   3.256  11.693  0.5195  1.3275  0.4867
16054TIP3    H169653   1.895   3.190  11.762 -2.4771 -1.4296 -1.5346
16054TIP3    H269654   1.978   3.277  11.670  1.5981 -0.8435  2.3781
16055TIP3   OH269655   6.072   2.729   3.148  0.0097 -0.3440  0.0870
16055TIP3    H169656   6.022   2.801   3.187  1.6587  1.8131 -1.5549
16055TIP3    H269657   6.030   2.714   3.063 -0.8616 -2.0036  0.7635
16056TIP3   OH269658   5.864   6.233  13.694 -0.4530  0.1242  0.3846
16056TIP3    H169659   5.854   6.146  13.656  1.6507  0.1829 -0.4699
16056TIP3    H269660   5.821   6.291  13.632 -1.7338 -0.2702  0.8802
16057TIP3   OH269661   3.500   0.924   4.620 -0.3341  0.7093  0.2046
16057TIP3    H169662   3.470   1.006   4.580 -1.7020  0.2858  0.2861
16057TIP3    H269663   3.574   0.897   4.567 -0.5055  1.4809 -0.4514
16058TIP3   OH269664   3.094   6.053  13.580 -0.1227  0.2737  0.1340
16058TIP3    H169665   3.180   6.086  13.603 -0.4748 -0.0864  2.2261
16058TIP3    H269666   3.042   6.064  13.660 -1.8216 -0.1470 -0.8547
16059TIP3   OH269667   5.012   0.574  12.080 -0.6786 -0.5623  0.1276
16059TIP3    H169668   4.986   0.614  11.997  0.8062 -2.1358 -1.1725
16059TIP3    H269669   5.055   0.645  12.128 -1.1400  0.2636 -0.6422
16060TIP3   OH269670   0.337   6.477   0.516  0.7298 -0.1753  0.1087
16060TIP3    H169671   0.292   6.395   0.497  1.6996 -0.6364 -0.2929
16060TIP3    H269672   0.289   6.543   0.465 -0.0310 -0.4905  0.4040
16061TIP3   OH269673   5.425   4.819   5.188 -0.1238 -0.3361  0.0089
16061TIP3    H169674   5.471   4.759   5.246  1.1194  1.0432  0.5334
16061TIP3    H269675   5.447   4.789   5.100 -0.5614 -1.3837  0.2429
16062TIP3   OH269676   6.029   3.406   5.436  0.1228 -0.2375  0.2298
16062TIP3    H169677   6.043   3.436   5.347 -0.2668  0.7308  0.4767
16062TIP3    H269678   5.940   3.371   5.436 -0.1843  0.5117  0.4130
16063TIP3   OH269679   2.320   0.646  13.301 -0.0958 -0.9457  0.3853
16063TIP3    H169680   2.324   0.556  13.332 -0.6805 -0.3500  2.3100
16063TIP3    H269681   2.263   0.691  13.364  1.5402  1.1683  0.4723
16064TIP3   OH269682   4.726   0.565   5.224  0.4997  0.3835 -0.0086
16064TIP3    H169683   4.683   0.481   5.206 -0.5802  0.5917  1.3990
16064TIP3    H269684   4.815   0.541   5.249  1.6978  0.0069 -3.9501
16065TIP3   OH269685   0.755   2.394   3.333  0.0543  0.2200 -0.6876
16065TIP3    H169686   0.750   2.340   3.254  0.1249 -0.2872 -0.3482
16065TIP3    H269687   0.679   2.453   3.326  0.7655  1.0478 -1.7569
16066TIP3   OH269688   3.775   3.058  15.457 -0.0196 -0.5737  0.4874
16066TIP3    H169689   3.850   3.116  15.464  0.4487 -1.1473  0.3407
16066TIP3    H269690   3.783   2.999  15.533 -0.3062 -0.6530  0.4569
16067TIP3   OH269691   3.817   0.996   6.287  0.1717  0.0006 -0.1579
16067TIP3    H169692   3.844   1.055   6.357  0.1856  0.4698 -0.5488
16067TIP3    H269693   3.815   1.051   6.209  0.2392 -0.5327 -0.5432
16068TIP3   OH269694   3.162   6.137   5.094 -0.3402 -0.8281  0.1757
16068TIP3    H169695   3.238   6.091   5.128 -1.4705 -2.5686  0.4796
16068TIP3    H269696   3.093   6.070   5.089 -2.1966  0.8946  1.0265
16069TIP3   OH269697   4.977   0.913   2.690  0.5971  0.4401  0.4151
16069TIP3    H169698   5.064   0.890   2.724  0.5251 -2.3893 -1.0682
16069TIP3    H269699   4.918   0.850   2.730 -0.0042 -0.6986 -2.0763
16070TIP3   OH269700   2.043   0.002  14.899  0.3577 -0.2689  0.9338
16070TIP3    H169701   2.078  -0.034  14.818  2.7300 -0.7421  2.0691
16070TIP3    H269702   1.984  -0.065  14.932 -1.6461  0.4568 -0.9526
16071TIP3   OH269703   4.598   3.014  16.217  0.1252 -0.0605  0.6352
16071TIP3    H169704   4.594   3.108  16.234  1.8992  0.5807 -1.8954
16071TIP3    H269705   4.675   3.002  16.162 -0.7365 -2.8266 -0.1818
16072TIP3   OH269706   3.368   3.701   3.132  0.3324 -0.6826 -0.3290
16072TIP3    H169707   3.359   3.664   3.044  0.3872  0.2520 -0.7425
16072TIP3    H269708   3.283   3.740   3.150  0.6666  0.1128 -0.4384
16073TIP3   OH269709   0.478   2.302   5.358  0.0591  0.4772 -0.1166
16073TIP3    H169710   0.489   2.261   5.272 -2.8294 -0.1355 -0.2946
16073TIP3    H269711   0.513   2.238   5.419 -2.2858 -1.3768 -0.5670
16074TIP3   OH269712   4.957   4.363  14.368 -0.0735  0.0939 -0.3718
16074TIP3    H169713   5.008   4.286  14.395 -1.1081 -1.6560 -2.9358
16074TIP3    H269714   5.004   4.437  14.405  1.1927 -1.7187  1.9570
16075TIP3   OH269715   5.292   0.554  12.431 -0.0925  0.3960  0.2422
16075TIP3    H169716   5.352   0.564  12.505  1.4264 -0.3720 -0.8349
16075TIP3    H269717   5.205   0.557  12.471  0.6370  1.1407  1.9053
16076TIP3   OH269718   2.570   2.826  15.585 -0.2943  0.3651 -0.4925
16076TIP3    H169719   2.522   2.753  15.622 -0.6913  1.2539  0.8134
16076TIP3    H269720   2.653   2.828  15.633 -0.3804  0.8990 -0.3523
16077TIP3   OH269721   0.367   4.194   2.121 -0.3638 -0.0808 -0.2540
16077TIP3    H169722   0.387   4.261   2.186  2.8323  0.2813 -1.4507
16077TIP3    H269723   0.307   4.237   2.060 -0.0245  0.9697  0.1391
16078TIP3   OH269724   3.628   2.691   1.508  0.3817 -0.3384  0.3446
16078TIP3    H169725   3.696   2.725   1.566 -0.2296  0.0303  0.8572
16078TIP3    H269726   3.566   2.763   1.498  0.4801 -0.3843 -0.7961
16079TIP3   OH269727   6.267   5.004   3.351 -0.1387  0.4574  0.7922
16079TIP3    H169728   6.333   4.943   3.318 -0.6810 -1.4325  2.9773
16079TIP3    H269729   6.189   4.951   3.364 -2.1194  2.5638 -1.4147
16080TIP3   OH269730   0.774   6.144  15.122  0.0970 -0.4223  0.1580
16080TIP3    H169731   0.809   6.068  15.075  0.8538 -0.8325  1.3326
16080TIP3    H269732   0.696   6.170  15.072  0.7006 -1.0147 -1.1244
16081TIP3   OH269733   0.748   2.927  13.300 -0.0310  0.4672  0.5847
16081TIP3    H169734   0.771   2.883  13.218 -1.9427  0.9845 -0.2908
16081TIP3    H269735   0.817   2.992  13.312  1.4143 -0.9925  0.5260
16082TIP3   OH269736   2.319   1.580  11.400 -0.4809 -0.7294 -0.2630
16082TIP3    H169737   2.295   1.659  11.353  1.1114 -0.5408 -0.8362
16082TIP3    H269738   2.374   1.611  11.472 -0.4850 -1.2476 -0.0292
16083TIP3   OH269739   6.025   5.259  11.756 -0.0870 -0.1268 -0.2644
16083TIP3    H169740   5.960   5.251  11.686 -1.0935 -0.5024  0.6873
16083TIP3    H269741   6.106   5.224  11.718 -0.3454  0.6229 -1.5641
16084TIP3   OH269742   4.880   1.140   2.562 -0.1422 -0.3879 -0.4228
16084TIP3    H169743   4.956   1.182   2.521 -0.3676 -0.2616 -0.7186
16084TIP3    H269744   4.917   1.066   2.611  0.4759  1.2294  1.6882
16085TIP3   OH269745   4.838   4.890   2.393  0.5735 -0.3137 -0.1260
16085TIP3    H169746   4.817   4.911   2.302  0.2102 -0.8648 -0.1694
16085TIP3    H269747   4.934   4.892   2.397  0.5711  0.7372 -0.2723
16086TIP3   OH269748   2.275   4.021  14.072  0.2962  0.0656 -0.0586
16086TIP3    H169749   2.190   3.984  14.049  0.5847  0.1408 -1.2974
16086TIP3    H269750   2.285   4.098  14.015  1.5803 -0.4636 -0.5879
16087TIP3   OH269751   5.899   5.272  12.594  0.2774 -0.3294  0.4912
16087TIP3    H169752   5.914   5.285  12.501  0.3434 -3.6303 -0.0970
16087TIP3    H269753   5.978   5.229  12.626 -0.6833 -1.4632  1.4721
16088TIP3   OH269754   3.452   2.844   1.759 -0.5734 -0.4704  0.1866
16088TIP3    H169755   3.527   2.862   1.815  1.5350 -1.4453 -2.1486
16088TIP3    H269756   3.449   2.748   1.752 -1.1716 -0.4020 -0.8389
16089TIP3   OH269757   4.981   6.330   0.443  0.7365 -0.2570  0.2396
16089TIP3    H169758   4.927   6.253   0.459  0.3161 -1.0932 -3.8913
16089TIP3    H269759   4.918   6.399   0.421  1.1452 -0.5559 -2.1492
16090TIP3   OH269760   2.101   1.572   5.362 -0.2365 -0.0416 -0.2009
16090TIP3    H169761   2.119   1.664   5.383 -2.8083  0.3671  0.5556
16090TIP3    H269762   2.160   1.522   5.419 -0.9920  1.1566  1.7152
16091TIP3   OH269763   1.889   3.968  13.827  0.2949  0.4939  0.1425
16091TIP3    H169764   1.807   4.002  13.790 -0.3653 -1.0457  0.1115
16091TIP3    H269765   1.903   3.885  13.783  1.5451  0.4300  0.6240
16092TIP3   OH269766   0.199   2.482  13.162  0.1659 -0.7161  0.0647
16092TIP3    H169767   0.255   2.434  13.101  2.4204  0.5428  1.0308
16092TIP3    H269768   0.199   2.572  13.129 -0.0268 -0.3854  0.9530
16093TIP3   OH269769   2.047   1.137  15.907  0.1402  0.2187  0.3772
16093TIP3    H169770   2.035   1.079  15.832  1.4752 -1.3235  1.2902
16093TIP3    H269771   2.048   1.225  15.870  1.3705 -0.5251 -1.5149
16094TIP3   OH269772   3.115   3.328   6.544 -0.2862 -0.4130 -0.2451
16094TIP3    H169773   3.083   3.418   6.545 -0.7035 -0.5671  0.3558
16094TIP3    H269774   3.136   3.308   6.635  0.1699 -0.7957 -0.4297
16095TIP3   OH269775   6.075   3.248  13.928 -0.5415  0.5206 -0.3243
16095TIP3    H169776   5.992   3.201  13.935 -0.4524  0.5910  2.2734
16095TIP3    H269777   6.062   3.310  13.856 -1.4361 -1.8556 -2.3389
16096TIP3   OH269778   0.181   0.218  14.425  0.4386 -0.1311  0.0390
16096TIP3    H169779   0.196   0.132  14.385  1.3897 -0.0548  0.2022
16096TIP3    H269780   0.269   0.251  14.445  0.1617  1.4532 -1.1851
16097TIP3   OH269781   5.034   4.943  15.694  0.5000  0.1846  0.1765
16097TIP3    H169782   5.118   4.963  15.653  0.8632 -0.0175  0.8041
16097TIP3    H269783   5.013   5.022  15.744  1.9506 -0.8849  2.6836
16098TIP3   OH269784   2.367   0.514  16.312 -0.4216 -0.1751  0.2106
16098TIP3    H169785   2.435   0.530  16.377 -1.5371 -1.0371  1.6580
16098TIP3    H269786   2.326   0.432  16.340 -1.6662  0.0055 -0.9565
16099TIP3   OH269787   3.419   0.123  12.077  0.2465 -0.0351  0.4315
16099TIP3    H169788   3.478   0.049  12.061 -2.8001 -3.0409  1.7123
16099TIP3    H269789   3.370   0.133  11.995 -0.1681 -0.3104  0.6391
16100TIP3   OH269790   3.256   5.531  15.844  0.1094 -0.1178  0.1437
16100TIP3    H169791   3.192   5.547  15.775 -0.2475  3.1452  1.0767
16100TIP3    H269792   3.341   5.538  15.800 -0.1206  1.5669 -0.1079
16101TIP3   OH269793   4.957   5.459   3.640 -0.4556  0.2015  0.3192
16101TIP3    H169794   4.950   5.550   3.669 -0.3198  0.3618 -0.1490
16101TIP3    H269795   5.032   5.424   3.688  0.4965  0.8004 -0.6893
16102TIP3   OH269796   1.259   4.148   2.607  0.0808  0.1555 -0.4010
16102TIP3    H169797   1.229   4.153   2.697  1.5321 -0.1354  0.1227
16102TIP3    H269798   1.337   4.203   2.604  0.4215 -0.3482 -1.3134
16103TIP3   OH269799   4.990   2.605   5.353 -0.6083 -0.5511  0.2780
16103TIP3    H169800   4.989   2.519   5.311 -0.5086 -0.9860  1.1361
16103TIP3    H269801   4.910   2.648   5.323 -1.2704 -1.4160  0.7709
16104TIP3   OH269802   6.145   6.503  14.002  0.7668  0.4787 -0.1168
16104TIP3    H169803   6.076   6.502  13.936  1.3227 -0.4605 -0.7099
16104TIP3    H269804   6.116   6.438  14.067  2.7000 -2.6540 -2.1504
16105TIP3   OH269805   5.584   3.592  15.495 -0.1900  0.1210 -0.1157
16105TIP3    H169806   5.573   3.605  15.589 -1.9496 -1.5480 -0.0262
16105TIP3    H269807   5.572   3.498  15.483  0.0035  0.3137 -2.0182
16106TIP3   OH269808   6.661   5.427   0.135  0.1909  0.1017  0.1692
16106TIP3    H169809   6.730   5.361   0.147  1.7377 -0.0779 -6.2794
16106TIP3    H269810   6.585   5.377   0.106 -1.2101  0.7706  2.4237
16107TIP3   OH269811   0.422   1.816   4.745 -0.5313 -0.1391  0.1114
16107TIP3    H169812   0.379   1.810   4.831  1.0337 -2.4818  0.8411
16107TIP3    H269813   0.514   1.829   4.766  0.6333 -4.9323 -0.8651
16108TIP3   OH269814   3.102   1.155  16.591 -0.4970  0.0880 -0.0822
16108TIP3    H169815   3.169   1.142  16.658  1.0433 -0.1825 -1.6340
16108TIP3    H269816   3.106   1.078  16.536 -1.2297  0.6375 -0.9464
16109TIP3   OH269817   0.602   4.355  15.278 -0.0751  0.2611  0.0627
16109TIP3    H169818   0.522   4.351  15.329 -0.1678  1.0873 -0.0142
16109TIP3    H269819   0.573   4.379  15.190  0.3358  1.4479  0.2397
16110TIP3   OH269820   3.611   4.076  10.489  0.1476  0.1663 -0.5769
16110TIP3    H169821   3.671   4.025  10.434  1.2846  0.3788  0.4278
16110TIP3    H269822   3.608   4.162  10.448 -0.9082 -0.3426 -1.6465
16111TIP3   OH269823   3.442   3.269   0.141  0.0727 -0.2687  0.2222
16111TIP3    H169824   3.497   3.196   0.167 -1.8275 -1.7460  0.3489
16111TIP3    H269825   3.408   3.305   0.223  1.5664  1.3005  0.2101
16112TIP3   OH269826   4.487   3.290  15.283  0.0376 -0.5462  0.1711
16112TIP3    H169827   4.450   3.364  15.332  2.2955  0.3525  0.6477
16112TIP3    H269828   4.577   3.316  15.266  0.5526 -2.7241 -0.6993
16113TIP3   OH269829   6.594   4.365  13.237 -0.1422  0.0297 -0.6565
16113TIP3    H169830   6.584   4.390  13.145  0.5065  1.1289 -0.4444
16113TIP3    H269831   6.538   4.288  13.247 -0.7029  0.2652 -1.8203
16114TIP3   OH269832   4.260   5.959  14.833  0.0109  0.1871  0.1460
16114TIP3    H169833   4.288   5.877  14.872 -0.3685 -0.0285 -0.0298
16114TIP3    H269834   4.293   5.956  14.743 -2.1372 -0.9179 -0.6765
16115TIP3   OH269835   3.249   2.918  11.796 -0.7130 -0.1480 -0.2370
16115TIP3    H169836   3.303   2.896  11.872 -2.5891 -1.9544  0.6764
16115TIP3    H269837   3.311   2.954  11.733  1.3273 -0.8744  1.2274
16116TIP3   OH269838   4.998   5.850   4.585  0.3338 -0.2455  0.1106
16116TIP3    H169839   4.958   5.897   4.512 -0.0240  0.7135  0.8882
16116TIP3    H269840   5.009   5.761   4.554  0.6517  0.2559 -1.2835
16117TIP3   OH269841   4.628   0.473   3.793  0.1166 -0.2315 -0.2652
16117TIP3    H169842   4.682   0.424   3.730 -1.1883 -1.5734 -0.3975
16117TIP3    H269843   4.572   0.528   3.739 -0.1983 -0.5125 -0.2245
16118TIP3   OH269844   4.894   6.215   1.015 -0.1952  0.2386  0.4102
16118TIP3    H169845   4.823   6.238   0.955 -0.8668 -1.3668  0.5461
16118TIP3    H269846   4.970   6.201   0.958 -0.4456  0.2141  0.0801
16119TIP3   OH269847   4.248   2.494   2.696 -0.5545 -0.1992  0.6331
16119TIP3    H169848   4.298   2.533   2.624  2.0907 -1.4459  1.6419
16119TIP3    H269849   4.161   2.534   2.689  0.3746  1.7289 -1.5848
16120TIP3   OH269850   5.259   2.049   5.664 -0.8265  0.6728 -0.0476
16120TIP3    H169851   5.207   2.009   5.595 -0.6181 -0.7028  0.5682
16120TIP3    H269852   5.226   2.139   5.669 -3.5448 -0.2688  0.6683
16121TIP3   OH269853   4.626   6.267  10.936 -0.3080 -0.0217  0.6975
16121TIP3    H169854   4.534   6.286  10.950 -0.1993 -1.0415  3.2960
16121TIP3    H269855   4.628   6.216  10.855 -1.8293  1.2208 -0.1673
16122TIP3   OH269856   2.672   1.074   4.999  0.1641 -0.1042 -0.2929
16122TIP3    H169857   2.622   1.145   4.960 -0.1359 -0.1804 -0.0537
16122TIP3    H269858   2.761   1.108   5.005  0.0284  0.2436 -0.2082
16123TIP3   OH269859   2.811   2.638  16.987  0.3410 -0.0540  0.1470
16123TIP3    H169860   2.767   2.675  17.063  1.4727  0.6465  0.4877
16123TIP3    H269861   2.834   2.549  17.012  0.3738  0.0504  0.4852
16124TIP3   OH269862   0.351   5.809  16.019  0.8357 -0.1781  0.5195
16124TIP3    H169863   0.343   5.853  15.934  0.8319  2.6298  1.8783
16124TIP3    H269864   0.299   5.862  16.079  0.5163 -2.3206  2.2487
16125TIP3   OH269865   6.029   2.252  11.197 -0.5574  0.4502 -0.0422
16125TIP3    H169866   5.953   2.259  11.140 -0.0420  1.2872 -0.6560
16125TIP3    H269867   6.077   2.334  11.183  0.7819 -0.3227 -0.1553
16126TIP3   OH269868   1.682   4.058  16.193 -0.2206 -0.2028 -1.1265
16126TIP3    H169869   1.618   4.074  16.124 -1.4346  2.1290  0.4136
16126TIP3    H269870   1.630   4.052  16.273  1.2427 -1.6346 -0.2130
16127TIP3   OH269871   2.559   3.093   5.148 -0.2549 -0.3184  0.2697
16127TIP3    H169872   2.491   3.115   5.212 -0.2830  1.7993 -0.4312
16127TIP3    H269873   2.546   3.155   5.077  1.8631 -0.4403 -0.2826
16128TIP3   OH269874   2.202   4.381  12.485 -0.0670  0.4986 -0.1055
16128TIP3    H169875   2.247   4.464  12.469  0.2050  0.3267 -0.2410
16128TIP3    H269876   2.254   4.316  12.438 -2.1282  0.6761 -2.8388
16129TIP3   OH269877   2.853   2.733  13.231 -0.9351  0.3536  0.3954
16129TIP3    H169878   2.826   2.659  13.286  1.3662 -1.5401 -0.8304
16129TIP3    H269879   2.948   2.730  13.232 -0.7607  0.9362 -2.6907
16130TIP3   OH269880   4.436   5.128  15.991 -0.5651  0.5444 -0.2340
16130TIP3    H169881   4.344   5.101  15.981 -0.1882 -0.4219 -1.3599
16130TIP3    H269882   4.431   5.216  16.027 -1.9103 -0.0747  1.2710
16131TIP3   OH269883   5.350   3.226  16.808  0.8368 -0.8293 -0.4443
16131TIP3    H169884   5.363   3.138  16.843 -0.6935 -1.1656 -0.6253
16131TIP3    H269885   5.299   3.271  16.875  1.2364 -0.2106 -0.5457
16132TIP3   OH269886   5.496   5.642  13.811  0.3245  0.7517 -0.2822
16132TIP3    H169887   5.473   5.627  13.719  1.1716  0.1609 -0.4080
16132TIP3    H269888   5.520   5.556  13.844 -2.0323  0.5509  1.1170
16133TIP3   OH269889   0.731   5.990   3.529  0.9376  0.3749 -0.5121
16133TIP3    H169890   0.812   6.031   3.560  0.5016  0.9147 -0.0626
16133TIP3    H269891   0.676   5.985   3.607 -0.0265  1.3744 -1.0966
16134TIP3   OH269892   0.195   1.213   3.841 -0.1386  0.5025 -0.4529
16134TIP3    H169893   0.261   1.144   3.838 -0.9754 -0.4745  1.6410
16134TIP3    H269894   0.172   1.228   3.750 -1.2420 -3.3395 -0.9700
16135TIP3   OH269895   3.599   2.443  13.807 -0.7421 -0.0887 -0.3265
16135TIP3    H169896   3.681   2.476  13.770  0.1890  0.3964  2.0003
16135TIP3    H269897   3.541   2.433  13.731  1.0568  0.7027 -1.8960
16136TIP3   OH269898   1.952   5.655   5.897 -0.1458 -0.6391  1.1112
16136TIP3    H169899   1.930   5.562   5.901 -3.0689 -0.0351  1.7776
16136TIP3    H269900   1.935   5.680   5.807  2.6460 -1.0923  0.3856
16137TIP3   OH269901   4.369   6.461  14.630 -0.5727 -0.6764 -0.5084
16137TIP3    H169902   4.329   6.452  14.717 -1.4288 -0.9612 -0.9197
16137TIP3    H269903   4.442   6.522  14.643 -1.1572 -0.1248  0.2552
16138TIP3   OH269904   3.463   1.489   4.879 -0.3396 -0.3765 -0.9097
16138TIP3    H169905   3.402   1.477   4.807 -0.4387 -0.6003 -0.7903
16138TIP3    H269906   3.549   1.468   4.841 -0.4482 -0.9448 -0.8447
16139TIP3   OH269907   1.065   6.247  11.358  0.2685 -0.3244  0.1130
16139TIP3    H169908   1.047   6.336  11.390  0.4019 -0.1998 -0.1581
16139TIP3    H269909   1.001   6.193  11.403 -0.5231  0.0556 -0.5340
16140TIP3   OH269910   5.293   3.845  16.315  0.4879  0.2185 -0.2638
16140TIP3    H169911   5.370   3.792  16.333  0.4344  0.2177 -0.0264
16140TIP3    H269912   5.219   3.789  16.340  0.4302  0.3975 -0.0268
16141TIP3   OH269913   0.852   3.481  14.980 -0.0831 -0.1091  0.4182
16141TIP3    H169914   0.907   3.557  14.963  0.8378 -0.7596  0.4476
16141TIP3    H269915   0.793   3.510  15.050  0.6247  0.3980  0.8180
16142TIP3   OH269916   0.989   1.395  10.894  0.0070  0.1448  0.5405
16142TIP3    H169917   0.920   1.371  10.832  0.5610 -1.2177  0.4304
16142TIP3    H269918   0.988   1.491  10.894 -0.9647  0.1605 -0.4930
16143TIP3   OH269919   0.196   2.662   0.060 -0.2467 -0.2563  0.6076
16143TIP3    H169920   0.281   2.677   0.018 -0.7815  0.9664 -0.1091
16143TIP3    H269921   0.193   2.725   0.132 -0.7793  0.1659  0.2320
16144TIP3   OH269922   0.416   4.093  12.333  0.5320 -0.1770 -0.0413
16144TIP3    H169923   0.428   4.051  12.248 -0.6402 -0.5798 -0.0197
16144TIP3    H269924   0.383   4.180  12.313 -0.4501 -0.5235 -0.0019
16145TIP3   OH269925   2.032   2.313  15.718 -0.2620  0.1185 -0.0402
16145TIP3    H169926   2.069   2.371  15.651  0.0729  0.7460  0.6791
16145TIP3    H269927   2.019   2.370  15.794 -1.2134 -0.4528  0.2361
16146TIP3   OH269928   4.059   4.660   4.061 -0.4360 -0.3679 -0.0926
16146TIP3    H169929   4.062   4.611   3.978 -0.2530  0.3304 -0.5085
16146TIP3    H269930   4.151   4.671   4.085 -0.4193  0.7848 -0.6234
16147TIP3   OH269931   6.120   6.251  14.863 -0.5016  0.0716  0.2629
16147TIP3    H169932   6.159   6.165  14.849  0.2159  0.4276  0.0772
16147TIP3    H269933   6.033   6.232  14.899 -0.5560 -0.7370 -0.2923
16148TIP3   OH269934   4.668   2.591  14.052 -0.6328 -0.3294  0.3940
16148TIP3    H169935   4.647   2.684  14.049 -0.3179 -0.2464  0.6481
16148TIP3    H269936   4.654   2.565  14.143  1.0698 -0.0853  0.7619
16149TIP3   OH269937   4.368   2.186  10.979  1.1021  0.5206 -0.2705
16149TIP3    H169938   4.412   2.134  10.911 -1.0847 -2.1937  0.2207
16149TIP3    H269939   4.322   2.255  10.931  1.5135  0.1154 -1.2788
16150TIP3   OH269940   5.598   2.159   1.451 -0.4732  0.2569 -0.6514
16150TIP3    H169941   5.556   2.074   1.442 -0.4612  0.2695 -0.8388
16150TIP3    H269942   5.527   2.221   1.466 -0.3191 -0.1289  2.1591
16151TIP3   OH269943   2.192   4.218  15.854  0.3599 -0.3366 -0.3267
16151TIP3    H169944   2.157   4.307  15.865  1.4920  0.2697 -1.3624
16151TIP3    H269945   2.208   4.210  15.760  2.3419 -0.7961 -0.0050
16152TIP3   OH269946   2.956   4.981  11.788  0.3395  0.0241  0.1235
16152TIP3    H169947   2.883   4.948  11.736  1.6305 -1.1487 -1.0233
16152TIP3    H269948   2.916   5.008  11.871 -1.1715 -2.1544  0.1904
16153TIP3   OH269949   5.739   3.121   6.004 -0.0369 -0.0838  0.7173
16153TIP3    H169950   5.655   3.085   5.978  1.0966 -1.1048 -1.9145
16153TIP3    H269951   5.755   3.192   5.942  1.2943 -0.3021  0.7772
16154TIP3   OH269952   2.289   3.346  15.526 -0.4481 -0.6522 -0.4964
16154TIP3    H169953   2.247   3.427  15.496 -0.7119 -0.7515 -0.3991
16154TIP3    H269954   2.382   3.359  15.508 -0.4106 -0.0672  0.1005
16155TIP3   OH269955   0.223   1.881  10.519 -0.4856 -0.2459  0.1497
16155TIP3    H169956   0.183   1.897  10.434 -0.1941  0.8009  0.1988
16155TIP3    H269957   0.272   1.961  10.538  0.9676 -1.1832  0.4631
16156TIP3   OH269958   6.838   0.415  10.419  0.0552  0.0326  0.0560
16156TIP3    H169959   6.909   0.479  10.420  1.7992 -1.8061  0.8784
16156TIP3    H269960   6.762   0.464  10.387  0.3468  3.4293  3.7842
16157TIP3   OH269961   3.543   3.966  15.813 -0.2451  0.1297  0.5048
16157TIP3    H169962   3.496   3.894  15.853  0.4035 -0.2259  0.6432
16157TIP3    H269963   3.477   4.034  15.800 -0.6881 -0.1694  1.1472
16158TIP3   OH269964   2.849   0.342  12.557 -0.6879 -0.0500  0.1392
16158TIP3    H169965   2.929   0.337  12.609  0.5161  0.2776 -1.5885
16158TIP3    H269966   2.781   0.308  12.615  0.3589  1.2847  2.2797
16159TIP3   OH269967   3.518   5.058   2.670 -0.6526 -0.4132 -0.3351
16159TIP3    H169968   3.510   5.148   2.701  0.2268 -0.4627  0.0828
16159TIP3    H269969   3.528   5.006   2.750  0.3081 -0.6984 -0.6216
16160TIP3   OH269970   2.184   1.389  13.045 -0.5054 -0.5074  0.1167
16160TIP3    H169971   2.156   1.368  12.956 -1.9070 -0.7441  0.5762
16160TIP3    H269972   2.105   1.422  13.088  0.3047  0.2528  1.0840
16161TIP3   OH269973   3.617   2.460  11.445 -0.2949  0.6800 -0.0568
16161TIP3    H169974   3.689   2.461  11.509  0.5419  1.3441 -0.9661
16161TIP3    H269975   3.661   2.458  11.360 -1.3884 -0.2211 -0.6233
16162TIP3   OH269976   4.406   4.906  13.817 -0.1608  0.3371  0.3935
16162TIP3    H169977   4.349   4.969  13.773 -0.2572 -1.1891 -1.8332
16162TIP3    H269978   4.494   4.943  13.811 -0.2654  0.4491 -0.5959
16163TIP3   OH269979   1.167   5.081   3.794 -0.2047 -0.0215 -0.2156
16163TIP3    H169980   1.139   5.085   3.885  1.2360  0.5674  0.2372
16163TIP3    H269981   1.147   5.169   3.759  1.1696  0.4681  0.1664
16164TIP3   OH269982   5.644   2.724   5.200  0.0024 -0.8518  0.0154
16164TIP3    H169983   5.707   2.673   5.150  1.3692 -0.8632  1.6596
16164TIP3    H269984   5.589   2.659   5.244  2.0021 -1.0682  2.4374
16165TIP3   OH269985   2.789   3.361   1.243 -0.4468  0.0875 -0.2122
16165TIP3    H169986   2.872   3.370   1.195 -1.0079 -0.9256 -1.4459
16165TIP3    H269987   2.787   3.269   1.270 -0.8311  0.2916  0.4559
16166TIP3   OH269988   1.761   6.466   3.570  0.1352 -0.9028  0.0926
16166TIP3    H169989   1.673   6.502   3.565  0.5849  0.3590  0.7467
16166TIP3    H269990   1.785   6.474   3.662  1.3153 -0.2234 -0.2477
16167TIP3   OH269991   0.781   4.421   5.674 -0.1223 -0.4987 -0.6203
16167TIP3    H169992   0.850   4.480   5.706 -0.2322 -1.0790  0.7428
16167TIP3    H269993   0.826   4.364   5.612  0.4930 -0.4405 -0.2450
16168TIP3   OH269994   1.266   0.605   2.489  0.1821 -0.3084 -0.1669
16168TIP3    H169995   1.241   0.636   2.402 -1.2003 -1.0833 -0.0758
16168TIP3    H269996   1.354   0.570   2.477  0.6112  0.9527 -0.9019
16169TIP3   OH269997   3.194   5.054  14.431  0.0482  0.0443  0.5261
16169TIP3    H169998   3.196   5.127  14.369  0.3697 -0.4140 -0.0139
16169TIP3    H269999   3.201   5.096  14.517  0.0357  0.6605  0.2366
16170TIP3   OH270000   6.273   6.328  13.080 -0.1022 -0.2334  0.0736
16170TIP3    H170001   6.287   6.255  13.140  0.7326 -0.1645 -0.0301
16170TIP3    H270002   6.330   6.309  13.005 -1.3690 -0.4971 -0.8696
16171TIP3   OH270003   5.471   3.577  14.646  0.4285 -0.1222 -0.4289
16171TIP3    H170004   5.467   3.544  14.736 -0.8956  1.2612  0.0688
16171TIP3    H270005   5.559   3.613  14.637 -0.4626  2.9126  1.5882
16172TIP3   OH270006   0.557   1.379  15.733 -0.0540  0.0002 -0.2395
16172TIP3    H170007   0.592   1.396  15.821 -1.8546 -2.0563  0.9765
16172TIP3    H270008   0.607   1.304  15.701 -0.1811  0.0247 -0.4983
16173TIP3   OH270009   4.858   0.039  13.374 -0.2576  0.1394  0.2329
16173TIP3    H170010   4.890  -0.016  13.446  1.7314  0.1252 -0.5926
16173TIP3    H270011   4.821  -0.023  13.311 -1.0579  0.0636  0.7663
16174TIP3   OH270012   6.322   0.768   5.021 -0.2129 -0.9864 -0.3807
16174TIP3    H170013   6.357   0.807   5.102 -0.2332 -2.1996  0.2399
16174TIP3    H270014   6.400   0.747   4.969 -0.2366  2.1051 -1.8792
16175TIP3   OH270015   3.777   1.281   5.446 -0.8432  0.2310  0.9644
16175TIP3    H170016   3.803   1.281   5.538 -0.7768  0.4547  0.9472
16175TIP3    H270017   3.765   1.189   5.424  0.2119  0.1050  0.8905
16176TIP3   OH270018   3.297   5.731  12.484 -0.2215  0.7954  0.5269
16176TIP3    H170019   3.322   5.679  12.561  0.3442  1.6502  0.9382
16176TIP3    H270020   3.301   5.822  12.515 -0.3771  1.1281 -0.4072
16177TIP3   OH270021   5.300   2.041  15.960 -0.0640  0.2995 -0.1528
16177TIP3    H170022   5.395   2.032  15.949 -0.1356  1.4774 -2.1836
16177TIP3    H270023   5.290   2.129  15.997 -0.3614 -0.0759  0.6864
16178TIP3   OH270024   2.328   5.253   0.560  0.5129 -0.2187 -0.0537
16178TIP3    H170025   2.382   5.179   0.588 -1.7296 -1.5990  0.8510
16178TIP3    H270026   2.316   5.241   0.466  1.9767  0.3091 -0.3472
16179TIP3   OH270027   1.364   5.631  16.383 -0.2214  0.4642 -0.1245
16179TIP3    H170028   1.315   5.619  16.301  0.2600 -0.7714 -0.2502
16179TIP3    H270029   1.453   5.602  16.363 -0.2506 -0.5059  1.0004
16180TIP3   OH270030   6.185   5.475   4.642 -0.1880 -0.1905  0.1566
16180TIP3    H170031   6.095   5.505   4.632  0.1023  0.3279 -1.0827
16180TIP3    H270032   6.237   5.535   4.589  0.9413 -0.2852  1.0933
16181TIP3   OH270033   2.958   2.074   5.048  0.2437 -0.1268  0.0737
16181TIP3    H170034   2.893   2.046   5.112  0.5040 -0.0097  0.3920
16181TIP3    H270035   2.944   2.168   5.039  1.1180  0.1068  1.0081
16182TIP3   OH270036   3.935   4.461  12.927 -0.6052  0.1664  0.4181
16182TIP3    H170037   3.914   4.531  12.865  0.2794  0.5891  0.5748
16182TIP3    H270038   3.994   4.403  12.878  0.2903  0.6297  0.9204
16183TIP3   OH270039   2.987   1.294   3.460  0.0581 -0.6036  0.0332
16183TIP3    H170040   3.082   1.305   3.450  0.2765 -0.2819  2.1030
16183TIP3    H270041   2.974   1.199   3.460  0.2019 -0.6448 -1.4552
16184TIP3   OH270042   5.530   0.555   0.279 -0.1900  0.2992  0.1682
16184TIP3    H170043   5.597   0.486   0.276 -1.5897 -1.2069  1.3815
16184TIP3    H270044   5.493   0.556   0.191  2.6533  2.5839 -1.1856
16185TIP3   OH270045   4.519   2.639   2.976 -0.2550  0.0733 -0.2307
16185TIP3    H170046   4.554   2.677   3.057 -2.2242  0.3516  0.5384
16185TIP3    H270047   4.596   2.629   2.920  1.1266  0.2117  1.5228
16186TIP3   OH270048   4.505   4.518   3.353  0.2688 -0.4585  0.5487
16186TIP3    H170049   4.596   4.493   3.338  0.4646  0.7981 -0.5413
16186TIP3    H270050   4.472   4.540   3.266 -0.7157  0.2658  1.0862
16187TIP3   OH270051   3.854   1.854   3.988 -0.3216 -0.4708 -0.2394
16187TIP3    H170052   3.851   1.857   3.893 -0.4070  0.4432 -0.2137
16187TIP3    H270053   3.811   1.771   4.011  0.2524 -0.9955 -1.0074
16188TIP3   OH270054   6.486   2.629   0.510 -0.7205  0.1419 -0.1451
16188TIP3    H170055   6.458   2.664   0.595  0.4978 -1.6724  1.0713
16188TIP3    H270056   6.419   2.563   0.489  0.6194 -1.6953  1.0481
16189TIP3   OH270057   0.572   3.167   3.196  0.4938 -0.1270  0.3648
16189TIP3    H170058   0.577   3.209   3.282  0.4734  1.1749 -0.2399
16189TIP3    H270059   0.484   3.188   3.164  0.0717 -1.5950  0.4961
16190TIP3   OH270060   2.054   4.355   4.577  0.0550  0.3471  0.2551
16190TIP3    H170061   2.011   4.309   4.505  0.6931 -1.0181  0.7192
16190TIP3    H270062   2.003   4.332   4.655  0.8336 -0.2069  0.6089
16191TIP3   OH270063   1.024   4.383   4.169 -0.2855 -0.5503 -0.0731
16191TIP3    H170064   0.933   4.407   4.191 -0.4033 -0.8654 -0.2214
16191TIP3    H270065   1.048   4.318   4.235  0.1503  0.2049  0.5353
16192TIP3   OH270066   5.403   0.919   6.505 -0.2892 -0.2674  0.2541
16192TIP3    H170067   5.475   0.910   6.443 -1.7426  0.3382 -1.6398
16192TIP3    H270068   5.373   0.830   6.520 -0.9257 -0.3404 -1.2501
16193TIP3   OH270069   3.809   1.225  15.497  0.2578 -0.0439 -0.5283
16193TIP3    H170070   3.754   1.265  15.430 -0.3645 -1.9653 -1.2441
16193TIP3    H270071   3.757   1.230  15.577  0.1522  0.4744 -0.6279
16194TIP3   OH270072   4.896   0.269   5.754  0.1134 -0.1148 -0.4624
16194TIP3    H170073   4.834   0.220   5.808  0.5438  1.0139  1.1264
16194TIP3    H270074   4.855   0.272   5.668 -1.1953 -0.8999  0.0995
16195TIP3   OH270075   5.102   5.224  14.910  0.3314 -0.0434  0.0756
16195TIP3    H170076   5.193   5.193  14.908  0.9501  1.4872  1.5295
16195TIP3    H270077   5.051   5.152  14.873  2.0152 -1.3738  0.2042
16196TIP3   OH270078   0.128   1.013   2.813  0.0666 -0.5325 -0.0125
16196TIP3    H170079   0.101   0.995   2.723  1.4371  0.6302 -0.6972
16196TIP3    H270080   0.046   1.024   2.861 -0.7511  1.2870 -1.6699
16197TIP3   OH270081   2.208   5.777  11.325  0.1006 -0.0889 -0.0734
16197TIP3    H170082   2.210   5.687  11.293  1.0924  0.0186 -0.3450
16197TIP3    H270083   2.192   5.830  11.247 -1.5896 -0.0861  0.2464
16198TIP3   OH270084   5.592   0.159  15.029 -0.8448  0.0133 -0.2442
16198TIP3    H170085   5.519   0.113  14.988 -0.6730 -0.1678 -0.3467
16198TIP3    H270086   5.631   0.210  14.958  0.7303 -1.8762 -0.8269
16199TIP3   OH270087   0.626   1.528   6.035  0.1580  0.5938 -0.1111
16199TIP3    H170088   0.537   1.494   6.048  0.1612  0.6403  0.0352
16199TIP3    H270089   0.613   1.619   6.010  0.0803  0.0768 -2.1023
16200TIP3   OH270090   4.316   2.863   1.073 -0.0416 -0.1328 -0.8118
16200TIP3    H170091   4.392   2.863   1.131 -0.5437  0.6086 -0.1467
16200TIP3    H270092   4.248   2.819   1.123  0.0688 -1.2405 -1.5944
16201TIP3   OH270093   4.859   0.420  11.599 -0.2578 -0.5492 -0.3836
16201TIP3    H170094   4.826   0.336  11.566  1.7006 -1.0543 -1.2272
16201TIP3    H270095   4.940   0.396  11.644  0.5640  0.9315 -1.0242
16202TIP3   OH270096   2.245   6.795  15.300 -0.1643  0.8159  0.1309
16202TIP3    H170097   2.283   6.837  15.222  2.1976  0.8437  1.1970
16202TIP3    H270098   2.170   6.746  15.267  0.6435  0.9726 -2.1419
16203TIP3   OH270099   1.246   5.528   5.730 -0.2129 -0.1551  0.9194
16203TIP3    H170100   1.330   5.525   5.684  0.1352  0.7806  1.4641
16203TIP3    H270101   1.256   5.466   5.803 -0.6288 -1.3490 -0.0101
16204TIP3   OH270102   5.788   3.735   0.001 -0.0497 -0.5091 -0.1743
16204TIP3    H170103   5.715   3.727   0.062 -2.4006 -1.1386 -2.8283
16204TIP3    H270104   5.801   3.646  -0.033  0.7252 -0.0849 -1.0504
16205TIP3   OH270105   4.352   0.552   4.469 -0.2648 -0.0153 -0.1666
16205TIP3    H170106   4.433   0.506   4.445  1.6177  3.6079 -1.5230
16205TIP3    H270107   4.312   0.575   4.385 -0.8771  1.1954  0.4411
16206TIP3   OH270108   4.919   0.095  16.988  0.3455 -0.5186 -0.3660
16206TIP3    H170109   5.007   0.131  16.977  0.3172  0.0863  1.2342
16206TIP3    H270110   4.933   0.014  17.037  0.0183 -0.4387 -0.1413
16207TIP3   OH270111   3.644   3.380   3.068 -0.4339 -0.1294  0.3871
16207TIP3    H170112   3.648   3.381   2.972  1.5271  0.2657  0.4164
16207TIP3    H270113   3.551   3.384   3.088 -0.8734  0.4921 -1.5050
16208TIP3   OH270114   1.167   5.691  14.714  0.4992 -0.0839 -0.0038
16208TIP3    H170115   1.139   5.753  14.647  1.7450  0.8468  0.2957
16208TIP3    H270116   1.133   5.607  14.685  2.1764  0.0105 -2.5873
16209TIP3   OH270117   4.003   3.847   2.820 -0.4284  0.4965  0.0032
16209TIP3    H170118   3.914   3.819   2.837 -1.6782  4.5401  1.3724
16209TIP3    H270119   4.000   3.887   2.733  0.7262 -1.4643 -0.9917
16210TIP3   OH270120   4.416   3.168   3.350  0.3547  0.3719 -0.0597
16210TIP3    H170121   4.365   3.164   3.269  0.8053 -2.1464 -0.2716
16210TIP3    H270122   4.457   3.082   3.358  0.6686  0.6785  2.6311
16211TIP3   OH270123   1.735   6.168   6.107  0.3087  0.1929  0.4340
16211TIP3    H170124   1.820   6.130   6.131 -1.5951 -3.0049  2.8243
16211TIP3    H270125   1.718   6.234   6.175 -0.1593 -0.9432  1.4505
16212TIP3   OH270126   3.782   2.163   2.603  0.1538 -0.0718 -0.1754
16212TIP3    H170127   3.823   2.087   2.645 -1.2373 -0.4984  0.4499
16212TIP3    H270128   3.725   2.200   2.670 -0.3555  0.6152 -0.9687
16213TIP3   OH270129   4.558   1.319  14.282 -0.0469  0.2118 -0.6303
16213TIP3    H170130   4.532   1.234  14.247 -0.1131  0.4258 -1.1053
16213TIP3    H270131   4.565   1.375  14.205 -0.4457  0.7570 -0.2711
16214TIP3   OH270132   2.037   4.847   5.133 -0.2344  0.7364  0.3919
16214TIP3    H170133   2.132   4.852   5.136 -0.2271  0.3277  0.8934
16214TIP3    H270134   2.012   4.912   5.067  0.5117 -0.7546 -1.4747
16215TIP3   OH270135   4.574   6.792   2.353 -0.3568 -0.1850  0.1399
16215TIP3    H170136   4.616   6.826   2.432 -1.0925 -0.4045  0.6263
16215TIP3    H270137   4.560   6.699   2.371 -2.4576  0.1755  0.6143
16216TIP3   OH270138   3.646   2.570  11.749  0.0968 -0.4327 -0.5062
16216TIP3    H170139   3.591   2.595  11.823 -0.3864  0.1506 -1.0556
16216TIP3    H270140   3.685   2.652  11.719 -1.1552 -0.3630 -2.0435
16217TIP3   OH270141   0.043   4.613   1.889 -0.4297 -0.2955 -0.0344
16217TIP3    H170142   0.104   4.680   1.921  0.1607 -2.0988  2.9405
16217TIP3    H270143  -0.044   4.653   1.900 -0.0587  0.2124  1.2035
16218TIP3   OH270144   5.002   4.206   5.681  0.3827  0.4263 -0.5583
16218TIP3    H170145   5.094   4.233   5.671  1.1917 -1.9453 -0.2248
16218TIP3    H270146   4.964   4.217   5.594  1.5991 -0.5786 -1.2413
16219TIP3   OH270147   6.170   0.923  11.128  0.1606  0.0662 -0.3176
16219TIP3    H170148   6.190   0.913  11.035 -2.6155  1.3367 -1.1594
16219TIP3    H270149   6.137   1.012  11.136  0.0285 -0.1227  1.8473
16220TIP3   OH270150   4.250   1.169  16.758 -1.3768  0.3956  0.2510
16220TIP3    H170151   4.342   1.174  16.729 -1.6609  1.8003 -0.4900
16220TIP3    H270152   4.254   1.180  16.853 -0.7085 -0.6143  0.3574
16221TIP3   OH270153   3.150   3.601  13.622  0.5572  0.0176 -0.3621
16221TIP3    H170154   3.084   3.535  13.600  0.7398 -0.4899  0.5705
16221TIP3    H270155   3.108   3.684  13.599  0.0347 -0.3623 -0.8472
16222TIP3   OH270156   5.789   5.661  16.073  0.3598 -0.5803  0.2425
16222TIP3    H170157   5.712   5.659  16.017  1.5602 -2.5142 -1.4845
16222TIP3    H270158   5.784   5.580  16.124 -0.2781  0.7464  2.4414
16223TIP3   OH270159   4.641   4.210  11.820 -0.0044 -0.2405 -0.2877
16223TIP3    H170160   4.659   4.271  11.749 -1.6400 -1.1644 -1.5686
16223TIP3    H270161   4.609   4.265  11.891  0.2190  0.5650 -0.7936
16224TIP3   OH270162   6.654   1.877   4.284 -0.1659 -0.0062 -0.4157
16224TIP3    H170163   6.604   1.951   4.250 -0.4766  1.0177  2.0145
16224TIP3    H270164   6.738   1.916   4.310 -0.2738 -0.4897  0.7385
16225TIP3   OH270165   3.545   2.774   5.534  0.0098 -0.0508 -0.0447
16225TIP3    H170166   3.560   2.682   5.515  0.6103  0.0502 -0.0519
16225TIP3    H270167   3.614   2.821   5.487 -0.6602  0.4535 -0.5634
16226TIP3   OH270168   1.297   6.731   2.018 -0.1011  0.2848 -0.4951
16226TIP3    H170169   1.269   6.818   2.048  1.4025  1.4110 -2.1552
16226TIP3    H270170   1.305   6.740   1.923  2.4193 -0.9336 -0.4716
16227TIP3   OH270171   1.974   3.402   0.561 -0.3011 -0.0235  0.1719
16227TIP3    H170172   1.941   3.331   0.506 -0.2160  1.0413 -1.3204
16227TIP3    H270173   1.895   3.439   0.602 -0.3924 -0.6716  0.5967
16228TIP3   OH270174   3.696   3.398  11.192  0.4303  0.0515  0.2238
16228TIP3    H170175   3.655   3.469  11.241 -0.6088 -2.1711  2.8368
16228TIP3    H270176   3.624   3.339  11.169  1.5455 -1.5646  0.6894
16229TIP3   OH270177   3.449   2.775   4.860  0.2126 -0.0518 -0.4515
16229TIP3    H170178   3.360   2.770   4.824  0.1749  0.1276 -0.3862
16229TIP3    H270179   3.502   2.813   4.790  0.1140  0.4173 -0.2792
16230TIP3   OH270180   3.479   5.718   4.426 -0.4735  0.1187 -0.3220
16230TIP3    H170181   3.454   5.776   4.354  3.3804  0.7030 -1.3913
16230TIP3    H270182   3.529   5.774   4.486  1.3383 -1.5632 -0.1862
16231TIP3   OH270183   2.250   2.074  15.422  0.2852  0.5856 -0.1592
16231TIP3    H170184   2.248   1.996  15.367  0.4883 -0.8344  1.7080
16231TIP3    H270185   2.234   2.147  15.363 -0.6151 -0.9358 -1.8728
16232TIP3   OH270186   1.637   2.137   5.572 -0.5300 -0.3838 -0.2862
16232TIP3    H170187   1.672   2.107   5.656  0.9477  0.0780 -0.7193
16232TIP3    H270188   1.677   2.078   5.508  0.5235  0.9821 -0.9141
16233TIP3   OH270189   5.386   4.989   5.484 -0.2889  0.7119  0.4167
16233TIP3    H170190   5.391   5.075   5.442 -2.8764  0.0933 -1.4468
16233TIP3    H270191   5.469   4.980   5.530  0.8245  3.4295 -0.8001
16234TIP3   OH270192   6.107   6.760   5.080  0.4916 -0.0785 -0.0174
16234TIP3    H170193   6.118   6.835   5.022 -0.9442  0.1294 -0.0529
16234TIP3    H270194   6.123   6.795   5.168  0.8014  0.0328 -0.1164
16235TIP3   OH270195   5.820   0.173   2.014  0.3023  0.1552 -0.2308
16235TIP3    H170196   5.905   0.133   2.035 -0.3125 -1.5862 -0.8623
16235TIP3    H270197   5.842   0.252   1.966  1.5772  0.3447  0.5996
16236TIP3   OH270198   5.887   4.511   2.295 -0.1695 -0.2855  0.4109
16236TIP3    H170199   5.863   4.580   2.233  1.5731  0.0484  0.0469
16236TIP3    H270200   5.933   4.447   2.242 -0.3555 -0.9469  1.0391
16237TIP3   OH270201   3.143   1.020  11.785  0.6315  0.0777 -0.1575
16237TIP3    H170202   3.163   1.010  11.692  1.9133  0.3610  0.0592
16237TIP3    H270203   3.225   1.052  11.823 -0.4722  1.9757  0.7312
16238TIP3   OH270204   1.923   5.673   1.107  0.3860  0.2044  0.0570
16238TIP3    H170205   2.003   5.710   1.145  0.6516  0.0191 -0.3151
16238TIP3    H270206   1.858   5.743   1.115  1.0785  1.0519 -1.3232
16239TIP3   OH270207   0.099   4.989  11.928 -0.0917  0.6336  0.4973
16239TIP3    H170208   0.049   5.060  11.887 -0.5122 -1.1469 -2.3958
16239TIP3    H270209   0.189   5.020  11.929 -0.3828  1.5426  0.0320
16240TIP3   OH270210   4.955   5.948   2.783  0.6282  0.4496 -0.4049
16240TIP3    H170211   4.872   5.965   2.739 -0.6071  0.8782  1.9384
16240TIP3    H270212   4.956   6.009   2.857  2.0126 -1.0638  0.8947
16241TIP3   OH270213   1.056   3.988   5.843  0.1255 -0.2948  0.2239
16241TIP3    H170214   1.045   4.081   5.861  2.1581 -0.2473  1.7068
16241TIP3    H270215   0.999   3.970   5.769 -0.8251  1.9745  0.3299
16242TIP3   OH270216   4.498   2.089  11.590 -0.2183  0.5507 -0.3894
16242TIP3    H170217   4.527   2.180  11.599 -0.9780  0.8905 -1.1725
16242TIP3    H270218   4.563   2.038  11.638  1.3204  1.3333 -1.5269
16243TIP3   OH270219   5.072   0.678   2.418 -0.6305  0.2983  0.5596
16243TIP3    H170220   5.075   0.654   2.510 -2.9345 -0.9994  0.3668
16243TIP3    H270221   5.088   0.597   2.371 -1.3110  0.5611 -0.1595
16244TIP3   OH270222   0.131   2.526   4.673  0.1438 -0.2992 -0.3658
16244TIP3    H170223   0.195   2.597   4.666 -0.4467  0.2929  0.2150
16244TIP3    H270224   0.170   2.465   4.735 -0.3972  0.6737  0.9786
16245TIP3   OH270225   2.325   5.627  12.508  0.0782  0.0935  0.7580
16245TIP3    H170226   2.350   5.718  12.488  1.2917 -0.3134  0.2958
16245TIP3    H270227   2.244   5.613  12.459  0.1824  0.7631  0.3737
16246TIP3   OH270228   0.471   6.444   4.238 -0.0041 -0.3099  0.5568
16246TIP3    H170229   0.418   6.379   4.284 -1.9924  0.4081 -0.5854
16246TIP3    H270230   0.470   6.415   4.147  0.1270  0.6395  0.2419
16247TIP3   OH270231   4.678   2.467  11.939  0.6400  0.4648  0.0617
16247TIP3    H170232   4.724   2.406  11.997  0.6622  0.7632  0.3636
16247TIP3    H270233   4.635   2.529  11.999 -1.7831 -0.9280 -0.1037
16248TIP3   OH270234   4.250   1.057  15.188  0.5770  0.0618 -0.0251
16248TIP3    H170235   4.244   0.976  15.240  1.2470 -1.1932 -1.7911
16248TIP3    H270236   4.178   1.111  15.219 -0.5240 -1.6449  0.5477
16249TIP3   OH270237   1.735   1.026   6.573 -0.7333  0.6277  0.2186
16249TIP3    H170238   1.673   1.096   6.591 -0.8962  0.1134  1.7732
16249TIP3    H270239   1.788   1.059   6.500 -2.1584  1.4799 -0.4818
16250TIP3   OH270240   4.350   2.747   4.502  0.1695  0.2603  0.4102
16250TIP3    H170241   4.314   2.673   4.551 -0.3415 -0.5214 -1.1096
16250TIP3    H270242   4.289   2.761   4.430  1.4765  0.6622 -0.6639
16251TIP3   OH270243   1.402   2.521  16.650  0.1807  0.2288  0.2210
16251TIP3    H170244   1.321   2.499  16.604  1.5703 -2.1251 -1.3568
16251TIP3    H270245   1.411   2.616  16.639 -2.4876  0.6307  0.8026
16252TIP3   OH270246   4.718   4.441   0.974 -0.4238  0.3309  0.5386
16252TIP3    H170247   4.651   4.496   0.933 -0.5473  0.6703  1.1755
16252TIP3    H270248   4.681   4.353   0.972 -1.7002  0.7428  2.4245
16253TIP3   OH270249   6.238   1.092   0.081  0.3193  0.5276  0.1152
16253TIP3    H170250   6.237   1.053  -0.006 -1.2583  1.4387 -0.3178
16253TIP3    H270251   6.324   1.133   0.088  1.1842 -1.1590 -0.2452
16254TIP3   OH270252   2.919   4.492   2.144  0.0990  0.5824 -0.0342
16254TIP3    H170253   2.868   4.532   2.215 -1.1598 -0.8474 -0.0718
16254TIP3    H270254   3.010   4.507   2.169 -0.3127  2.0629  0.7161
16255TIP3   OH270255   3.324   1.909   2.853 -0.2142  0.4027  0.2204
16255TIP3    H170256   3.357   1.970   2.920  0.0003  0.5434 -0.0126
16255TIP3    H270257   3.391   1.910   2.785 -1.1432  1.4694 -0.7310
16256TIP3   OH270258   4.009   3.470  12.580  0.5426 -0.2526 -0.4513
16256TIP3    H170259   4.061   3.406  12.530  0.4855  0.5639 -1.5949
16256TIP3    H270260   4.022   3.552  12.533 -2.2351 -0.1124 -1.1244
16257TIP3   OH270261   5.520   4.005   5.697 -0.2727 -0.2946  0.1585
16257TIP3    H170262   5.519   4.079   5.758 -0.8296  0.4502 -0.7209
16257TIP3    H270263   5.576   3.940   5.739  0.9401  0.9721  0.5585
16258TIP3   OH270264   6.637   0.614  12.700  0.4316 -0.1799 -0.4800
16258TIP3    H170265   6.641   0.640  12.608  2.0672 -1.4236 -0.8006
16258TIP3    H270266   6.596   0.527  12.699 -1.1088  0.4923  0.1742
16259TIP3   OH270267   5.624   0.270  16.529 -0.1686 -0.0091 -0.4170
16259TIP3    H170268   5.702   0.275  16.474  0.8600  1.1894  1.0617
16259TIP3    H270269   5.561   0.328  16.485  0.8712  1.4872 -0.0287
16260TIP3   OH270270   3.349   3.084  12.987  0.7211 -0.3598  0.1266
16260TIP3    H170271   3.362   3.165  13.037  0.2826 -0.5524  0.5704
16260TIP3    H270272   3.436   3.060  12.955  0.7124  0.7844 -0.7895
16261TIP3   OH270273   5.648   1.916   5.990 -0.1812  0.0634 -0.0264
16261TIP3    H170274   5.720   1.973   6.017 -0.1719 -0.2697  0.6532
16261TIP3    H270275   5.655   1.839   6.046 -0.8096 -0.1626 -0.2487
16262TIP3   OH270276   6.665   3.719   3.882 -0.1573  1.1775 -0.9955
16262TIP3    H170277   6.666   3.720   3.786  0.7923  1.5512 -0.9887
16262TIP3    H270278   6.736   3.658   3.906 -0.7666  0.6357 -0.5304
16263TIP3   OH270279   5.705   2.391  13.884 -0.1786 -0.5536  0.9773
16263TIP3    H170280   5.795   2.380  13.915 -0.0818 -0.9690  0.5621
16263TIP3    H270281   5.657   2.422  13.961  0.0542 -1.5551  1.5467
16264TIP3   OH270282   3.753   4.235  14.883 -0.4101 -0.1342 -0.1206
16264TIP3    H170283   3.787   4.147  14.868 -0.0931  0.2849 -2.1683
16264TIP3    H270284   3.715   4.260  14.800  1.7297  2.6030 -0.4233
16265TIP3   OH270285   3.918   4.941   1.617  0.5008  0.0967 -0.0603
16265TIP3    H170286   3.839   4.927   1.565 -0.6525 -1.9634  2.0495
16265TIP3    H270287   3.900   5.020   1.669  1.0555  1.2804 -1.5856
16266TIP3   OH270288   0.555   4.724  11.556  0.0635  0.6019 -0.0008
16266TIP3    H170289   0.467   4.693  11.533 -0.1787 -0.0383  1.6195
16266TIP3    H270290   0.594   4.749  11.472 -0.9113 -1.0580 -1.0291
16267TIP3   OH270291   4.990   5.980   1.120 -0.9135  0.3202  0.3591
16267TIP3    H170292   4.937   6.054   1.092 -0.1297  1.0794  0.8461
16267TIP3    H270293   4.927   5.919   1.159 -1.5485  0.7831  0.0629
16268TIP3   OH270294   0.191   4.316  11.511 -0.1807  0.3617 -0.0993
16268TIP3    H170295   0.164   4.367  11.588 -1.5429 -0.3053 -0.1130
16268TIP3    H270296   0.113   4.313  11.456 -0.0997 -1.6490 -0.1461
16269TIP3   OH270297   3.406   1.368   4.288 -0.4484 -0.2134 -0.3015
16269TIP3    H170298   3.490   1.386   4.247 -0.5642  0.9603 -0.0511
16269TIP3    H270299   3.404   1.425   4.365 -2.0193  0.7806 -1.0266
16270TIP3   OH270300   6.483   6.078   0.671 -0.2125 -0.0533 -0.1262
16270TIP3    H170301   6.448   6.025   0.599 -3.4964  0.3893  0.9790
16270TIP3    H270302   6.535   6.016   0.722  0.9603 -0.7192 -2.0229
16271TIP3   OH270303   1.187   1.454   2.820 -0.0637  0.0855 -0.0421
16271TIP3    H170304   1.211   1.527   2.763 -1.5618  0.9285  0.3520
16271TIP3    H270305   1.197   1.489   2.909 -0.2335 -0.3884  0.1686
16272TIP3   OH270306   5.198   4.641   0.254  0.1061  0.1984 -0.7344
16272TIP3    H170307   5.208   4.598   0.339  2.6342 -1.5025 -1.7677
16272TIP3    H270308   5.207   4.571   0.190  0.2602  1.7009 -2.4534
16273TIP3   OH270309   3.275   1.294  14.625  0.0125 -0.1261 -0.7439
16273TIP3    H170310   3.348   1.288  14.563 -0.0202  1.6786 -1.0319
16273TIP3    H270311   3.198   1.309  14.569 -0.2043  0.3185 -0.3292
16274TIP3   OH270312   1.610   3.202   4.398  0.4263  0.0596  0.3056
16274TIP3    H170313   1.575   3.116   4.376  0.2726 -0.3029  1.8256
16274TIP3    H270314   1.697   3.184   4.433  1.0392  0.6934 -0.8482
16275TIP3   OH270315   3.787   5.419  15.040 -0.0219  0.1296  0.4463
16275TIP3    H170316   3.711   5.475  15.058 -1.1457 -1.1135 -0.2013
16275TIP3    H270317   3.749   5.339  15.002  1.6395 -0.4370 -0.1194
16276TIP3   OH270318   3.484   2.476  14.689 -0.0523 -0.1243  0.4432
16276TIP3    H170319   3.436   2.427  14.756  0.4433  0.0809  0.9592
16276TIP3    H270320   3.530   2.544  14.738 -0.9961  1.0928 -0.2837
16277TIP3   OH270321   1.727   3.561   4.735 -0.0019  0.0152  0.2855
16277TIP3    H170322   1.700   3.564   4.643 -2.7807  0.3180  1.0263
16277TIP3    H270323   1.734   3.468   4.756 -0.0920 -0.0672 -0.0529
16278TIP3   OH270324   3.842   1.219   1.092 -0.6147 -0.4417 -0.0191
16278TIP3    H170325   3.910   1.235   1.158 -0.6877  1.4344 -0.3513
16278TIP3    H270326   3.864   1.134   1.055  2.6842  0.9038 -1.4324
16279TIP3   OH270327   2.964   4.370   0.627 -0.0048  0.5220  0.3463
16279TIP3    H170328   3.059   4.360   0.618  0.0979  0.2731  1.5310
16279TIP3    H270329   2.939   4.427   0.555  0.9455  0.0546 -0.3765
16280TIP3   OH270330   5.726   6.384  11.281 -0.0203 -0.1631  0.0188
16280TIP3    H170331   5.671   6.434  11.342  0.8165 -0.5129  1.1010
16280TIP3    H270332   5.762   6.313  11.335  0.3702 -0.7681 -1.0142
16281TIP3   OH270333   5.507   6.580   4.530  0.0024 -0.4604 -0.2737
16281TIP3    H170334   5.476   6.505   4.580 -1.9105 -0.4233 -1.3171
16281TIP3    H270335   5.601   6.584   4.548  0.2259 -3.2861 -0.4201
16282TIP3   OH270336   3.085   4.187   1.152  0.5111 -0.7006 -0.0124
16282TIP3    H170337   3.060   4.274   1.183 -1.1671 -1.7809  1.9316
16282TIP3    H270338   3.033   4.127   1.205  0.4295 -2.8797 -2.3612
16283TIP3   OH270339   3.653   4.122  12.882 -0.1003 -0.4927  0.1565
16283TIP3    H170340   3.608   4.196  12.921 -0.1268  0.4360 -1.5190
16283TIP3    H270341   3.584   4.061  12.857 -0.1610 -0.5966  0.5768
16284TIP3   OH270342   5.466   3.469   3.205 -0.1525 -0.0598 -0.1453
16284TIP3    H170343   5.424   3.414   3.139 -0.5402  0.0439  0.0120
16284TIP3    H270344   5.468   3.557   3.166 -0.7859  0.0920  0.1568
16285TIP3   OH270345   1.335   5.217   2.505 -0.3169 -0.3531  0.4275
16285TIP3    H170346   1.403   5.233   2.439  0.7334 -1.2698  1.2511
16285TIP3    H270347   1.301   5.130   2.483 -1.7469  0.3808 -0.3962
16286TIP3   OH270348   3.624   0.154   4.554 -0.6158 -0.0586  0.0399
16286TIP3    H170349   3.565   0.227   4.574  1.1096  1.3015  0.4111
16286TIP3    H270350   3.603   0.131   4.464 -0.6460  1.4820 -0.3859
16287TIP3   OH270351   5.489   6.433   1.839 -0.4299  1.0357 -0.3706
16287TIP3    H170352   5.430   6.466   1.771 -1.8396  1.5245  1.0350
16287TIP3    H270353   5.433   6.420   1.915  1.1219  0.5735  0.7424
16288TIP3   OH270354   5.721   3.526  14.401  0.0485  0.5599  0.6933
16288TIP3    H170355   5.745   3.563  14.486 -1.1324 -0.8985  1.7127
16288TIP3    H270356   5.641   3.571  14.377 -0.7018 -0.3817  1.3369
16289TIP3   OH270357   2.272   1.693   0.626  0.2033 -0.0190 -0.5473
16289TIP3    H170358   2.364   1.668   0.615  0.1080 -1.0675  0.7355
16289TIP3    H270359   2.240   1.633   0.693 -0.6376  2.2456  1.1703
16290TIP3   OH270360   3.975   0.004   1.486  0.1613  0.1975  0.5025
16290TIP3    H170361   3.964  -0.059   1.415  1.0709  1.2428 -0.6025
16290TIP3    H270362   4.023  -0.045   1.553 -1.2007 -0.9722  0.6795
16291TIP3   OH270363   3.913   6.756  12.225  0.1519  0.1177 -0.0622
16291TIP3    H170364   3.881   6.671  12.254  0.6851 -0.5724 -1.4040
16291TIP3    H270365   3.886   6.762  12.133  1.9382  0.4515 -0.6057
16292TIP3   OH270366   6.197   3.723   4.251 -0.1246 -0.1977 -0.0881
16292TIP3    H170367   6.282   3.679   4.257  0.0954 -0.1821 -2.1345
16292TIP3    H270368   6.219   3.816   4.248  0.1916 -0.2171 -3.6161
16293TIP3   OH270369   4.765   6.419   0.651 -0.5251 -0.2531 -0.1680
16293TIP3    H170370   4.768   6.461   0.566  1.1777 -1.0485 -0.5537
16293TIP3    H270371   4.841   6.454   0.698  0.5326 -2.2501 -0.2549
16294TIP3   OH270372   0.447   2.699  15.307  0.0007 -0.3439 -0.1998
16294TIP3    H170373   0.361   2.742  15.302 -0.0951 -0.4979  0.1104
16294TIP3    H270374   0.429   2.614  15.346  0.1955 -0.6534 -0.7638
16295TIP3   OH270375   0.605   1.227   1.318  0.1188 -0.0063  0.1655
16295TIP3    H170376   0.608   1.317   1.352 -1.9950 -0.1649  0.9160
16295TIP3    H270377   0.547   1.232   1.242  0.2975 -0.6751 -0.0190
16296TIP3   OH270378   6.333   6.123   5.216 -0.3967 -0.4215  0.7271
16296TIP3    H170379   6.284   6.070   5.152 -3.8856 -1.0865  3.6371
16296TIP3    H270380   6.408   6.068   5.239 -1.3901 -2.0668  0.2716
16297TIP3   OH270381   0.282   0.910  11.258 -0.0549  0.2498  0.1961
16297TIP3    H170382   0.198   0.939  11.221  0.6322  4.5675  1.4647
16297TIP3    H270383   0.258   0.871  11.342 -0.9843 -2.6005 -1.2564
16298TIP3   OH270384   3.875   6.689   4.640  0.2411  0.1652  0.5688
16298TIP3    H170385   3.898   6.763   4.696 -0.4364  1.1791 -0.4656
16298TIP3    H270386   3.865   6.726   4.553 -0.0746 -1.1539  0.0160
16299TIP3   OH270387   1.300   4.698   3.698  0.0792  0.0516  0.0975
16299TIP3    H170388   1.362   4.751   3.647 -0.9571  1.2796  0.0533
16299TIP3    H270389   1.322   4.608   3.677 -0.0699  0.5022 -2.2924
16300TIP3   OH270390   4.052   2.467   3.978 -0.6782  0.0887 -0.0906
16300TIP3    H170391   4.053   2.557   4.011  0.0655  0.3992 -0.9344
16300TIP3    H270392   4.141   2.452   3.947 -0.8262 -0.9071 -0.0632
16301TIP3   OH270393   0.895   2.988   1.061  0.4245 -0.3272 -0.1785
16301TIP3    H170394   0.903   2.893   1.064 -2.2743 -0.7194 -2.0277
16301TIP3    H270395   0.953   3.015   0.990 -1.4072 -1.0773 -2.0483
16302TIP3   OH270396   0.816   3.303   5.200 -0.0317 -0.0249 -0.0397
16302TIP3    H170397   0.734   3.347   5.221 -0.1900 -0.4040  0.1449
16302TIP3    H270398   0.860   3.293   5.284 -0.9751 -2.1646  0.2765
16303TIP3   OH270399   2.382   2.908   0.606  0.0170  0.2946 -0.1119
16303TIP3    H170400   2.439   2.958   0.664  1.3979  0.3065 -1.4185
16303TIP3    H270401   2.415   2.819   0.611 -0.4477  0.1144 -0.1800
16304TIP3   OH270402   1.876   0.267   0.441  0.0750  0.3230 -0.6625
16304TIP3    H170403   1.806   0.248   0.378  0.1072  0.7013 -0.8125
16304TIP3    H270404   1.927   0.337   0.400  0.7293 -0.1533 -0.6963
16305TIP3   OH270405   5.821   0.017   3.675  0.3493  0.0995  0.8175
16305TIP3    H170406   5.840   0.109   3.655 -2.8337  0.3036 -2.0979
16305TIP3    H270407   5.773   0.020   3.758 -1.4206  1.3589 -0.1949
16306TIP3   OH270408   0.465   2.400  13.028 -0.6436 -0.1082 -0.6246
16306TIP3    H170409   0.533   2.466  13.014 -1.3105  0.4274 -1.4712
16306TIP3    H270410   0.507   2.333  13.083  0.5666  0.1898 -1.1442
16307TIP3   OH270411   0.458   5.089  16.219 -0.0322  0.1369  0.5828
16307TIP3    H170412   0.457   5.182  16.195  1.6468  0.2989  1.0285
16307TIP3    H270413   0.544   5.075  16.257  0.5147 -2.0374 -1.2171
16308TIP3   OH270414   6.505   3.266   4.073 -0.4772  0.1240 -0.9965
16308TIP3    H170415   6.582   3.212   4.054 -0.6883 -0.1712 -1.0267
16308TIP3    H270416   6.488   3.312   3.991 -0.3774  0.1349 -1.0122
16309TIP3   OH270417   3.937   6.322   0.189  0.4642  0.0965 -0.2322
16309TIP3    H170418   3.898   6.235   0.193 -0.4000  0.4705 -0.0806
16309TIP3    H270419   3.936   6.353   0.280  0.1009  0.5350 -0.3799
16310TIP3   OH270420   3.849   0.324  14.165  0.3163 -0.2471  0.3525
16310TIP3    H170421   3.836   0.377  14.244  0.2213 -1.2645  1.0276
16310TIP3    H270422   3.897   0.247  14.195 -1.0328 -1.3784 -0.2891
16311TIP3   OH270423   2.193   3.953   4.564 -0.1517  0.4446 -0.6799
16311TIP3    H170424   2.111   3.910   4.587  0.3363 -0.0565  0.1905
16311TIP3    H270425   2.214   3.922   4.476 -0.5670  0.0655 -0.6460
16312TIP3   OH270426   6.048   6.646  11.179  0.1301 -0.0668  0.0291
16312TIP3    H170427   6.142   6.662  11.186  0.5634 -1.7043 -1.5026
16312TIP3    H270428   6.020   6.628  11.269  0.8605  2.2904  0.8034
16313TIP3   OH270429   1.393   2.375   5.794  0.4054 -0.0098 -0.4031
16313TIP3    H170430   1.426   2.456   5.833  1.8200 -1.2734  1.1402
16313TIP3    H270431   1.337   2.337   5.861 -0.6791 -0.0937 -1.3174
16314TIP3   OH270432   0.261   5.443  14.979  0.9408  0.2026  0.3181
16314TIP3    H170433   0.280   5.505  15.049 -1.6483  1.7031 -0.1690
16314TIP3    H270434   0.263   5.495  14.899 -0.6569 -0.4196 -0.1747
16315TIP3   OH270435   2.356   6.588  12.181  0.3330 -0.0640 -0.2008
16315TIP3    H170436   2.384   6.565  12.269 -0.4102 -0.4280 -0.0530
16315TIP3    H270437   2.437   6.586  12.129  0.4803 -1.9190  0.0426
16316TIP3   OH270438   2.445   5.704   1.064  0.9502  0.1381  0.3500
16316TIP3    H170439   2.492   5.700   0.981 -1.0135 -3.4249 -0.8112
16316TIP3    H270440   2.485   5.635   1.118 -1.1759 -1.2909  0.2252
16317TIP3   OH270441   3.987   4.176  15.906  0.0778  0.6949 -0.7512
16317TIP3    H170442   4.071   4.134  15.890  0.1879  0.8729 -0.6467
16317TIP3    H270443   3.952   4.194  15.819  0.5239  1.3582 -0.8003
16318TIP3   OH270444   2.655   2.246   0.485 -0.3638  0.1916  0.5947
16318TIP3    H170445   2.573   2.248   0.536 -0.0028 -2.5343  1.4512
16318TIP3    H270446   2.707   2.178   0.527  1.2716  0.0268 -1.5425
16319TIP3   OH270447   0.551   1.314   5.745  1.1447  0.1410 -0.0455
16319TIP3    H170448   0.480   1.257   5.715  0.9116  0.4479 -0.0784
16319TIP3    H270449   0.566   1.286   5.836 -0.0209  1.0387  0.4611
16320TIP3   OH270450   3.433   2.186  14.846  0.0537 -0.2410  0.2503
16320TIP3    H170451   3.514   2.223  14.880 -0.6041  0.4875  1.0820
16320TIP3    H270452   3.461   2.123  14.780  1.3773 -1.1261  1.5845
16321TIP3   OH270453   3.652   0.562  17.080  0.4952  0.1606 -0.1748
16321TIP3    H170454   3.658   0.622  17.005  1.6760  0.6399  0.2704
16321TIP3    H270455   3.654   0.619  17.157 -0.9333 -0.3101  0.2414
16322TIP3   OH270456   2.241   3.805   0.439 -0.3412  0.2542  0.0762
16322TIP3    H170457   2.147   3.821   0.446 -0.3709 -0.0086  0.3132
16322TIP3    H270458   2.252   3.756   0.357 -0.4571 -0.0273  0.2250
16323TIP3   OH270459   4.572   2.474  10.995 -0.0583  0.2785  0.3328
16323TIP3    H170460   4.598   2.543  11.055 -0.8078  0.5517  0.3508
16323TIP3    H270461   4.592   2.393  11.042  0.8115  0.4730  0.3128
16324TIP3   OH270462   6.800   2.348  12.612  0.1098  0.3461  0.4714
16324TIP3    H170463   6.839   2.276  12.662  1.7207  1.0522  0.2913
16324TIP3    H270464   6.753   2.400  12.678 -0.4025 -0.4193  0.7274
16325TIP3   OH270465   4.602   2.366  12.518 -0.9479  0.1482  0.2275
16325TIP3    H170466   4.612   2.342  12.610 -0.5901 -0.4105  0.0435
16325TIP3    H270467   4.628   2.458  12.514 -2.4245  0.6356  0.9509
16326TIP3   OH270468   3.724   3.368   1.010  0.2152  0.1408 -0.7038
16326TIP3    H170469   3.683   3.450   0.981  0.4559  0.8436  0.8792
16326TIP3    H270470   3.785   3.394   1.078 -0.4262 -1.4688  0.5525
16327TIP3   OH270471   5.867   0.401  13.205  0.0088 -0.5580 -0.3322
16327TIP3    H170472   5.908   0.455  13.137  0.7507 -0.7339 -0.0348
16327TIP3    H270473   5.860   0.314  13.165 -0.7559 -0.3569 -0.6446
16328TIP3   OH270474   2.504   0.442  14.672  0.3850  0.6573  0.1938
16328TIP3    H170475   2.497   0.468  14.580 -0.5808  1.0279  0.3651
16328TIP3    H270476   2.529   0.349  14.668  1.2276  0.8969 -0.4254
16329TIP3   OH270477   3.508   0.385  15.273  0.2628  0.1688 -0.2321
16329TIP3    H170478   3.570   0.404  15.203 -1.5196 -1.0379 -2.2409
16329TIP3    H270479   3.532   0.298  15.305  0.7454  0.4955  0.3114
16330TIP3   OH270480   2.663   0.039  10.993  0.0204 -0.1798  0.1310
16330TIP3    H170481   2.726   0.068  10.927  0.3647 -0.2823  0.4121
16330TIP3    H270482   2.680   0.095  11.069  1.2618 -1.6318  0.9830
16331TIP3   OH270483   2.204   5.316  13.321  0.3398  0.0964  0.2654
16331TIP3    H170484   2.281   5.368  13.298  0.0671  0.1316 -0.6120
16331TIP3    H270485   2.155   5.371  13.382  0.8649  0.1881  0.6096
16332TIP3   OH270486   1.644   6.676  12.643  0.6118  0.2590 -0.2653
16332TIP3    H170487   1.604   6.652  12.726  0.3369  1.3991 -0.0445
16332TIP3    H270488   1.737   6.684  12.662  0.5143  0.8035  0.0204
16333TIP3   OH270489   0.236   1.182  13.757  0.1582  0.4956  0.6555
16333TIP3    H170490   0.238   1.116  13.688  2.2982  0.0017  1.1305
16333TIP3    H270491   0.208   1.262  13.713  1.4789  0.1950 -0.8253
16334TIP3   OH270492   6.368   2.708   3.518  0.5739  0.4131 -0.0402
16334TIP3    H170493   6.418   2.664   3.586 -0.2471  0.7645  0.8205
16334TIP3    H270494   6.304   2.644   3.489 -0.2349  0.8252  0.7938
16335TIP3   OH270495   3.769   4.776   5.501 -0.0993  0.4381  0.2954
16335TIP3    H170496   3.734   4.851   5.547 -0.9941  1.3655 -1.7559
16335TIP3    H270497   3.858   4.801   5.476 -0.2036  0.6096  0.0919
16336TIP3   OH270498   6.160   5.691   5.172 -0.7994  0.6305 -0.5295
16336TIP3    H170499   6.150   5.768   5.115  2.3974  3.1046  1.8731
16336TIP3    H270500   6.239   5.648   5.139 -1.7872 -0.8848 -0.9831
16337TIP3   OH270501   0.403   1.591   1.983 -0.3978  0.1300  0.4211
16337TIP3    H170502   0.466   1.536   1.936  0.4221  0.5857  0.9751
16337TIP3    H270503   0.337   1.529   2.014  0.9080 -0.6976  1.7037
16338TIP3   OH270504   5.522   0.476  15.369  0.4684 -0.3563 -0.1930
16338TIP3    H170505   5.546   0.515  15.285 -1.6987  0.9502 -0.2952
16338TIP3    H270506   5.550   0.385  15.363  0.5138 -0.2357 -2.2820
16339TIP3   OH270507   2.414   6.068  14.394  0.1161 -0.4669  0.4022
16339TIP3    H170508   2.479   6.070  14.324  0.2396  0.1797  0.5231
16339TIP3    H270509   2.333   6.038  14.352  0.6014 -1.7361  0.3510
16340TIP3   OH270510   5.220   0.896  16.831 -1.0560  0.0307 -0.3668
16340TIP3    H170511   5.284   0.968  16.837  0.2774 -0.9713 -1.8766
16340TIP3    H270512   5.135   0.940  16.832 -0.3620  1.4721  0.7759
16341TIP3   OH270513   3.174   6.041  12.850  0.6680  0.0501  0.2633
16341TIP3    H170514   3.125   5.964  12.877  2.0022 -0.6056  0.8926
16341TIP3    H270515   3.108   6.100  12.814 -0.5145 -0.9564  0.7217
16342TIP3   OH270516   6.053   1.810  10.888 -0.0886 -0.6194 -0.1677
16342TIP3    H170517   6.001   1.730  10.896 -1.1659  0.0544 -0.1475
16342TIP3    H270518   6.116   1.791  10.818 -1.9145 -0.6850 -1.9012
16343TIP3   OH270519   0.552   5.106  14.157 -0.0223 -0.0116 -0.1823
16343TIP3    H170520   0.584   5.108  14.067 -0.2217 -0.0574 -0.2530
16343TIP3    H270521   0.548   5.014  14.180 -1.2248 -0.0628 -0.5695
16344TIP3   OH270522   4.203   5.193   4.108  0.3394 -0.5874  0.3762
16344TIP3    H170523   4.231   5.102   4.100  1.5446 -0.3658  1.7013
16344TIP3    H270524   4.223   5.232   4.022 -2.1975 -2.0160 -0.9867
16345TIP3   OH270525   1.868   0.161   6.505 -0.1066  0.4321 -0.6541
16345TIP3    H170526   1.885   0.203   6.590 -0.0067 -0.6931 -0.1081
16345TIP3    H270527   1.837   0.233   6.449 -0.6517  1.1036  0.4737
16346TIP3   OH270528   6.445   3.887   5.363 -0.8506  0.0677  0.2540
16346TIP3    H170529   6.514   3.862   5.425  1.2078 -0.6140 -2.1593
16346TIP3    H270530   6.459   3.981   5.349 -0.8975  0.0857  0.3264
16347TIP3   OH270531   2.250   0.766  15.459  0.3017  0.2788  0.2876
16347TIP3    H170532   2.238   0.721  15.543  0.2108 -2.9133 -1.2863
16347TIP3    H270533   2.337   0.740  15.429  1.4427  3.4658  0.4306
16348TIP3   OH270534   4.644   5.167   6.398 -0.6458  0.3248  0.1117
16348TIP3    H170535   4.636   5.072   6.400 -1.2541  0.3865  1.0092
16348TIP3    H270536   4.604   5.197   6.480  2.2962  1.1650  1.3965
16349TIP3   OH270537   5.336   1.997  10.621 -0.5716  0.5391  0.0917
16349TIP3    H170538   5.353   1.937  10.548 -1.8099 -0.5305  0.6560
16349TIP3    H270539   5.305   1.941  10.692 -0.9238  1.7465  0.9227
16350TIP3   OH270540   3.809   1.942   1.073 -0.2355 -0.5398 -0.6558
16350TIP3    H170541   3.834   1.913   0.985 -0.6334  0.9435 -1.2772
16350TIP3    H270542   3.831   2.035   1.075 -0.8251 -0.4085  0.6040
16351TIP3   OH270543   5.541   0.632  14.111  0.3534 -0.5312  0.4886
16351TIP3    H170544   5.454   0.671  14.120  0.4612 -0.0995 -0.2572
16351TIP3    H270545   5.536   0.550  14.161 -0.2805 -0.2055  0.9734
16352TIP3   OH270546   6.748   3.952  13.059 -0.4554  0.1636 -0.2997
16352TIP3    H170547   6.761   4.046  13.042 -1.7313  0.2995 -0.6137
16352TIP3    H270548   6.749   3.945  13.155 -0.0067  0.4388 -0.2815
16353TIP3   OH270549   3.967   0.201  13.639 -0.3706 -0.9671  0.0260
16353TIP3    H170550   3.930   0.142  13.705  0.6846 -0.3424  1.2097
16353TIP3    H270551   4.053   0.226  13.674 -0.3814  0.5045 -0.9043
16354TIP3   OH270552   4.690   5.824  15.549  0.0248 -0.5976  0.4570
16354TIP3    H170553   4.702   5.890  15.617  2.1515 -2.9593  2.5680
16354TIP3    H270554   4.736   5.860  15.473 -0.6941  1.2234  0.8238
16355TIP3   OH270555   1.110   3.493  14.796 -0.0120 -0.1351  0.5736
16355TIP3    H170556   1.058   3.567  14.826  0.5280 -0.6172  2.8778
16355TIP3    H270557   1.051   3.444  14.739 -1.0256  0.9939  0.6093
16356TIP3   OH270558   2.992   0.638   2.546  0.1207  0.4989 -0.7155
16356TIP3    H170559   2.905   0.598   2.545  0.2922  0.1009 -1.9257
16356TIP3    H270560   2.980   0.721   2.593 -0.7999  0.2096 -0.4229
16357TIP3   OH270561   3.227   4.725  13.654  0.3578  0.4600  0.1131
16357TIP3    H170562   3.314   4.687  13.664  1.7634  3.3021 -0.3031
16357TIP3    H270563   3.195   4.692  13.571  0.5572 -1.4064  0.7419
16358TIP3   OH270564   4.839   2.549   5.747  0.3401  0.6879  0.2107
16358TIP3    H170565   4.796   2.630   5.719 -0.5403  1.1463  2.6603
16358TIP3    H270566   4.770   2.499   5.792  1.0328 -1.1484 -0.6308
16359TIP3   OH270567   3.720   3.874  11.149  0.0557 -0.6543 -0.5356
16359TIP3    H170568   3.695   3.836  11.065  0.9882  0.0673 -1.1552
16359TIP3    H270569   3.813   3.854  11.158  0.5387  1.2698 -0.7899
16360TIP3   OH270570   4.364   3.437  13.870  0.0591 -0.2297 -0.0583
16360TIP3    H170571   4.359   3.343  13.854 -0.5329 -0.0376 -1.0589
16360TIP3    H270572   4.277   3.470  13.848 -0.2401  0.3409  1.7820
16361TIP3   OH270573   4.584   4.831   2.806 -0.3463  0.2813 -0.3675
16361TIP3    H170574   4.599   4.926   2.811  2.5637 -0.1564  0.7931
16361TIP3    H270575   4.506   4.817   2.860 -1.3914  2.0687 -1.3007
16362TIP3   OH270576   3.619   0.729   3.051 -0.2779  0.0985 -0.5192
16362TIP3    H170577   3.712   0.709   3.035 -0.4879 -2.0094  0.4308
16362TIP3    H270578   3.584   0.752   2.966  0.8051 -0.6126 -1.1834
16363TIP3   OH270579   6.119   1.839   2.969  0.2605 -0.1780  0.1004
16363TIP3    H170580   6.196   1.835   2.912 -1.2026 -1.6219 -1.9222
16363TIP3    H270581   6.081   1.926   2.953  1.8196  0.8555  1.7044
16364TIP3   OH270582   1.140   5.256  10.936  0.0820  0.0252  0.4071
16364TIP3    H170583   1.101   5.191  10.994  0.2820 -1.0448 -0.6129
16364TIP3    H270584   1.107   5.340  10.967 -0.8739 -0.6351  1.2171
16365TIP3   OH270585   5.684   0.777  15.441 -0.0824 -0.5247  0.2491
16365TIP3    H170586   5.769   0.733  15.439  1.3530  2.0368 -1.3628
16365TIP3    H270587   5.628   0.722  15.386  1.1010 -1.2623 -0.2771
16366TIP3   OH270588   2.557   2.127   2.044  0.2008 -0.1999 -0.5103
16366TIP3    H170589   2.636   2.098   1.998  0.5830  1.8458 -1.2445
16366TIP3    H270590   2.502   2.166   1.977 -0.2026  0.9117  0.4288
16367TIP3   OH270591   6.289   3.894   1.852  0.1846  0.6960 -0.6018
16367TIP3    H170592   6.325   3.961   1.793  1.3583 -0.3644 -1.1347
16367TIP3    H270593   6.365   3.856   1.895  0.1667 -3.3847 -3.6184
16368TIP3   OH270594   5.868   4.036  11.467 -0.2156 -0.0003 -0.1681
16368TIP3    H170595   5.959   4.022  11.495  0.3915 -0.0494 -2.0631
16368TIP3    H270596   5.861   3.990  11.384 -2.0187 -0.0438 -0.0277
16369TIP3   OH270597   2.689   5.694   3.799  0.6399 -0.3665  0.2187
16369TIP3    H170598   2.699   5.601   3.819  1.9597 -0.3504 -0.2746
16369TIP3    H270599   2.776   5.730   3.811  1.2469 -0.0419 -3.8405
16370TIP3   OH270600   1.855   1.420   6.362 -0.5048  0.1835  0.2795
16370TIP3    H170601   1.925   1.485   6.357 -0.0196 -0.1625  2.0167
16370TIP3    H270602   1.776   1.468   6.337 -0.3647  1.8385  2.6505
16371TIP3   OH270603   3.437   5.048  11.755  0.0976  0.4401 -0.3300
16371TIP3    H170604   3.380   4.990  11.705  0.6377 -0.1316 -0.3056
16371TIP3    H270605   3.382   5.081  11.826 -0.3222  0.2404 -0.5624
16372TIP3   OH270606   6.204   2.844  15.925  0.0310 -0.4626 -0.3604
16372TIP3    H170607   6.168   2.928  15.898  0.8970  0.1325  0.2730
16372TIP3    H270608   6.293   2.864  15.955  0.6505 -1.7780 -1.2287
16373TIP3   OH270609   6.128   6.607  13.367  0.0305 -0.6664 -0.2678
16373TIP3    H170610   6.082   6.615  13.284 -1.3165 -0.2697  0.4834
16373TIP3    H270611   6.159   6.696  13.385  0.0081 -0.6759 -0.1821
16374TIP3   OH270612   2.086   2.414   4.411  0.1352  0.2954 -0.1790
16374TIP3    H170613   2.035   2.333   4.397 -0.8713  1.0934 -1.4352
16374TIP3    H270614   2.028   2.469   4.463 -0.4666  1.3059 -1.8260
16375TIP3   OH270615   5.506   3.861  15.054  0.4163 -0.1201 -0.3691
16375TIP3    H170616   5.542   3.773  15.067  1.1337  0.3875  1.4676
16375TIP3    H270617   5.583   3.917  15.044 -0.0091  0.3989 -0.7541
16376TIP3   OH270618   3.639   6.511   6.262  0.2626  0.1691  0.0792
16376TIP3    H170619   3.658   6.508   6.356  2.6578  2.6923 -0.1865
16376TIP3    H270620   3.724   6.499   6.220 -0.2317  2.1375 -1.6335
16377TIP3   OH270621   1.778   4.871  14.650  0.2189  0.9247 -0.1714
16377TIP3    H170622   1.741   4.787  14.675 -0.7906  1.6672  0.9139
16377TIP3    H270623   1.785   4.866  14.554 -3.0699  0.8524 -0.4961
16378TIP3   OH270624   1.301   0.653   3.488 -0.6212  0.1619  0.1210
16378TIP3    H170625   1.232   0.713   3.517  2.0379  3.4178  0.3799
16378TIP3    H270626   1.308   0.668   3.394 -2.1288 -2.4012 -0.4845
16379TIP3   OH270627   5.857   3.850   6.012 -0.1346  0.3513  0.1709
16379TIP3    H170628   5.939   3.899   6.004 -0.5051  0.7320 -1.7648
16379TIP3    H270629   5.881   3.771   6.061  1.3954  0.4605 -0.3387
16380TIP3   OH270630   3.596   3.597   0.971  0.6062  0.6082  0.6665
16380TIP3    H170631   3.522   3.581   0.913 -0.8128  0.1381  2.5105
16380TIP3    H270632   3.610   3.692   0.967  2.5927  0.3343 -2.7220
16381TIP3   OH270633   4.305   0.147  13.607 -0.5331 -0.6119 -0.0517
16381TIP3    H170634   4.255   0.215  13.652 -0.9820  0.3209 -1.8774
16381TIP3    H270635   4.325   0.184  13.521  3.3842 -0.8882  0.5322
16382TIP3   OH270636   5.250   4.091   0.144 -0.2566  0.0179  0.0943
16382TIP3    H170637   5.343   4.110   0.152  1.1896 -4.7956 -1.6446
16382TIP3    H270638   5.227   4.122   0.055  0.7743 -1.9635 -0.9136
16383TIP3   OH270639   0.687   2.476   5.180 -0.2236  0.4352  0.0605
16383TIP3    H170640   0.692   2.472   5.276 -0.4693  0.9418  0.0961
16383TIP3    H270641   0.688   2.570   5.160 -1.4446  0.3676 -0.3642
16384TIP3   OH270642   1.718   4.972   1.360  0.3782 -0.1082  0.3031
16384TIP3    H170643   1.638   4.942   1.403 -0.7195  0.1179 -1.4921
16384TIP3    H270644   1.689   5.006   1.275  1.9695  2.8126  0.7854
16385TIP3   OH270645   3.410   3.417   1.446 -0.0318  0.5249  0.0617
16385TIP3    H170646   3.425   3.509   1.422  2.1396 -0.1074 -1.3539
16385TIP3    H270647   3.441   3.368   1.370 -0.3606 -1.4036  1.1248
16386TIP3   OH270648   2.576   3.526   1.179  0.1194  0.2220 -0.8746
16386TIP3    H170649   2.525   3.445   1.170 -0.1064  0.3933 -1.1732
16386TIP3    H270650   2.655   3.500   1.226 -0.0979 -0.1099 -0.6919
16387TIP3   OH270651   3.583   4.260  11.026  0.0772 -0.5142 -0.3073
16387TIP3    H170652   3.518   4.298  10.967 -1.3829 -0.7223  1.0845
16387TIP3    H270653   3.549   4.173  11.046  0.2844 -0.2865  1.1749
16388TIP3   OH270654   4.822   0.971  11.028 -0.9070  0.2077 -0.2401
16388TIP3    H170655   4.735   0.946  10.996 -1.5050 -0.5061  1.8251
16388TIP3    H270656   4.865   0.888  11.049  0.1714  0.5728 -0.8893
16389TIP3   OH270657   3.861   3.463   2.318  0.4089  0.1010  0.1020
16389TIP3    H170658   3.954   3.454   2.298  0.2687 -0.6908 -0.2273
16389TIP3    H270659   3.819   3.476   2.233  0.0588 -1.0752  0.0721
16390TIP3   OH270660   5.928   3.800  13.907  0.0560 -0.0742  0.1028
16390TIP3    H170661   5.901   3.882  13.866  0.8305 -0.5527 -1.4627
16390TIP3    H270662   5.997   3.824  13.968  0.8599  0.3625 -0.9552
16391TIP3   OH270663   5.170   4.884  12.852 -0.2374 -0.1975 -0.0984
16391TIP3    H170664   5.144   4.975  12.868 -0.0069 -0.1033 -0.2638
16391TIP3    H270665   5.234   4.865  12.921 -0.1016 -0.1569 -0.2142
16392TIP3   OH270666   2.553   4.842   5.741  0.7531  0.2098 -0.0186
16392TIP3    H170667   2.524   4.834   5.832  1.1358 -0.6733  0.0342
16392TIP3    H270668   2.497   4.910   5.704  0.2639  0.2328  0.7433
16393TIP3   OH270669   2.229   6.076  10.877 -0.0558  0.5239 -0.5237
16393TIP3    H170670   2.209   6.138  10.808 -0.8052 -0.8805 -1.6147
16393TIP3    H270671   2.286   6.011  10.835  0.1352  0.0827  0.3858
16394TIP3   OH270672   1.105   1.448  13.232 -0.4635  0.5484 -0.2996
16394TIP3    H170673   1.074   1.494  13.310 -0.3462  1.1080 -0.5765
16394TIP3    H270674   1.200   1.460  13.233 -0.2471 -1.0034  0.4478
16395TIP3   OH270675   3.521   3.859  13.337  0.1553 -0.1554  0.4961
16395TIP3    H170676   3.605   3.877  13.295  0.5220  2.1834  2.0558
16395TIP3    H270677   3.533   3.775  13.381  0.8203 -1.0458 -1.3042
16396TIP3   OH270678   1.347   0.284   1.704 -0.0348  0.1232  0.6649
16396TIP3    H170679   1.415   0.323   1.759  0.0294  0.7940  0.1247
16396TIP3    H270680   1.363   0.321   1.617 -0.2621 -0.7556  0.2321
16397TIP3   OH270681   3.899   3.758  16.518  0.0839 -0.1626 -0.6107
16397TIP3    H170682   3.853   3.791  16.440 -1.2497 -1.3777 -0.3773
16397TIP3    H270683   3.931   3.672  16.492  0.5312 -0.1499 -0.1243
16398TIP3   OH270684   6.753   5.564  15.337 -0.1939  0.4948 -0.2468
16398TIP3    H170685   6.799   5.640  15.373  0.3543  0.7115 -1.3642
16398TIP3    H270686   6.708   5.526  15.412  0.3880  1.3021  0.5387
16399TIP3   OH270687   4.057   6.598  12.661 -0.0824  0.3635 -0.1268
16399TIP3    H170688   4.101   6.546  12.594  0.3669  0.4007  0.1335
16399TIP3    H270689   4.001   6.658  12.612  1.3640  1.4185 -0.5440
16400TIP3   OH270690   0.839   6.601   4.584 -0.4202  0.1208  0.1863
16400TIP3    H170691   0.809   6.609   4.675 -0.4230  0.1424  0.1836
16400TIP3    H270692   0.758   6.598   4.533 -0.4680 -1.4945  0.3155
16401TIP3   OH270693   1.984   5.088   2.256 -0.1273 -0.7547  0.4106
16401TIP3    H170694   1.938   5.064   2.175 -0.7925  0.0061  0.5564
16401TIP3    H270695   1.915   5.105   2.319  0.3508  0.0760  0.7320
16402TIP3   OH270696   5.150   0.812   5.622 -0.1758  0.2355 -0.1106
16402TIP3    H170697   5.214   0.781   5.558  0.4743  0.0966  0.5907
16402TIP3    H270698   5.139   0.905   5.601  0.8174  0.4359  0.2095
16403TIP3   OH270699   3.438   1.599  11.185  0.4801 -0.1793  0.1162
16403TIP3    H170700   3.408   1.689  11.201  0.9097  0.5713 -2.8341
16403TIP3    H270701   3.359   1.554  11.155  0.0514 -1.1324  2.4384
16404TIP3   OH270702   1.968   3.343   2.423 -0.5047  0.1128  0.3188
16404TIP3    H170703   1.912   3.420   2.431  0.2111  0.6810  0.0560
16404TIP3    H270704   1.912   3.276   2.382 -0.5210  1.2203 -1.5999
16405TIP3   OH270705   4.621   2.092  16.249 -0.4132  0.1641 -0.1536
16405TIP3    H170706   4.684   2.136  16.193 -0.5518  0.0253 -0.4214
16405TIP3    H270707   4.673   2.027  16.297 -0.1979  0.6681  0.2971
16406TIP3   OH270708   3.596   6.222   0.983 -0.2889  0.6091  1.2284
16406TIP3    H170709   3.616   6.210   0.890 -0.4936  0.1186  1.2494
16406TIP3    H270710   3.594   6.317   0.995  2.3712  0.7326  1.2830
16407TIP3   OH270711   4.118   3.909  11.612  0.7859 -0.2153 -0.4453
16407TIP3    H170712   4.096   3.903  11.519  0.9197  0.8350 -0.5565
16407TIP3    H270713   4.034   3.916  11.657  0.7721  1.6824 -0.6979
16408TIP3   OH270714   3.607   1.704   0.578 -0.2183 -0.5921 -0.2960
16408TIP3    H170715   3.676   1.646   0.612  1.1023  0.4327 -1.1543
16408TIP3    H270716   3.651   1.759   0.513 -2.0308 -0.4391 -1.4593
16409TIP3   OH270717   6.811   4.519  10.963 -0.4737  0.4335 -0.5290
16409TIP3    H170718   6.848   4.432  10.946 -0.1277  0.4518  0.1046
16409TIP3    H270719   6.887   4.573  10.984 -0.6427  0.9984 -1.3238
16410TIP3   OH270720   2.397   4.095   4.104 -0.2191 -0.0554 -0.1029
16410TIP3    H170721   2.419   4.180   4.141 -2.4115  0.7632 -0.5296
16410TIP3    H270722   2.308   4.105   4.072 -0.4247 -2.4340 -0.4668
16411TIP3   OH270723   2.174   6.174   3.765 -0.1914  0.1693  0.2021
16411TIP3    H170724   2.202   6.177   3.674 -0.1044 -0.9795  0.1758
16411TIP3    H270725   2.096   6.118   3.765 -0.9928  1.2582  0.6468
16412TIP3   OH270726   6.042   1.730   2.077 -0.1582 -0.0377 -0.0955
16412TIP3    H170727   6.026   1.821   2.053 -2.1154 -0.1265  0.7065
16412TIP3    H270728   6.136   1.726   2.096  0.1535  1.5434 -1.1250
16413TIP3   OH270729   5.115   0.453   4.166 -0.0856 -0.1383 -0.3358
16413TIP3    H170730   5.189   0.511   4.152  1.1088 -1.3940  0.5418
16413TIP3    H270731   5.118   0.431   4.259  0.0211 -2.2270 -0.7814
16414TIP3   OH270732   4.352   1.336  11.654 -0.1399  0.3612  0.2434
16414TIP3    H170733   4.365   1.260  11.596 -0.3604 -0.0253  0.6940
16414TIP3    H270734   4.322   1.405  11.595 -0.3698 -0.0322 -0.1130
16415TIP3   OH270735   0.287   3.663  13.706 -0.6704 -0.0492 -0.1302
16415TIP3    H170736   0.233   3.731  13.746 -0.1169 -0.1977  0.8984
16415TIP3    H270737   0.225   3.602  13.666 -1.2160  2.4455 -3.5980
16416TIP3   OH270738   2.082   4.134  13.705 -0.6461  0.2604  0.7838
16416TIP3    H170739   2.023   4.079  13.757 -1.7598 -0.5141 -1.1759
16416TIP3    H270740   2.031   4.213  13.686 -0.7113  0.0198 -0.0882
16417TIP3   OH270741   1.362   2.467  12.694 -0.3381  0.1526 -0.1314
16417TIP3    H170742   1.317   2.446  12.776  1.1010 -3.6134 -0.0806
16417TIP3    H270743   1.292   2.490  12.634 -1.7027  0.3715  1.4716
16418TIP3   OH270744   0.213   3.640   6.195  0.1255 -0.1605  0.1549
16418TIP3    H170745   0.196   3.692   6.274  1.0871  1.2779 -0.5370
16418TIP3    H270746   0.135   3.585   6.185 -1.1046  1.3868  0.7706
16419TIP3   OH270747   5.141   4.510   1.259  0.1577  0.6103 -0.4288
16419TIP3    H170748   5.154   4.482   1.349 -0.3698  2.0329  0.1087
16419TIP3    H270749   5.074   4.450   1.225  1.7480 -1.1992 -0.5359
16420TIP3   OH270750   1.925   1.776   1.726  0.4532  0.0091  0.3006
16420TIP3    H170751   1.843   1.819   1.702 -0.2322 -0.5211  1.5905
16420TIP3    H270752   1.911   1.746   1.816  2.1389  0.0945  0.6319
16421TIP3   OH270753   6.787   2.982   4.988  0.5276  0.2737  0.6885
16421TIP3    H170754   6.774   3.036   4.910 -1.3073 -0.3772  0.4857
16421TIP3    H270755   6.804   3.045   5.059  1.1949  0.9297 -0.0404
16422TIP3   OH270756   1.848   2.165  16.006  0.2608 -0.2517  0.8157
16422TIP3    H170757   1.931   2.143  15.964 -0.7000 -0.6159 -1.0177
16422TIP3    H270758   1.781   2.143  15.940 -1.1055  3.4441  0.7291
16423TIP3   OH270759   4.130   0.389   4.288 -0.3635 -0.3386 -0.0562
16423TIP3    H170760   4.182   0.362   4.364  1.1070  1.5288 -0.3431
16423TIP3    H270761   4.039   0.390   4.320  0.1566 -0.2468  1.4712
16424TIP3   OH270762   1.897   0.480   4.748 -0.0031 -0.0183 -0.1913
16424TIP3    H170763   1.889   0.469   4.653 -0.4421  0.2594 -0.1877
16424TIP3    H270764   1.980   0.437   4.769  0.1145 -0.0595 -0.7038
16425TIP3   OH270765   0.137   4.949   1.358 -0.4911  0.7343 -0.6289
16425TIP3    H170766   0.136   4.870   1.413  3.3110 -0.9503 -2.6093
16425TIP3    H270767   0.065   4.936   1.296 -1.4592  0.0607  0.5970
16426TIP3   OH270768   2.058   0.079   0.545 -0.4471  0.1573  0.0798
16426TIP3    H170769   2.116   0.128   0.603 -0.5690  0.2032  0.1620
16426TIP3    H270770   1.990   0.141   0.520  0.2848  0.5083 -1.1080
16427TIP3   OH270771   6.190   3.919  16.923 -0.1323  0.2077 -0.0095
16427TIP3    H170772   6.185   3.837  16.973 -0.0049  0.9882  1.3402
16427TIP3    H270773   6.101   3.955  16.927 -0.0437  0.4335 -0.0695
16428TIP3   OH270774   1.004   4.941   4.441  0.1861 -0.6281  0.5738
16428TIP3    H170775   1.060   4.969   4.513  1.0550 -1.0252  0.0727
16428TIP3    H270776   0.944   5.014   4.427 -0.4844 -0.8208  2.1532
16429TIP3   OH270777   0.374   0.012  14.516  0.2199  0.3701 -0.1210
16429TIP3    H170778   0.416   0.098  14.516  0.9510  0.0840 -2.2306
16429TIP3    H270779   0.323   0.011  14.434 -1.4415 -0.4654  0.8644
16430TIP3   OH270780   5.420   5.699  10.525  0.3035  0.6779  0.5543
16430TIP3    H170781   5.355   5.660  10.583 -0.2334  0.4637 -0.1708
16430TIP3    H270782   5.495   5.640  10.529 -0.6649 -0.7132 -0.8769
16431TIP3   OH270783   4.290   1.627   0.898 -0.0441 -0.0691  0.0050
16431TIP3    H170784   4.231   1.656   0.829  0.8353 -0.0147 -0.7360
16431TIP3    H270785   4.291   1.700   0.961 -1.2355 -0.3259  0.3466
16432TIP3   OH270786   1.888   6.526  15.576 -0.3862  0.2117 -0.3100
16432TIP3    H170787   1.878   6.449  15.632 -2.6055  0.0182 -0.8923
16432TIP3    H270788   1.911   6.491  15.490 -2.0019  0.1174 -0.7263
16433TIP3   OH270789   4.355   5.516  15.818  0.1338 -0.2582 -0.0531
16433TIP3    H170790   4.396   5.458  15.753 -0.0860 -0.7927  0.2707
16433TIP3    H270791   4.262   5.515  15.795  0.1936  0.3275 -0.3173
16434TIP3   OH270792   2.268   5.555   2.720 -0.5239 -0.4165 -0.1273
16434TIP3    H170793   2.315   5.481   2.680 -0.6911  0.0279 -1.1845
16434TIP3    H270794   2.260   5.531   2.812  2.3485 -0.2277  0.2718
16435TIP3   OH270795   0.593   6.050  15.895  0.1955  0.4212 -0.2389
16435TIP3    H170796   0.585   6.128  15.840 -1.6516 -0.1353 -0.8299
16435TIP3    H270797   0.522   6.059  15.959  0.0698 -0.6871 -0.2117
16436TIP3   OH270798   2.957   5.378   0.980 -0.0845 -0.3165  0.0244
16436TIP3    H170799   2.887   5.372   0.916 -2.0103  0.1342  1.9575
16436TIP3    H270800   2.976   5.472   0.986  0.6554 -0.4320 -0.4519
16437TIP3   OH270801   5.227   0.359  11.338 -0.0204  0.4159 -0.8172
16437TIP3    H170802   5.152   0.418  11.343 -0.6683 -0.4625  0.2273
16437TIP3    H270803   5.251   0.342  11.429 -1.3707 -2.7821 -0.9323
16438TIP3   OH270804   3.050   0.622   4.316  0.0950  0.2621  0.1536
16438TIP3    H170805   2.978   0.646   4.374  0.0917  0.1210  0.2062
16438TIP3    H270806   3.067   0.530   4.333  0.2515  0.2793  0.1009
16439TIP3   OH270807   5.555   0.878   3.969 -0.3051 -0.2833  0.2239
16439TIP3    H170808   5.508   0.959   3.992  0.0070  0.1745 -0.7129
16439TIP3    H270809   5.510   0.846   3.891  1.5508  0.7505 -1.3612
16440TIP3   OH270810   1.691   2.698   4.158  0.6991 -0.2360  0.3008
16440TIP3    H170811   1.653   2.659   4.236  0.4015  1.0089  0.8109
16440TIP3    H270812   1.780   2.663   4.154  0.3148 -1.2452  0.5044
16441TIP3   OH270813   1.913   5.372   2.411 -0.2945  0.0078  0.5755
16441TIP3    H170814   1.940   5.463   2.422 -1.9524  0.3927  1.8461
16441TIP3    H270815   1.978   5.321   2.460 -0.2593  0.6511  1.2125
16442TIP3   OH270816   4.501   6.765   5.340  0.0399  0.4876 -0.7236
16442TIP3    H170817   4.445   6.731   5.271  0.9984  0.8553 -1.7062
16442TIP3    H270818   4.539   6.687   5.381 -0.8260  0.2571 -0.3555
16443TIP3   OH270819   0.496   6.614  14.747  0.2746 -0.1127 -0.4345
16443TIP3    H170820   0.401   6.614  14.753  0.2825  0.3669 -0.2255
16443TIP3    H270821   0.515   6.589  14.657 -0.0058 -1.8436 -0.0417
16444TIP3   OH270822   1.390   0.385  11.488 -0.1207 -0.1480 -0.3770
16444TIP3    H170823   1.314   0.358  11.437 -1.1749  3.9407 -1.3625
16444TIP3    H270824   1.463   0.382  11.426  0.1254 -1.8874 -0.0556
16445TIP3   OH270825   4.104   0.854   4.061  0.2836 -0.3549  0.8567
16445TIP3    H170826   4.084   0.762   4.081  2.2386 -1.2081 -0.6643
16445TIP3    H270827   4.139   0.889   4.143 -3.3063  0.0647  2.3950
16446TIP3   OH270828   5.032   2.125  13.780  0.0842  0.3416 -0.5294
16446TIP3    H170829   5.108   2.137  13.837  0.4137  0.5942 -1.0093
16446TIP3    H270830   4.997   2.213  13.767 -1.0998  0.0947  0.7497
16447TIP3   OH270831   2.036   2.374  11.354 -0.2523 -0.2956  0.3906
16447TIP3    H170832   1.955   2.353  11.309  1.2097  1.1307 -3.3500
16447TIP3    H270833   2.086   2.292  11.354  0.4306 -0.0159 -2.5701
16448TIP3   OH270834   1.908   5.167   5.194  0.3431  0.2626  0.5264
16448TIP3    H170835   1.848   5.242   5.199 -1.5472 -1.2380  2.4960
16448TIP3    H270836   1.855   5.096   5.160  1.2085 -0.9105  1.5366
16449TIP3   OH270837   5.724   0.275  11.298 -0.3494 -0.0555 -0.2791
16449TIP3    H170838   5.800   0.227  11.264 -0.3293 -0.1432 -0.1130
16449TIP3    H270839   5.716   0.351  11.241  2.5744  2.4114  2.2563
16450TIP3   OH270840   4.687   2.580   0.217  0.0318 -0.6162 -0.2641
16450TIP3    H170841   4.631   2.506   0.195 -1.5442  0.8681 -1.5131
16450TIP3    H270842   4.658   2.651   0.160  1.1693  1.1290  1.1762
16451TIP3   OH270843   2.150   5.980  14.036 -0.0973  0.4258 -0.3119
16451TIP3    H170844   2.078   5.920  14.014 -0.9828  1.3573 -0.0347
16451TIP3    H270845   2.123   6.018  14.120  1.6127 -0.5821  0.7521
16452TIP3   OH270846   5.605   1.824   2.263 -0.3092 -0.3342  0.1530
16452TIP3    H170847   5.700   1.830   2.274 -0.5819  0.8210  2.3525
16452TIP3    H270848   5.583   1.738   2.299 -0.0395 -1.0685 -1.3292
16453TIP3   OH270849   5.317   2.555   4.738 -0.4374  0.0294 -0.3313
16453TIP3    H170850   5.367   2.632   4.764  0.9551 -0.9424 -0.0124
16453TIP3    H270851   5.380   2.483   4.743 -1.8735 -1.2463  0.0799
16454TIP3   OH270852   2.564   0.455  13.593  0.4337  0.2382  0.5921
16454TIP3    H170853   2.489   0.426  13.645 -0.1499  1.1529  0.2771
16454TIP3    H270854   2.532   0.456  13.503  1.1384 -0.3427  0.3143
16455TIP3   OH270855   6.290   3.821   1.497 -0.5161  0.1502 -0.6512
16455TIP3    H170856   6.310   3.729   1.510  0.2630  0.1538 -1.6757
16455TIP3    H270857   6.359   3.853   1.438  0.3144  1.8414  1.1206
16456TIP3   OH270858   2.049   0.374  12.912 -0.4332 -0.0613 -0.4674
16456TIP3    H170859   2.101   0.444  12.953 -3.1584  1.6102  0.4160
16456TIP3    H270860   2.109   0.334  12.848  1.8536  1.7740  0.3720
16457TIP3   OH270861   4.626   6.016   2.192 -0.5598 -0.3080 -1.2534
16457TIP3    H170862   4.599   5.925   2.202 -0.4601 -0.4011 -1.8142
16457TIP3    H270863   4.549   6.061   2.158 -0.9497  0.0434  0.0238
16458TIP3   OH270864   5.040   2.187  12.909 -0.2684  0.5337  0.4715
16458TIP3    H170865   5.008   2.277  12.916 -2.3559 -0.2606  2.1915
16458TIP3    H270866   5.061   2.161  12.999  2.4193 -0.0709 -0.2188
16459TIP3   OH270867   6.378   4.659   5.934  0.1904 -0.5105 -0.1361
16459TIP3    H170868   6.311   4.628   5.995  0.9590  1.4155  1.8398
16459TIP3    H270869   6.393   4.750   5.960  2.1684 -0.3001 -1.8041
16460TIP3   OH270870   1.612   0.281   5.599 -0.4116 -0.0088  0.0014
16460TIP3    H170871   1.546   0.263   5.666  1.2953 -0.2918  1.6862
16460TIP3    H270872   1.584   0.363   5.560 -2.2528 -0.5772  0.0050
16461TIP3   OH270873   4.701   1.678   0.333 -0.2441 -0.1842  0.3218
16461TIP3    H170874   4.744   1.686   0.419  2.0327  1.6408 -0.8776
16461TIP3    H270875   4.612   1.651   0.354  0.4510 -0.6289  3.2024
16462TIP3   OH270876   2.067   0.581  14.234 -0.3035 -0.2511 -0.2913
16462TIP3    H170877   1.997   0.581  14.300  0.8640 -1.9322  1.0730
16462TIP3    H270878   2.058   0.664  14.189 -0.7567  1.3567  2.4956
16463TIP3   OH270879   3.554   0.879  16.591 -0.2581  0.1016 -0.0928
16463TIP3    H170880   3.504   0.959  16.573 -0.6245 -0.1154 -0.0508
16463TIP3    H270881   3.643   0.898  16.560 -0.8166 -0.2031 -2.0173
16464TIP3   OH270882   3.088   0.474  14.939  0.3074  0.0080  0.6369
16464TIP3    H170883   3.160   0.486  15.001  1.4847  0.5394 -0.7686
16464TIP3    H270884   3.015   0.443  14.992  1.8469 -1.5113  1.9758
16465TIP3   OH270885   2.867   6.722   0.528 -0.0869 -0.0358 -0.3110
16465TIP3    H170886   2.887   6.740   0.619 -0.0351 -0.3289 -0.2636
16465TIP3    H270887   2.788   6.773   0.510 -0.5452 -0.5848  0.1226
16466TIP3   OH270888   3.367   4.861  15.354  0.4449  0.2511  0.3780
16466TIP3    H170889   3.303   4.902  15.412  0.0483  1.6992 -0.9969
16466TIP3    H270890   3.445   4.916  15.362  1.1185 -0.7961  1.1361
16467TIP3   OH270891   5.161   4.699  10.990  0.1969 -0.1396  0.5554
16467TIP3    H170892   5.132   4.630  10.930 -0.3044 -0.3354  1.0125
16467TIP3    H270893   5.126   4.780  10.951 -1.8534 -0.4672  1.5905
16468TIP3   OH270894   1.052   1.101  11.972 -0.6891  0.1512 -0.3868
16468TIP3    H170895   1.005   1.023  12.002 -0.9917  0.5958  0.3100
16468TIP3    H270896   1.133   1.101  12.023 -0.9729  0.6273  0.0745
16469TIP3   OH270897   6.019   1.337   2.280 -0.6383 -0.0799  0.2795
16469TIP3    H170898   6.020   1.246   2.252  1.3235 -0.5987  1.7836
16469TIP3    H270899   6.058   1.385   2.207  0.7619 -0.8537  0.4866
16470TIP3   OH270900   3.331   4.154   5.582 -0.2380  0.3097 -0.1641
16470TIP3    H170901   3.380   4.072   5.586 -0.6965  0.0096 -0.6827
16470TIP3    H270902   3.251   4.137   5.632 -1.8436 -0.6142 -2.8807
16471TIP3   OH270903   5.140   0.532   4.440  0.6439 -0.0756 -0.0958
16471TIP3    H170904   5.053   0.525   4.479  1.1725  0.2103  1.1790
16471TIP3    H270905   5.143   0.621   4.404  0.1960 -0.3001 -0.6957
16472TIP3   OH270906   6.766   4.563   5.830  0.2891  0.2103  0.1281
16472TIP3    H170907   6.703   4.592   5.895  0.4662  1.6438 -0.2947
16472TIP3    H270908   6.841   4.533   5.881  0.8788  2.3553  0.6361
16473TIP3   OH270909   0.949   1.692  13.053  0.4744  0.1347  0.1884
16473TIP3    H170910   0.934   1.784  13.074  1.0439  0.6674 -1.5881
16473TIP3    H270911   1.013   1.694  12.982  2.1483 -1.7138  1.5162
16474TIP3   OH270912   0.230   3.801  14.547 -0.2249  0.2009 -0.3595
16474TIP3    H170913   0.205   3.886  14.584  0.6480  0.9415 -1.4248
16474TIP3    H270914   0.245   3.819  14.454  0.4825 -1.0131 -0.4880
16475TIP3   OH270915   1.729   6.590  15.344  0.0506 -0.4180  0.2128
16475TIP3    H170916   1.717   6.685  15.355  1.3467 -0.1138 -0.7543
16475TIP3    H270917   1.754   6.580  15.252 -0.1757 -1.7282  0.2820
16476TIP3   OH270918   3.113   6.625   3.754  0.0553 -0.2975 -0.3076
16476TIP3    H170919   3.085   6.555   3.695 -0.9795  1.4410 -2.0040
16476TIP3    H270920   3.032   6.661   3.789  0.6178 -0.5318  1.2955
16477TIP3   OH270921   1.782   3.434   6.004  0.0250  0.0475  0.1089
16477TIP3    H170922   1.803   3.528   6.012  1.9814 -0.1645 -1.5210
16477TIP3    H270923   1.807   3.397   6.089  1.3398  0.6978  0.0380
16478TIP3   OH270924   3.968   2.971   0.177  0.1100  0.2416 -0.0768
16478TIP3    H170925   3.967   3.066   0.176  0.0584  0.2976  1.8599
16478TIP3    H270926   4.060   2.948   0.163  0.4152  0.6582  1.0860
16479TIP3   OH270927   6.209   6.441  11.718  0.2375  0.5682  0.0746
16479TIP3    H170928   6.220   6.372  11.653 -1.9689 -0.1807  0.4025
16479TIP3    H270929   6.245   6.520  11.676  0.1782 -0.1856 -1.4737
16480TIP3   OH270930   5.618   0.058   4.878  0.2525 -0.3326  0.2916
16480TIP3    H170931   5.624   0.149   4.848  1.7989 -0.2649  0.7660
16480TIP3    H270932   5.620   0.064   4.974 -1.5694 -0.7620  0.3896
16481TIP3   OH270933   3.230   5.046  14.748 -0.3439  0.1799  0.5976
16481TIP3    H170934   3.147   5.006  14.719  0.7085 -0.8638 -1.1607
16481TIP3    H270935   3.260   4.991  14.819  1.3232 -2.7119 -2.0927
16482TIP3   OH270936   6.213   2.777  10.800  0.4451  0.0935 -0.4087
16482TIP3    H170937   6.212   2.812  10.711  0.5051  0.9948 -0.0705
16482TIP3    H270938   6.126   2.737  10.811  1.0537 -1.6079 -1.4513
16483TIP3   OH270939   5.588   4.168   2.981  0.4847  0.1502 -0.2006
16483TIP3    H170940   5.574   4.259   3.007 -0.8607 -0.2541  0.5746
16483TIP3    H270941   5.567   4.166   2.888 -0.6165  0.4268  0.0230
16484TIP3   OH270942   4.113   2.891   4.979 -0.1785  0.5652  0.3399
16484TIP3    H170943   4.130   2.820   4.916 -1.9340  2.1530 -2.1381
16484TIP3    H270944   4.178   2.958   4.957  0.4590  0.3811  1.5973
16485TIP3   OH270945   4.769   4.820  14.514 -0.0176  0.1589 -0.0457
16485TIP3    H170946   4.722   4.871  14.448  2.9736  1.5324 -1.3017
16485TIP3    H270947   4.721   4.836  14.596 -2.8272 -0.2183 -1.4848
16486TIP3   OH270948   5.458   5.534  14.156  0.5640  0.3970 -0.0608
16486TIP3    H170949   5.498   5.497  14.234  1.1201  0.5423 -0.2728
16486TIP3    H270950   5.367   5.553  14.182  0.3726 -0.7596  0.1582
16487TIP3   OH270951   4.445   0.484  14.758 -0.6632  0.2632 -0.0657
16487TIP3    H170952   4.453   0.547  14.687 -2.2155  0.0560 -0.4564
16487TIP3    H270953   4.534   0.451  14.772  0.1326  2.2985 -0.0470
16488TIP3   OH270954   2.762   5.601  13.850  0.6790  0.2339  0.2675
16488TIP3    H170955   2.786   5.686  13.813  1.2805  0.3468  0.8792
16488TIP3    H270956   2.814   5.538  13.800  0.3935  0.2478 -0.0456
16489TIP3   OH270957   3.251   0.964  13.893  0.0212 -0.8489  0.9657
16489TIP3    H170958   3.283   0.874  13.890  4.1685  0.3357  2.5661
16489TIP3    H270959   3.257   0.988  13.986 -1.2865  1.0102  0.6202
16490TIP3   OH270960   2.584   1.705  15.838  0.1229 -0.2884 -0.7315
16490TIP3    H170961   2.629   1.789  15.840 -0.2937 -0.0522 -1.0266
16490TIP3    H270962   2.590   1.672  15.928  0.7905 -0.2158 -0.7490
16491TIP3   OH270963   4.164   4.208   1.225 -0.0127 -0.4624  0.5354
16491TIP3    H170964   4.164   4.118   1.256  2.1380  0.2268  2.8268
16491TIP3    H270965   4.249   4.244   1.251 -0.6089  2.1196 -0.6702
16492TIP3   OH270966   5.132   3.872   5.278 -0.0771  0.7272 -0.1737
16492TIP3    H170967   5.219   3.859   5.239 -1.3945  0.0805 -3.1498
16492TIP3    H270968   5.099   3.952   5.237 -2.1238 -0.8022 -1.7471
16493TIP3   OH270969   2.221   2.551   2.705 -0.1079  0.2030 -0.0403
16493TIP3    H170970   2.233   2.609   2.779 -1.3476 -0.8418  1.0327
16493TIP3    H270971   2.286   2.579   2.641  1.0458  1.0850  1.4601
16494TIP3   OH270972   5.934   6.538   0.253 -0.1840  0.4018 -0.1667
16494TIP3    H170973   5.914   6.474   0.184  1.2342  1.4218 -1.6097
16494TIP3    H270974   5.879   6.614   0.232 -2.0281 -0.3317  1.6694
16495TIP3   OH270975   3.328   5.969  11.786 -0.5757  0.3908  0.4439
16495TIP3    H170976   3.268   5.895  11.775 -0.0683 -0.3299  2.1610
16495TIP3    H270977   3.396   5.936  11.845  2.7211  0.5030 -2.9374
16496TIP3   OH270978   3.688   2.084   3.925  0.5576  0.3330 -0.1215
16496TIP3    H170979   3.637   2.086   4.006  0.2238 -0.9191 -0.2739
16496TIP3    H270980   3.763   2.028   3.946  1.6265  1.7345 -0.0557
16497TIP3   OH270981   3.345   1.607   4.467 -0.2177  0.6826  0.3377
16497TIP3    H170982   3.430   1.634   4.503  0.2103 -0.3093  0.1131
16497TIP3    H270983   3.328   1.669   4.396  0.4646  0.7096  0.1891
16498TIP3   OH270984   6.788   3.368   0.827  0.1825  0.7110 -0.0410
16498TIP3    H170985   6.728   3.339   0.896 -0.2246  0.7894 -0.3631
16498TIP3    H270986   6.863   3.403   0.874 -0.0383  0.6460  0.3628
16499TIP3   OH270987   6.580   0.658  12.974 -0.2974  0.1798 -0.1532
16499TIP3    H170988   6.623   0.728  13.023  2.0825 -1.6239  0.5699
16499TIP3    H270989   6.605   0.673  12.883 -0.3902  0.6688 -0.0974
16500TIP3   OH270990   4.320   0.307   2.428 -0.2735  0.3970 -0.6796
16500TIP3    H170991   4.362   0.264   2.354  0.8194  0.3159 -0.0423
16500TIP3    H270992   4.297   0.394   2.396 -0.4477  0.1185 -1.3147
16501TIP3   OH270993   2.454   1.076  13.427 -0.2694  0.1398  0.3807
16501TIP3    H170994   2.520   1.082  13.496 -0.4429 -2.6506  0.8964
16501TIP3    H270995   2.469   1.154  13.373  1.4450  1.1447  2.1701
16502TIP3   OH270996   0.469   2.078  15.633 -0.2595  0.2620 -0.0584
16502TIP3    H170997   0.496   1.997  15.589 -1.0918  0.1715 -0.4388
16502TIP3    H270998   0.382   2.097  15.595 -0.7239  0.5140  1.1001
16503TIP3   OH270999   3.325   1.669  15.358  0.6434  0.2765 -0.2798
16503TIP3    H171000   3.390   1.657  15.289  1.4913  1.1668  0.3339
16503TIP3    H271001   3.369   1.726  15.422 -0.0908 -0.5816  1.0221
16504TIP3   OH271002   1.677   5.224  11.435 -0.0846 -0.3275 -0.5938
16504TIP3    H171003   1.638   5.281  11.368 -1.6871  0.2174  0.7349
16504TIP3    H271004   1.771   5.237  11.426 -0.3728  1.7511 -1.0068
16505TIP3   OH271005   0.633   5.081   3.131  0.0859 -0.5883  0.4683
16505TIP3    H171006   0.596   5.150   3.077 -2.0336 -1.5285  0.5931
16505TIP3    H271007   0.727   5.096   3.129 -0.0957  0.6525 -1.7268
16506TIP3   OH271008   1.055   1.220   1.600  0.1467 -0.0043  0.2651
16506TIP3    H171009   1.132   1.203   1.545 -0.0269 -0.4492  0.1602
16506TIP3    H271010   1.001   1.142   1.591 -0.9041  0.7971 -0.6134
16507TIP3   OH271011   3.283   4.860   4.404 -0.0199 -0.1715 -0.3378
16507TIP3    H171012   3.283   4.956   4.403 -0.7419 -0.1671 -0.5502
16507TIP3    H271013   3.280   4.836   4.312  5.2877 -0.4841 -0.7245
16508TIP3   OH271014   1.095   6.446  11.853  0.0623 -0.0775  0.3646
16508TIP3    H171015   1.129   6.482  11.936  0.6287  0.8838 -0.2625
16508TIP3    H271016   1.115   6.514  11.788  0.3595 -1.1661 -0.7058
16509TIP3   OH271017   6.683   4.263   4.141  0.0904  0.1887 -0.1187
16509TIP3    H171018   6.758   4.309   4.103  0.2087  0.6467  0.6539
16509TIP3    H271019   6.607   4.297   4.094  0.1604  1.2823  0.5393
16510TIP3   OH271020   0.329   4.444  13.351  0.3381 -0.0436  0.6043
16510TIP3    H171021   0.341   4.459  13.258  0.1815  0.2180  0.6258
16510TIP3    H271022   0.411   4.404  13.380  0.5876  0.3563  0.4569
16511TIP3   OH271023   6.681   3.595   2.218 -0.2269 -0.2576 -0.4268
16511TIP3    H171024   6.732   3.625   2.293 -0.8348 -2.2751  0.8831
16511TIP3    H271025   6.744   3.586   2.147  0.5254  0.8187  0.0774
16512TIP3   OH271026   1.224   3.324  16.924 -0.3240  0.6132  0.0120
16512TIP3    H171027   1.149   3.383  16.921 -0.5442  0.6116  2.8695
16512TIP3    H271028   1.297   3.378  16.954 -0.0531 -0.1132  0.7122
16513TIP3   OH271029   0.024   4.917  16.652 -0.0632 -0.2727  0.6336
16513TIP3    H171030   0.058   4.959  16.731 -2.8752  0.5042  1.5504
16513TIP3    H271031   0.026   4.986  16.586 -1.3828  0.2942  1.1601
16514TIP3   OH271032   4.521   5.385  16.085  0.1594  0.0728 -0.1203
16514TIP3    H171033   4.563   5.442  16.021 -0.0636  0.0456 -0.2920
16514TIP3    H271034   4.450   5.438  16.121 -0.5958 -0.3946 -0.9089
16515TIP3   OH271035   3.555   1.676   3.236 -0.0688 -0.7103  0.1627
16515TIP3    H171036   3.644   1.674   3.272  0.1592 -0.9421 -0.3886
16515TIP3    H271037   3.498   1.656   3.310  0.1861  1.3061  0.9565
16516TIP3   OH271038   2.261   1.596  14.488  0.0586 -0.5281 -0.3007
16516TIP3    H171039   2.298   1.562  14.406  0.1019 -0.2745 -0.3872
16516TIP3    H271040   2.168   1.608  14.468  0.5243  2.2826 -1.2682
16517TIP3   OH271041   2.944   3.749   1.293 -0.1427 -0.0697  0.2907
16517TIP3    H171042   2.907   3.683   1.234 -1.1355  0.5365  0.2309
16517TIP3    H271043   2.873   3.771   1.353  0.0308  1.2732  0.0321
16518TIP3   OH271044   5.167   4.248  17.018 -0.0046 -0.8228  0.3377
16518TIP3    H171045   5.094   4.190  17.043 -1.7908  1.9588  2.1352
16518TIP3    H271046   5.151   4.268  16.926  0.6413 -3.0432 -0.3217
16519TIP3   OH271047   0.957   0.455   1.397  0.8226 -0.1787  0.0231
16519TIP3    H171048   0.904   0.377   1.377 -1.1967  0.5760  2.0575
16519TIP3    H271049   0.915   0.526   1.349  1.1232  0.1054  0.1727
16520TIP3   OH271050   2.752   1.609   0.344  0.2600  0.6907 -0.0710
16520TIP3    H171051   2.741   1.679   0.279 -1.5572  0.6006  0.0692
16520TIP3    H271052   2.812   1.547   0.303  1.8316  2.2533 -0.2472
16521TIP3   OH271053   0.681   3.267  16.985 -0.0114 -0.0751 -0.4343
16521TIP3    H171054   0.727   3.184  16.968  1.0814  0.4346 -0.0641
16521TIP3    H271055   0.737   3.313  17.047 -0.2497  1.2418 -1.1678
16522TIP3   OH271056   5.522   5.900  11.122  0.7323  0.2653  0.1356
16522TIP3    H171057   5.443   5.906  11.176  0.4895  1.8901 -0.3215
16522TIP3    H271058   5.504   5.829  11.060 -0.9893  1.4489 -0.8417
16523TIP3   OH271059   5.974   6.117  16.112  0.2536 -0.4440 -0.1899
16523TIP3    H171060   5.987   6.032  16.071  0.2798  0.1934 -1.5502
16523TIP3    H271061   5.892   6.150  16.075  1.3608  1.0748 -1.4358
16524TIP3   OH271062   0.584   4.250  17.093 -0.1353 -0.3236 -0.0041
16524TIP3    H171063   0.524   4.186  17.054 -0.6982  0.1950 -0.0025
16524TIP3    H271064   0.575   4.236  17.187  0.1355 -0.5963 -0.0178
16525TIP3   OH271065   1.346   2.940   3.548 -0.0533 -0.8282 -0.2039
16525TIP3    H171066   1.379   3.013   3.496  0.6625 -2.2181 -1.7886
16525TIP3    H271067   1.252   2.959   3.559 -0.2646 -0.5180 -2.1208
16526TIP3   OH271068   4.716   3.763   3.506 -0.4867  0.4532  0.2302
16526TIP3    H171069   4.630   3.774   3.548 -0.1833 -1.0466  1.3199
16526TIP3    H271070   4.705   3.689   3.447 -0.1107  0.7017 -0.1586
16527TIP3   OH271071   0.565   1.503  11.957 -0.8686  0.1893 -0.0214
16527TIP3    H171072   0.614   1.438  12.007 -1.3638  0.3908  0.7580
16527TIP3    H271073   0.474   1.490  11.985 -1.5931 -1.4534 -2.8369
16528TIP3   OH271074   4.200   5.985   1.526  0.3367 -0.1315 -0.4435
16528TIP3    H171075   4.232   6.058   1.578 -0.4563  0.7965 -1.2371
16528TIP3    H271076   4.111   5.969   1.559 -0.0552  0.2639 -1.2779
16529TIP3   OH271077   5.100   5.925   4.068  0.5527 -0.4023  0.1240
16529TIP3    H171078   5.111   5.940   4.162  1.4565 -2.1382  0.3396
16529TIP3    H271079   5.138   5.838   4.053 -0.1585 -0.4398 -1.7390
16530TIP3   OH271080   6.303   0.781  11.570  0.0240  0.3026  0.2445
16530TIP3    H171081   6.321   0.871  11.539 -1.2220  0.4520 -0.0717
16530TIP3    H271082   6.385   0.755  11.612  0.6496  1.3326 -0.2655
16531TIP3   OH271083   3.499   1.738  13.622  0.2837  0.0861  0.5477
16531TIP3    H171084   3.573   1.791  13.653 -0.8445  1.3390  1.1670
16531TIP3    H271085   3.495   1.665  13.684  0.7648  0.1943  0.7156
16532TIP3   OH271086   6.556   5.977   5.265 -0.2917 -0.1590 -0.3006
16532TIP3    H171087   6.514   5.972   5.351  0.1817 -1.8303 -0.1226
16532TIP3    H271088   6.649   5.964   5.284 -0.2982 -1.6584 -1.1204
16533TIP3   OH271089   2.575   5.546  14.738  0.0536 -0.2036 -0.7413
16533TIP3    H171090   2.630   5.517  14.811 -0.5655  0.7534  0.1330
16533TIP3    H271091   2.636   5.592  14.679  0.3382  0.1442 -0.1849
16534TIP3   OH271092   3.134   5.640   6.127 -0.8235 -0.3382  0.1481
16534TIP3    H171093   3.106   5.549   6.125 -1.9702 -0.0190  0.9271
16534TIP3    H271094   3.198   5.645   6.197  0.0268 -0.7441 -0.5835
16535TIP3   OH271095   5.464   1.646   3.429 -0.0874 -0.4567 -0.1030
16535TIP3    H171096   5.423   1.689   3.504  1.7495  1.1921  0.0447
16535TIP3    H271097   5.451   1.553   3.444 -1.2198 -0.0937  1.3773
16536TIP3   OH271098   4.536   6.831  13.396  0.0550  0.0381  0.6715
16536TIP3    H171099   4.553   6.797  13.484  4.0574  1.0762  0.4732
16536TIP3    H271100   4.532   6.926  13.408  0.7865  0.1985 -0.2460
16537TIP3   OH271101   3.608   1.844  14.057 -0.0906 -0.2625  0.3414
16537TIP3    H171102   3.665   1.791  14.113 -1.2037  0.2216  2.0191
16537TIP3    H271103   3.524   1.844  14.102 -1.4166 -0.7879 -1.9553
16538TIP3   OH271104   2.825   0.154   1.280 -0.2334 -0.1812 -0.4043
16538TIP3    H171105   2.803   0.080   1.336  1.8987 -0.6071 -0.0360
16538TIP3    H271106   2.807   0.123   1.191  1.9115 -1.7394 -0.3829
16539TIP3   OH271107   3.213   0.407  12.957 -0.0402 -0.5038  0.2095
16539TIP3    H171108   3.175   0.409  13.045 -0.1748  1.0607  0.1515
16539TIP3    H271109   3.304   0.380  12.971 -0.5058 -1.9809  0.6107
16540TIP3   OH271110   6.413   0.004   1.435  0.1582 -0.6409  0.8723
16540TIP3    H171111   6.461   0.064   1.379  0.3211 -1.1180  0.4937
16540TIP3    H271112   6.321   0.014   1.408  0.1325 -0.2773  1.0840
16541TIP3   OH271113   1.432   6.184   4.804 -0.7132  0.4347  0.5232
16541TIP3    H171114   1.405   6.247   4.870 -0.1260  0.5025  0.6952
16541TIP3    H271115   1.509   6.222   4.763 -1.6902  0.9071 -0.9520
16542TIP3   OH271116   1.097   6.515   4.836  0.3141  0.5332 -0.1457
16542TIP3    H171117   1.019   6.568   4.850  0.7252  0.9934  0.4569
16542TIP3    H271118   1.163   6.577   4.806  0.8085  0.3848  0.5946
16543TIP3   OH271119   5.426   0.140  14.190 -0.0130  0.3161 -0.1883
16543TIP3    H171120   5.453   0.150  14.099 -1.8185  0.6066 -0.7405
16543TIP3    H271121   5.478   0.067  14.223  0.7395  0.2736 -1.4076
16544TIP3   OH271122   2.516   4.089  12.061 -0.0966 -0.0383  0.3890
16544TIP3    H171123   2.542   4.059  11.974 -0.1835  0.4321  0.1979
16544TIP3    H271124   2.458   4.020  12.093 -1.5580  0.6113 -0.6886
16545TIP3   OH271125   6.364   2.099  15.084  0.5104  0.6500  0.5399
16545TIP3    H171126   6.356   2.182  15.131 -0.5695  1.3101 -0.7728
16545TIP3    H271127   6.277   2.083  15.048  0.3291 -1.7147  1.8089
16546TIP3   OH271128   0.770   5.923   3.265  0.1432 -0.2555 -0.4738
16546TIP3    H171129   0.739   5.932   3.355 -0.2515 -2.9160 -0.2582
16546TIP3    H271130   0.866   5.926   3.272  0.1152 -0.6358  0.0584
16547TIP3   OH271131   0.044   4.260  10.899 -0.1262 -0.2870 -0.8728
16547TIP3    H171132   0.112   4.224  10.957 -0.7574 -0.4287 -0.1971
16547TIP3    H271133  -0.031   4.202  10.911  0.0007 -0.8476 -2.5380
16548TIP3   OH271134   4.734   5.280  16.737 -0.4195 -0.5095 -0.4875
16548TIP3    H171135   4.799   5.249  16.800 -1.0695 -1.5687 -0.3165
16548TIP3    H271136   4.650   5.248  16.771 -0.8994 -0.2009 -1.3407
16549TIP3   OH271137   5.436   4.819   1.819 -0.3548 -0.0058 -0.2305
16549TIP3    H171138   5.501   4.767   1.772 -0.1323 -0.5847  0.6917
16549TIP3    H271139   5.400   4.759   1.885 -0.5114  0.8316  0.4667
16550TIP3   OH271140   0.221   1.670  16.655 -0.1829  0.3572 -0.0643
16550TIP3    H171141   0.268   1.743  16.615 -0.9683 -0.6635 -3.1018
16550TIP3    H271142   0.201   1.611  16.583 -0.5250 -2.3970  2.1010
16551TIP3   OH271143   4.692   3.723  15.283 -0.3209  0.4890  0.3364
16551TIP3    H171144   4.681   3.764  15.369 -2.0381  1.0388 -0.0951
16551TIP3    H271145   4.786   3.717  15.271 -0.0418  0.5022  2.2026
16552TIP3   OH271146   3.840   3.628   4.120 -0.5639  0.4568  0.0540
16552TIP3    H171147   3.797   3.544   4.133 -0.6319  0.7647  2.0657
16552TIP3    H271148   3.773   3.684   4.081 -1.4526  0.3987  1.4429
16553TIP3   OH271149   2.585   6.590   3.769  0.2405 -0.2954 -0.7351
16553TIP3    H171150   2.676   6.617   3.763  0.0840  0.3964 -0.1321
16553TIP3    H271151   2.570   6.580   3.863 -0.5882  0.5999 -0.7584
16554TIP3   OH271152   1.468   5.707  11.609  0.3781  0.2247  0.5378
16554TIP3    H171153   1.486   5.692  11.516 -0.1673 -0.1266  0.4899
16554TIP3    H271154   1.540   5.764  11.638  1.4374 -0.9318  0.2745
16555TIP3   OH271155   3.556   1.237  15.626  0.2703 -0.5138  0.1427
16555TIP3    H171156   3.493   1.234  15.554  2.2057  0.7261 -1.7287
16555TIP3    H271157   3.512   1.289  15.694 -0.8589  0.0361 -0.9499
16556TIP3   OH271158   0.355   6.018   2.774 -0.5151 -0.1324 -0.0026
16556TIP3    H171159   0.444   6.045   2.755 -0.6608  0.3808  0.0347
16556TIP3    H271160   0.306   6.041   2.695 -0.6063 -0.4722 -0.0493
16557TIP3   OH271161   5.882   4.910   5.209  0.1490  0.3084  0.0716
16557TIP3    H171162   5.866   4.818   5.188 -0.0899 -0.0187  1.5530
16557TIP3    H271163   5.827   4.958   5.147  0.5066 -0.5205 -0.9194
16558TIP3   OH271164   3.044   3.008   4.212  0.0892 -0.3606 -0.2312
16558TIP3    H171165   3.049   2.962   4.296 -0.6243  0.0959  0.0690
16558TIP3    H271166   2.958   2.986   4.178  0.7152 -1.2851 -1.2944
16559TIP3   OH271167   4.064   2.597   3.117  0.4784  0.0155  0.2361
16559TIP3    H171168   4.109   2.602   3.201  1.3477  0.2863 -0.2442
16559TIP3    H271169   4.133   2.585   3.052 -0.2318 -0.9621 -0.3801
16560TIP3   OH271170   1.317   3.907  16.190  0.7494 -0.9085  0.1715
16560TIP3    H171171   1.286   3.818  16.207  0.4921 -0.6888  0.8897
16560TIP3    H271172   1.296   3.955  16.270  0.7437 -0.1608 -0.2771
16561TIP3   OH271173   3.010   3.581  12.838  0.0698  0.3546  0.5816
16561TIP3    H171174   3.096   3.618  12.819  1.0469 -1.5056  1.1454
16561TIP3    H271175   2.985   3.621  12.922 -0.1827  1.7949 -0.1567
16562TIP3   OH271176   2.527   0.995   1.745  0.9612  0.3707  0.5399
16562TIP3    H171177   2.535   0.900   1.757  0.2099  0.2522  0.1500
16562TIP3    H271178   2.611   1.030   1.777  1.0967 -0.3852  1.0451
16563TIP3   OH271179   2.137   1.535   3.577  1.0485  0.2279  0.4002
16563TIP3    H171180   2.206   1.469   3.571 -0.5278 -1.4619  0.1143
16563TIP3    H271181   2.102   1.542   3.488  1.3706  1.7048  0.3583
16564TIP3   OH271182   3.864   0.989  14.063  0.6296  0.3337 -0.3777
16564TIP3    H171183   3.904   0.960  13.981 -0.0931  1.0415 -0.9820
16564TIP3    H271184   3.918   0.948  14.131  0.5811 -1.1576 -1.1967
16565TIP3   OH271185   4.132   3.796  13.681  0.0792  0.2923 -0.0404
16565TIP3    H171186   4.218   3.774  13.645 -0.0978 -0.2642 -0.1432
16565TIP3    H271187   4.119   3.888  13.659  0.3165  0.1727 -0.6956
16566TIP3   OH271188   5.294   4.328  16.064  0.0430 -0.0447  0.5148
16566TIP3    H171189   5.286   4.421  16.042 -0.8604 -0.0469  0.7807
16566TIP3    H271190   5.366   4.325  16.127  1.4734  0.1877 -1.0132
16567TIP3   OH271191   4.441   0.706   4.685  0.1422 -0.2333  0.2062
16567TIP3    H171192   4.363   0.689   4.737  0.7770 -1.0216  0.9336
16567TIP3    H271193   4.431   0.652   4.607  0.3470 -0.9797  0.6927
16568TIP3   OH271194   0.545   3.990   2.696 -0.0210  0.1370 -0.6176
16568TIP3    H171195   0.569   3.898   2.710  1.3135  0.6783  0.8480
16568TIP3    H271196   0.450   3.991   2.706 -0.0864 -1.1337 -0.9343
16569TIP3   OH271197   3.040   3.940  14.580  0.0779  0.0565 -0.1885
16569TIP3    H171198   3.026   3.846  14.570 -1.8876  0.1615  1.0369
16569TIP3    H271199   3.122   3.957  14.533  0.0027 -2.0886 -1.2180
16570TIP3   OH271200   3.528   4.643  12.173 -0.1401 -0.1374  0.6075
16570TIP3    H171201   3.556   4.587  12.245  2.9341  0.9024  0.3401
16570TIP3    H271202   3.606   4.692  12.148 -2.4018  3.6127  0.1604
16571TIP3   OH271203   4.212   1.137  14.660 -0.5378 -0.0611  0.8549
16571TIP3    H171204   4.236   1.221  14.697  0.1081 -0.3419  1.0845
16571TIP3    H271205   4.200   1.080  14.736 -3.4987  0.4404  0.8699
16572TIP3   OH271206   4.448   6.648   2.958  0.1106 -0.3148  0.2206
16572TIP3    H171207   4.446   6.553   2.947  1.4246 -0.1864 -1.7194
16572TIP3    H271208   4.494   6.662   3.041  1.5278 -1.4022 -0.3256
16573TIP3   OH271209   4.540   1.098   4.192 -0.0411  0.1609  0.6142
16573TIP3    H171210   4.537   1.003   4.199  1.3217  0.1154  0.9908
16573TIP3    H271211   4.465   1.121   4.138 -0.4361 -1.1199  0.5862
16574TIP3   OH271212   0.478   2.590  15.031 -0.4063  0.5792  0.7490
16574TIP3    H171213   0.536   2.526  14.991 -1.9969 -0.1059 -0.5507
16574TIP3    H271214   0.476   2.566  15.124 -2.0503 -2.2167  0.1017
16575TIP3   OH271215   2.300   0.113  15.841  0.1646  0.3582  1.0403
16575TIP3    H171216   2.288   0.070  15.757  0.2556  0.0810  1.1650
16575TIP3    H271217   2.226   0.173  15.849  1.0783  1.6781 -0.0070
16576TIP3   OH271218   1.154   0.727  14.136 -0.4439 -0.4662  0.7185
16576TIP3    H171219   1.245   0.712  14.162 -0.7427 -0.0816  2.0484
16576TIP3    H271220   1.118   0.784  14.204 -0.8558  1.9100 -1.3369
16577TIP3   OH271221   2.233   5.634   3.426  0.0683  0.7860 -0.0766
16577TIP3    H171222   2.293   5.709   3.423 -0.6659  1.4061 -2.8126
16577TIP3    H271223   2.250   5.587   3.344 -1.7183 -0.1903  0.0589
16578TIP3   OH271224   2.901   1.019   4.065 -1.2700 -0.3388 -0.3802
16578TIP3    H171225   2.884   0.925   4.062 -3.0910 -0.0277 -1.1274
16578TIP3    H271226   2.908   1.039   4.158 -0.5847 -1.2493 -0.2257
16579TIP3   OH271227   3.118   4.811   2.192  0.1551 -0.4783 -0.2291
16579TIP3    H171228   3.177   4.881   2.162 -0.1149  0.3263  1.0538
16579TIP3    H271229   3.038   4.857   2.216 -0.4090 -1.3713 -0.3546
16580TIP3   OH271230   2.516   5.690   4.365  0.3338 -0.5232  0.2165
16580TIP3    H171231   2.591   5.740   4.398 -0.3889 -0.6349  2.1793
16580TIP3    H271232   2.509   5.616   4.425  0.9093 -2.6692 -2.1569
16581TIP3   OH271233   0.990   3.248  14.977 -0.2978 -0.4552 -0.7115
16581TIP3    H171234   0.943   3.324  14.943  0.1432  0.6069  0.9179
16581TIP3    H271235   0.949   3.229  15.061  0.1852 -1.4662 -0.6844
16582TIP3   OH271236   0.880   5.559  16.609  0.2375 -0.6125  0.0651
16582TIP3    H171237   0.971   5.560  16.579  0.2450 -1.2334  0.0535
16582TIP3    H271238   0.829   5.574  16.530  0.3239 -0.4975  0.0321
16583TIP3   OH271239   0.457   6.064   1.524 -0.2143  0.2451  0.1515
16583TIP3    H171240   0.460   5.968   1.513 -0.3770  0.0023  1.9450
16583TIP3    H271241   0.368   6.088   1.498 -0.0245 -0.0222 -0.7633
16584TIP3   OH271242   5.896   0.341  13.470  0.2882  0.6378  0.0875
16584TIP3    H171243   5.887   0.331  13.375  1.7980 -0.1993  0.0053
16584TIP3    H271244   5.870   0.432  13.487 -5.2737 -0.5278 -0.3570
16585TIP3   OH271245   2.910   2.347   5.246 -0.2305  0.2012 -0.5671
16585TIP3    H171246   2.982   2.378   5.190  1.5999  1.0217  2.0508
16585TIP3    H271247   2.953   2.294   5.313 -2.1947 -0.0002  0.6143
16586TIP3   OH271248   0.457   3.217   5.718  0.1529  0.5506  0.2101
16586TIP3    H171249   0.366   3.240   5.738 -0.7674 -0.1331 -2.7331
16586TIP3    H271250   0.487   3.169   5.795 -1.6947  1.4628  1.5826
16587TIP3   OH271251   0.887   5.577  11.329  0.1988 -0.0689 -0.0027
16587TIP3    H171252   0.975   5.581  11.294 -0.0084  0.1868 -0.5112
16587TIP3    H271253   0.843   5.654  11.292 -0.1227  0.0231  0.5523
16588TIP3   OH271254   0.891   0.428   0.867 -0.3778 -0.1585  0.9544
16588TIP3    H171255   0.844   0.494   0.917 -1.1310  1.1054 -1.2423
16588TIP3    H271256   0.913   0.472   0.784  0.8500 -2.0772  0.1795
16589TIP3   OH271257   2.810   3.847   6.011 -0.3305  0.1848 -0.4693
16589TIP3    H171258   2.755   3.845   6.089  0.5591  1.1816  0.2173
16589TIP3    H271259   2.899   3.836   6.044  0.1122  1.2236 -1.2539
16590TIP3   OH271260   5.150   2.570  15.076 -0.5290  0.3305  0.3588
16590TIP3    H171261   5.212   2.601  15.011 -0.0569 -0.6928  0.3102
16590TIP3    H271262   5.117   2.487  15.041  2.0847 -1.9414  2.7789
16591TIP3   OH271263   2.580   2.302  11.634  0.3971 -0.5966 -0.4162
16591TIP3    H171264   2.631   2.335  11.559  0.9651 -3.1672 -1.2523
16591TIP3    H271265   2.495   2.345  11.625  1.1091  0.7154 -1.3170
16592TIP3   OH271266   1.239   0.785   1.392  0.7421  0.5467  0.0859
16592TIP3    H171267   1.212   0.806   1.481 -1.0671  1.7216 -0.6648
16592TIP3    H271268   1.166   0.815   1.337  1.2672 -1.1988 -1.7081
16593TIP3   OH271269   4.658   4.139  10.658 -0.7196  0.3908  0.3932
16593TIP3    H171270   4.637   4.230  10.636 -0.4302 -0.0978 -2.1630
16593TIP3    H271271   4.592   4.115  10.724 -1.1198  2.2804  0.7318
16594TIP3   OH271272   5.329   2.156  15.483  0.4385 -0.2678  0.0079
16594TIP3    H171273   5.360   2.239  15.518  0.5235 -0.2331 -0.1501
16594TIP3    H271274   5.280   2.116  15.555  1.9285 -0.9119  0.7037
16595TIP3   OH271275   0.584   0.807   3.731 -0.4209  0.5761  0.7464
16595TIP3    H171276   0.670   0.767   3.718 -0.8779 -0.0609 -0.5100
16595TIP3    H271277   0.602   0.900   3.747  0.5212  0.3203  1.2479
16596TIP3   OH271278   4.331   1.552   3.737 -0.0912 -0.0963  0.5488
16596TIP3    H171279   4.300   1.635   3.774  0.2494  0.8687 -1.2216
16596TIP3    H271280   4.426   1.560   3.736 -0.1008  0.5846 -1.8492
16597TIP3   OH271281   4.801   2.179  11.819  0.4128 -0.2184  0.1767
16597TIP3    H171282   4.709   2.154  11.823  0.1324  0.7915  0.4533
16597TIP3    H271283   4.820   2.186  11.726  0.0401  0.1559  0.1262
16598TIP3   OH271284   1.192   4.800  15.741 -0.3294  0.7287  0.4101
16598TIP3    H171285   1.272   4.844  15.712 -1.0247  1.5149 -0.3852
16598TIP3    H271286   1.222   4.718  15.780  0.7535  0.1605 -1.5083
16599TIP3   OH271287   0.093   5.530   5.695 -0.0189 -0.9352 -0.0052
16599TIP3    H171288   0.140   5.598   5.647 -0.9618  0.6932  1.2870
16599TIP3    H271289   0.018   5.509   5.639  1.1941 -2.2363 -1.2252
16600TIP3   OH271290   5.462   2.593   0.186 -0.0099 -0.4310 -0.2116
16600TIP3    H171291   5.536   2.535   0.203 -1.0263 -1.7644 -0.2471
16600TIP3    H271292   5.477   2.626   0.097 -0.0459 -1.6208 -0.6759
16601TIP3   OH271293   0.691   6.235  13.955  0.2854 -0.3541 -0.4766
16601TIP3    H171294   0.679   6.163  13.892 -1.8700 -0.0464 -0.5108
16601TIP3    H271295   0.639   6.208  14.031  0.0842  0.7931 -0.1880
16602TIP3   OH271296   4.325   0.344   3.659  0.0146 -0.0831 -0.4259
16602TIP3    H171297   4.328   0.399   3.580 -1.3239  1.1806  0.3335
16602TIP3    H271298   4.244   0.371   3.703 -0.2388 -2.0993  0.4385
16603TIP3   OH271299   0.814   4.323   2.509 -0.4496  0.0248 -0.1937
16603TIP3    H171300   0.877   4.285   2.447 -0.1260 -0.5751  0.4894
16603TIP3    H271301   0.867   4.349   2.584 -0.7581  1.3132 -0.4110
16604TIP3   OH271302   4.510   1.257  13.579 -0.1598 -0.3522 -0.1374
16604TIP3    H171303   4.441   1.249  13.645 -0.6615  1.7939 -0.3344
16604TIP3    H271304   4.589   1.277  13.628  0.5684 -3.4115  0.1456
16605TIP3   OH271305   3.199   5.486  11.506  0.0522  0.4425  0.1067
16605TIP3    H171306   3.231   5.527  11.587  0.0697 -0.2888  0.4768
16605TIP3    H271307   3.120   5.535  11.484  1.2143  2.0771 -0.6467
16606TIP3   OH271308   3.600   2.134   6.340 -0.6071  0.0537 -0.3475
16606TIP3    H171309   3.525   2.185   6.369 -1.7216 -1.6320 -0.0963
16606TIP3    H271310   3.582   2.115   6.248 -0.2320  0.0726 -0.4265
16607TIP3   OH271311   1.689   3.274   1.795 -0.6627 -0.3499 -0.7109
16607TIP3    H171312   1.769   3.324   1.780 -1.2259  0.1956 -2.0503
16607TIP3    H271313   1.629   3.336   1.836 -0.3641 -0.8037  0.4423
16608TIP3   OH271314   6.416   1.990   1.845 -0.5252 -0.9949  0.4068
16608TIP3    H171315   6.481   2.010   1.912 -1.8774 -0.0699  1.5131
16608TIP3    H271316   6.465   1.985   1.763  0.8125  0.5506  1.0722
16609TIP3   OH271317   5.001   0.578  11.427  0.0534 -0.2124 -0.4834
16609TIP3    H171318   4.969   0.518  11.494  0.0982 -0.7163 -0.9095
16609TIP3    H271319   4.926   0.591  11.368 -0.0892  0.4884 -0.1664
16610TIP3   OH271320   0.043   5.651  16.348  0.3186  0.2400  0.9963
16610TIP3    H171321   0.097   5.675  16.424 -0.7485  3.1121  0.9868
16610TIP3    H271322  -0.037   5.702  16.359 -0.2169  0.1021 -1.6506
16611TIP3   OH271323   2.907   5.716   1.244 -0.2748 -0.0058 -0.1445
16611TIP3    H171324   2.867   5.643   1.196 -0.2408 -0.8878  1.1157
16611TIP3    H271325   2.872   5.709   1.333 -0.6480  1.8297 -0.1036
16612TIP3   OH271326   5.473   2.651   3.308 -0.1011  0.0782 -0.7982
16612TIP3    H171327   5.466   2.693   3.393 -0.3715 -0.9983 -0.2774
16612TIP3    H271328   5.390   2.671   3.264 -0.3013 -0.0779 -0.4866
16613TIP3   OH271329   5.520   6.012  13.535  0.1474  0.1319  0.7201
16613TIP3    H171330   5.594   5.957  13.511  1.1023  2.3668 -2.0014
16613TIP3    H271331   5.456   5.952  13.573  1.8616 -2.4794 -0.3090
16614TIP3   OH271332   5.192   6.579   1.332  0.0727  0.1315 -0.1629
16614TIP3    H171333   5.282   6.607   1.314 -0.5126  3.2441  1.1953
16614TIP3    H271334   5.178   6.506   1.272  3.0881  0.3281 -1.2882
16615TIP3   OH271335   4.867   4.103   3.849  0.8662 -0.0475  0.0715
16615TIP3    H171336   4.847   4.166   3.780 -0.7291  0.6120  1.0945
16615TIP3    H271337   4.917   4.153   3.914  0.4299 -0.0861  0.4391
16616TIP3   OH271338   2.295   6.402  12.688  0.1330 -0.9624  0.3323
16616TIP3    H171339   2.339   6.447  12.760 -5.4592  2.3990  2.3079
16616TIP3    H271340   2.243   6.333  12.731 -2.1783  0.1533 -0.5068
16617TIP3   OH271341   6.845   2.779   3.817 -0.4785  0.3643 -0.3920
16617TIP3    H171342   6.815   2.727   3.892  1.4128  0.9338  0.8436
16617TIP3    H271343   6.926   2.736   3.789  1.0434  2.4197  0.5591
16618TIP3   OH271344   3.933   2.765  11.316  0.1646 -0.3051 -0.3992
16618TIP3    H171345   3.993   2.722  11.377  1.8657 -0.6657 -2.2313
16618TIP3    H271346   3.969   2.853  11.305  0.5417 -0.6090 -1.7242
16619TIP3   OH271347   3.902   6.159  11.608 -0.5707 -0.0009 -0.6269
16619TIP3    H171348   3.806   6.160  11.604 -0.5668 -1.2264 -1.7592
16619TIP3    H271349   3.926   6.077  11.565  0.8621 -1.3097  2.3471
16620TIP3   OH271350   4.223   2.110   4.415 -0.3542 -0.0128  0.0206
16620TIP3    H171351   4.218   2.174   4.343  0.2394 -0.9023 -0.8419
16620TIP3    H271352   4.316   2.085   4.417 -0.4985 -0.4958  0.6648
16621TIP3   OH271353   0.622   0.342   1.339 -0.2110 -0.1426  0.3100
16621TIP3    H171354   0.674   0.265   1.362  0.7048  1.0566  2.4770
16621TIP3    H271355   0.668   0.416   1.378 -1.7343  1.3815 -0.6258
16622TIP3   OH271356   2.811   4.056   2.670 -0.0307  0.3863  0.6613
16622TIP3    H171357   2.755   4.001   2.726 -0.5938  1.0451  0.7501
16622TIP3    H271358   2.825   4.003   2.592 -0.0241 -0.1544  1.0200
16623TIP3   OH271359   1.783   0.395  15.483  0.8702 -0.5464  0.0017
16623TIP3    H171360   1.758   0.449  15.559 -0.7373  1.1040 -1.6073
16623TIP3    H271361   1.844   0.450  15.434 -0.6323 -0.2027 -1.5530
16624TIP3   OH271362   4.479   6.399  16.592 -0.0810  0.4360  0.3111
16624TIP3    H171363   4.410   6.388  16.658  0.2521  0.9948  0.7652
16624TIP3    H271364   4.469   6.489  16.562  0.0796  0.3331 -0.0504
16625TIP3   OH271365   0.517   3.782   3.157 -0.1279  0.0130  0.1231
16625TIP3    H171366   0.540   3.747   3.071 -0.8300 -0.8233  0.2509
16625TIP3    H271367   0.600   3.793   3.203  0.1566 -1.0723 -0.1059
16626TIP3   OH271368   0.147   4.315  16.932  0.2084  0.6997 -0.2592
16626TIP3    H171369   0.096   4.354  17.003 -1.4450  0.9658 -1.5155
16626TIP3    H271370   0.214   4.380  16.913  0.1331  1.0072  0.4813
16627TIP3   OH271371   5.642   6.178   0.281 -0.3967 -0.4211  0.2916
16627TIP3    H171372   5.661   6.271   0.266 -0.2418 -0.6369 -0.9154
16627TIP3    H271373   5.570   6.178   0.344 -0.8881  0.5386 -0.2541
16628TIP3   OH271374   6.475   6.077   6.582  0.3250  0.2530 -0.8229
16628TIP3    H171375   6.391   6.084   6.628  0.4981 -0.6278 -0.3655
16628TIP3    H271376   6.534   6.036   6.644  0.7434 -0.3586 -1.6054
16629TIP3   OH271377   1.971   3.743   3.351 -0.1523 -0.9133 -0.6977
16629TIP3    H171378   1.966   3.834   3.379  0.9540 -0.4681 -1.8433
16629TIP3    H271379   2.016   3.746   3.266 -1.5656 -2.3715 -1.5731
16630TIP3   OH271380   3.014   4.263   3.970 -0.2108 -0.0069  0.3225
16630TIP3    H171381   2.946   4.329   3.984 -0.3862  0.5800 -2.7611
16630TIP3    H271382   3.007   4.205   4.047 -2.2930  1.6065  1.4513
16631TIP3   OH271383   5.627   5.444   2.207  0.1996  0.3565  0.1098
16631TIP3    H171384   5.605   5.494   2.286  0.3153  0.6677 -0.0541
16631TIP3    H271385   5.560   5.376   2.202  0.7999 -0.3433  1.0727
16632TIP3   OH271386   4.768   6.841   1.213  0.2207 -0.0475  0.1004
16632TIP3    H171387   4.709   6.891   1.157 -0.1867 -0.9312 -0.2804
16632TIP3    H271388   4.834   6.904   1.241  2.0382 -0.0671 -3.5429
16633TIP3   OH271389   0.525   2.330   2.421 -0.2597 -0.4336 -0.1083
16633TIP3    H171390   0.475   2.324   2.340 -0.2553  0.3790 -0.1747
16633TIP3    H271391   0.617   2.330   2.393 -0.2210 -1.2778 -0.0241
16634TIP3   OH271392   2.886   6.513  11.455 -0.2271 -0.6956  0.3769
16634TIP3    H171393   2.807   6.529  11.403 -1.0392  0.2577  1.8435
16634TIP3    H271394   2.853   6.483  11.540  0.9188  1.0496  1.4883
16635TIP3   OH271395   4.685   2.315  16.019  0.2859 -0.2707 -0.0276
16635TIP3    H171396   4.653   2.373  16.088  0.5927  0.9673 -0.8848
16635TIP3    H271397   4.666   2.362  15.938 -0.1400 -1.7257 -0.8113
16636TIP3   OH271398   3.285   2.733  15.746  0.2061  0.3343  0.1448
16636TIP3    H171399   3.279   2.758  15.654 -0.4402 -0.3772 -0.0195
16636TIP3    H271400   3.370   2.688  15.753  0.3396  0.5532 -0.0661
16637TIP3   OH271401   4.265   0.253  13.330 -0.6250 -0.3094  0.0483
16637TIP3    H171402   4.263   0.185  13.262  2.5000  1.5744 -2.1467
16637TIP3    H271403   4.204   0.319  13.300 -0.1641 -0.0330 -0.2805
16638TIP3   OH271404   1.054   4.006   4.610  0.7071  0.4205  0.1268
16638TIP3    H171405   1.085   4.088   4.649  1.8130  0.3732 -0.6056
16638TIP3    H271406   1.128   3.974   4.559 -0.3999  0.0420 -1.3195
16639TIP3   OH271407   4.713   5.096  15.983  0.4871 -0.1542  0.6532
16639TIP3    H171408   4.729   5.189  16.000  0.9638 -0.0562 -0.2399
16639TIP3    H271409   4.619   5.091  15.965  0.7195  0.4471 -0.8990
16640TIP3   OH271410   1.208   5.624  12.656 -0.6993  0.2347 -0.0111
16640TIP3    H171411   1.183   5.591  12.569  0.1777 -2.0448  0.5414
16640TIP3    H271412   1.303   5.637  12.651 -0.5481 -0.5273  0.7990
16641TIP3   OH271413   1.161   1.461   0.212  0.2572 -0.0617 -0.3932
16641TIP3    H171414   1.095   1.513   0.166 -0.2464 -0.4724 -0.1465
16641TIP3    H271415   1.243   1.481   0.167 -0.3046 -0.9233 -1.8930
16642TIP3   OH271416   6.351   1.672  12.443 -0.0724 -0.6452  0.6466
16642TIP3    H171417   6.341   1.577  12.445 -0.9003 -0.5797  0.3184
16642TIP3    H271418   6.321   1.698  12.356  1.2039 -0.1779  0.3287
16643TIP3   OH271419   4.010   6.014   2.828  0.1370 -0.6990  0.1294
16643TIP3    H171420   3.950   6.088   2.839  0.0748 -0.8469  0.7814
16643TIP3    H271421   4.002   5.991   2.735 -0.4477 -0.4054  0.1020
16644TIP3   OH271422   5.107   6.522   5.077  0.0591  0.2688  0.1063
16644TIP3    H171423   5.046   6.453   5.051  0.1770 -0.7172  2.2435
16644TIP3    H271424   5.186   6.504   5.026 -0.5161 -0.0862 -0.6810
16645TIP3   OH271425   1.061   1.075  16.384 -0.3249  0.3994 -0.5178
16645TIP3    H171426   1.013   0.996  16.409  2.0029 -0.8232  0.3956
16645TIP3    H271427   1.086   1.115  16.467  0.4582  0.8256 -0.9488
16646TIP3   OH271428   5.135   5.177   2.516 -0.3112  0.3870  0.0336
16646TIP3    H171429   5.142   5.146   2.426  0.6530  1.1352 -0.1692
16646TIP3    H271430   5.061   5.238   2.515 -0.0847  0.6604 -0.3361
16647TIP3   OH271431   3.028   4.651  14.010 -0.2653  0.4247 -0.3952
16647TIP3    H171432   3.076   4.734  14.013 -0.6488  0.6610 -0.7094
16647TIP3    H271433   2.965   4.658  14.083 -2.0944  1.5370 -1.9850
16648TIP3   OH271434   2.023   3.648   5.373 -0.0146 -0.0677 -0.7701
16648TIP3    H171435   1.937   3.611   5.354 -0.0905  0.0153 -0.5905
16648TIP3    H271436   2.056   3.596   5.446 -0.5646  0.8760  0.1733
16649TIP3   OH271437   5.090   0.548  13.309 -0.0696 -1.2179 -0.1736
16649TIP3    H171438   5.163   0.561  13.368 -1.2252  0.1028  1.0372
16649TIP3    H271439   5.116   0.593  13.228 -1.1020  3.1205  1.6055
16650TIP3   OH271440   1.987   5.785   3.779 -0.4429 -0.2942  0.4430
16650TIP3    H171441   2.044   5.714   3.751 -0.1576  0.1996 -0.2405
16650TIP3    H271442   2.022   5.812   3.864  1.2342  0.9441 -0.5904
16651TIP3   OH271443   4.606   1.028   3.693  0.0005  0.0888  0.1355
16651TIP3    H171444   4.522   1.007   3.733  0.9814 -0.6949  1.9304
16651TIP3    H271445   4.612   1.124   3.697 -0.2847  0.0744  1.1658
16652TIP3   OH271446   5.287   3.457   2.122 -0.2065  0.0603  0.5154
16652TIP3    H171447   5.336   3.535   2.147 -0.0609  0.4882 -1.0344
16652TIP3    H271448   5.339   3.417   2.053 -1.8336  0.3329 -0.9329
16653TIP3   OH271449   6.060   4.628  11.342 -0.2337 -0.0800 -0.0592
16653TIP3    H171450   6.006   4.705  11.360 -0.1243  0.1794 -0.8282
16653TIP3    H271451   6.053   4.614  11.248  1.1984  0.0833 -0.2098
16654TIP3   OH271452   6.427   3.165  17.071  0.5272 -0.1714  0.0138
16654TIP3    H171453   6.488   3.135  17.138  0.9545 -0.1288 -0.3469
16654TIP3    H271454   6.483   3.212  17.008  0.0985 -0.0030 -0.2402
16655TIP3   OH271455   2.580   5.491   1.182 -0.3644  0.4130  0.1360
16655TIP3    H171456   2.526   5.432   1.235 -1.1134  1.2899  0.3869
16655TIP3    H271457   2.594   5.444   1.100  1.5507 -1.3525  1.3676
16656TIP3   OH271458   4.190   2.002   0.212 -0.7276  0.4197  0.0096
16656TIP3    H171459   4.231   2.043   0.288 -1.3894 -0.7554  1.0328
16656TIP3    H271460   4.096   2.012   0.227 -0.9669 -2.4366  0.9185
16657TIP3   OH271461   2.863   2.335  11.731  0.2835  0.7769 -0.3334
16657TIP3    H171462   2.882   2.398  11.661  0.3715  1.1216  0.0018
16657TIP3    H271463   2.771   2.312  11.717  0.5913 -0.0048 -1.2373
16658TIP3   OH271464   5.077   0.700   5.158  0.4133  0.0502 -0.0596
16658TIP3    H171465   4.996   0.750   5.155  0.9458  1.2581  2.7745
16658TIP3    H271466   5.053   0.614   5.124 -1.6282  0.8395 -0.7749
16659TIP3   OH271467   0.918   4.042  15.215  0.7215  0.0809  0.0903
16659TIP3    H171468   0.969   4.042  15.296  2.6028  0.8949 -1.0165
16659TIP3    H271469   0.872   4.126  15.216 -0.5071 -0.5785  1.0106
16660TIP3   OH271470   6.579   4.268  15.704  0.0991  0.0917  0.8131
16660TIP3    H171471   6.507   4.210  15.726 -1.4456  1.3419 -0.6438
16660TIP3    H271472   6.639   4.262  15.778  0.6744 -4.2343  0.2481
16661TIP3   OH271473   3.330   0.955  11.577  0.1568  0.7162  0.4327
16661TIP3    H171474   3.341   0.937  11.484 -0.1456  1.1333  0.3141
16661TIP3    H271475   3.349   0.872  11.620 -1.5968 -0.0143 -0.1189
16662TIP3   OH271476   5.720   4.556  12.601 -0.2627 -0.1577  0.5289
16662TIP3    H171477   5.798   4.612  12.606 -0.6320  0.2785  2.0893
16662TIP3    H271478   5.647   4.614  12.624 -0.9253 -0.8087  0.1282
16663TIP3   OH271479   5.872   6.730   3.183 -0.0141  0.5598 -0.6254
16663TIP3    H171480   5.798   6.685   3.142  0.4901 -1.1273  0.2332
16663TIP3    H271481   5.947   6.672   3.168  0.8564  1.5539 -0.2524
16664TIP3   OH271482   4.341   1.842  16.090 -0.1025 -0.8461 -0.0560
16664TIP3    H171483   4.310   1.754  16.068 -2.2668  0.0180 -0.6880
16664TIP3    H271484   4.434   1.841  16.068 -0.2599 -2.7271 -0.8158
16665TIP3   OH271485   0.510   4.683  10.361 -0.2026 -0.6476  0.1373
16665TIP3    H171486   0.478   4.726  10.440 -0.0161 -0.5478  0.1575
16665TIP3    H271487   0.575   4.621  10.392 -1.9385 -2.4890  0.3595
16666TIP3   OH271488   3.848   3.419  14.276 -0.3265 -0.0322  0.5370
16666TIP3    H171489   3.887   3.339  14.241 -0.4027 -0.4289  1.3451
16666TIP3    H271490   3.922   3.479  14.288 -0.3480  0.2785 -0.6955
16667TIP3   OH271491   2.298   0.177   3.336  0.0643  0.3964 -0.7524
16667TIP3    H171492   2.354   0.238   3.287  0.4679  0.3617 -0.3410
16667TIP3    H271493   2.212   0.184   3.294  1.0417 -1.7876 -3.4252
16668TIP3   OH271494   2.242   0.913   5.483 -0.2574  0.3483  0.1937
16668TIP3    H171495   2.195   0.992   5.453 -3.3655 -0.7042  1.8308
16668TIP3    H271496   2.273   0.935   5.571 -0.4741 -0.0103  0.3612
16669TIP3   OH271497   4.488   6.456  13.595  0.0861 -0.0149 -0.2905
16669TIP3    H171498   4.557   6.418  13.542  0.3853 -1.7600  1.2366
16669TIP3    H271499   4.443   6.517  13.536  0.5279 -1.6502 -2.4656
16670TIP3   OH271500   6.434   5.584  15.479 -0.5019  0.3716  0.2058
16670TIP3    H171501   6.426   5.553  15.389 -1.4867 -1.2270  0.8030
16670TIP3    H271502   6.350   5.627  15.497 -0.8489 -0.4960  0.7525
16671TIP3   OH271503   6.214   2.126   1.695 -0.3082 -0.3883  0.0729
16671TIP3    H171504   6.255   2.051   1.738 -1.1139 -0.6058  0.4746
16671TIP3    H271505   6.233   2.112   1.602 -2.6775 -2.5485 -0.1906
16672TIP3   OH271506   1.825   6.494  12.531  0.0862  0.8015 -0.1344
16672TIP3    H171507   1.760   6.548  12.487 -0.2058  0.2283 -0.4293
16672TIP3    H271508   1.908   6.539  12.517 -0.2781  1.6567  0.4452
16673TIP3   OH271509   5.345   1.837   3.252 -0.7766 -0.5124 -0.1288
16673TIP3    H171510   5.412   1.903   3.234 -0.6082 -1.0423 -1.5961
16673TIP3    H271511   5.375   1.793   3.331  0.7852 -0.9286 -0.9005
16674TIP3   OH271512   5.811   2.621   3.408  0.8415 -0.0435 -0.0162
16674TIP3    H171513   5.723   2.649   3.381  0.7757 -1.0985 -0.9446
16674TIP3    H271514   5.841   2.564   3.337  2.0979 -0.0635  0.5115
16675TIP3   OH271515   1.690   2.139  13.292 -0.1296  0.4606  0.4074
16675TIP3    H171516   1.743   2.068  13.255 -1.3794 -1.3091  1.8240
16675TIP3    H271517   1.753   2.205  13.321  1.1121 -0.3593 -0.3602
16676TIP3   OH271518   2.026   4.331   2.511  0.2153 -0.2908 -0.0359
16676TIP3    H171519   2.008   4.412   2.558  1.3355 -0.3479  0.5316
16676TIP3    H271520   2.121   4.333   2.495 -0.0480 -0.4979 -1.8991
16677TIP3   OH271521   0.858   1.066   4.983  0.6057 -0.2759 -0.3774
16677TIP3    H171522   0.905   1.032   5.059 -0.3355  1.6834  1.1580
16677TIP3    H271523   0.916   1.133   4.947 -1.0536  2.6570  1.9404
16678TIP3   OH271524   2.052   0.442   2.211 -0.1798  0.4832  0.3458
16678TIP3    H171525   2.140   0.404   2.211  0.3492  1.5798  1.7344
16678TIP3    H271526   2.000   0.383   2.265 -0.3849 -0.3185 -0.7075
16679TIP3   OH271527   6.425   0.298  10.801  0.2233 -0.1350 -0.7806
16679TIP3    H171528   6.470   0.226  10.756 -0.4313 -1.1437  0.1206
16679TIP3    H271529   6.463   0.299  10.889 -0.5975 -0.1598 -0.4125
16680TIP3   OH271530   5.888   4.513  11.595 -0.4257 -0.1300 -0.1975
16680TIP3    H171531   5.983   4.516  11.610 -0.4120 -0.9145 -0.0933
16680TIP3    H271532   5.877   4.552  11.509  0.0470 -0.4624 -0.4174
16681TIP3   OH271533   3.871   5.059   3.572  0.5335 -0.2421 -0.3311
16681TIP3    H171534   3.904   5.126   3.513  4.1478 -1.3648  0.1454
16681TIP3    H271535   3.829   5.108   3.643 -1.5689  1.1982 -2.4405
16682TIP3   OH271536   5.463   4.877   3.638  0.3598  0.5174 -0.4765
16682TIP3    H171537   5.524   4.856   3.709  2.3631 -1.3394 -2.5845
16682TIP3    H271538   5.514   4.932   3.578 -0.3120 -0.2469 -1.8004
16683TIP3   OH271539   4.732   5.454  12.150 -0.7556 -0.3517 -0.1606
16683TIP3    H171540   4.676   5.459  12.228  0.1014  1.2510  0.3903
16683TIP3    H271541   4.795   5.524  12.162  1.6478 -2.3202 -0.5953
16684TIP3   OH271542   1.538   4.550  17.010 -0.7641 -0.5794  0.1553
16684TIP3    H171543   1.583   4.569  17.092 -0.2449 -2.7145  0.4441
16684TIP3    H271544   1.535   4.454  17.007 -0.9239 -0.5566 -2.2485
16685TIP3   OH271545   3.062   1.940  12.847  0.4064  0.5735  0.1655
16685TIP3    H171546   3.089   1.850  12.865  0.0701  0.6239  0.9447
16685TIP3    H271547   3.142   1.984  12.819  0.5407 -0.0007 -0.3809
16686TIP3   OH271548   0.380   4.504  11.129  0.3176  0.3721 -0.1396
16686TIP3    H171549   0.458   4.558  11.119 -1.0272  2.7946  1.3740
16686TIP3    H271550   0.313   4.549  11.078 -0.7568 -0.0769  0.8335
16687TIP3   OH271551   2.264   0.608  14.468  0.3740  0.9698 -0.1185
16687TIP3    H171552   2.256   0.513  14.454 -0.5827  0.6321  2.2770
16687TIP3    H271553   2.199   0.646  14.408 -2.2621 -0.2351  1.7745
16688TIP3   OH271554   2.872   4.126  15.531 -0.3963 -0.1781 -0.1012
16688TIP3    H171555   2.960   4.128  15.493  0.1024  0.2938  1.0055
16688TIP3    H271556   2.839   4.216  15.519 -1.0284 -0.5311 -1.1402
16689TIP3   OH271557   4.287   5.240   2.630  0.3085 -0.0248 -0.3263
16689TIP3    H171558   4.331   5.323   2.616 -0.9198  0.7851  0.4391
16689TIP3    H271559   4.331   5.201   2.705  1.1601 -0.2839 -0.9430
16690TIP3   OH271560   5.520   2.379   4.836 -0.6121  0.3672 -0.1464
16690TIP3    H171561   5.481   2.303   4.877  1.5852 -0.7747 -0.0240
16690TIP3    H271562   5.609   2.352   4.814  0.2820  2.9193 -0.0199
16691TIP3   OH271563   5.787   2.045  12.345 -0.6984 -0.0921 -0.0817
16691TIP3    H171564   5.882   2.046  12.334 -0.5420 -0.4852  1.0717
16691TIP3    H271565   5.769   1.960  12.384 -1.1151  1.2106  2.7766
16692TIP3   OH271566   3.787   3.080  11.620 -0.2334  0.8548 -0.0811
16692TIP3    H171567   3.745   3.117  11.698  0.8890  2.7696 -0.3163
16692TIP3    H271568   3.741   3.119  11.546 -1.8878 -1.6399 -0.4769
16693TIP3   OH271569   4.035   3.419   1.396  0.5879 -0.0706 -0.2052
16693TIP3    H171570   4.051   3.401   1.489 -0.1069 -1.6644 -0.3664
16693TIP3    H271571   4.123   3.422   1.357  0.8416 -0.5212  0.3112
16694TIP3   OH271572   5.072   0.177   4.384  0.3309  0.1888  0.6080
16694TIP3    H171573   5.092   0.085   4.367 -1.1583 -0.1716  0.7001
16694TIP3    H271574   5.019   0.204   4.309 -0.2939  0.6080  1.1984
16695TIP3   OH271575   3.003   3.310  14.264  0.5367 -0.1876  0.0112
16695TIP3    H171576   3.042   3.229  14.298 -0.2323 -0.8179 -0.5662
16695TIP3    H271577   2.918   3.283  14.231  0.8786  0.5619 -1.5869
16696TIP3   OH271578   6.843   0.764  12.253  0.0529 -0.1153 -0.1096
16696TIP3    H171579   6.788   0.794  12.181 -0.4827 -0.6407  0.0707
16696TIP3    H271580   6.879   0.680  12.223 -1.3078 -1.0524  0.7601
16697TIP3   OH271581   5.485   2.790   4.785  0.0625  0.1432  0.2158
16697TIP3    H171582   5.575   2.763   4.801 -0.1362 -0.2404  0.7250
16697TIP3    H271583   5.457   2.828   4.868 -0.2787  0.1569  0.0959
16698TIP3   OH271584   3.826   0.833   3.749  0.4146 -0.6054 -0.1093
16698TIP3    H171585   3.734   0.805   3.751  0.7579 -1.7757  1.4249
16698TIP3    H271586   3.870   0.765   3.698  0.6513 -0.8148  0.3725
16699TIP3   OH271587   0.375   0.889  12.099 -0.2667 -0.1463  0.1503
16699TIP3    H171588   0.446   0.849  12.149 -1.2635  0.0275  1.8004
16699TIP3    H271589   0.365   0.833  12.022  0.7965 -0.9020  0.5292
16700TIP3   OH271590   4.561   4.397  10.542 -0.1655  0.2202 -0.0442
16700TIP3    H171591   4.609   4.434  10.616  1.7088 -1.6009 -0.2565
16700TIP3    H271592   4.630   4.367  10.482 -1.6159  1.2281 -2.3541
16701TIP3   OH271593   6.642   2.712  13.824  0.4797  0.1657  0.0913
16701TIP3    H171594   6.591   2.779  13.778  1.4519  2.6782  2.4531
16701TIP3    H271595   6.713   2.759  13.865  1.2209 -2.3398  1.9208
16702TIP3   OH271596   2.430   5.908   1.531  0.3902  0.2627 -0.0046
16702TIP3    H171597   2.339   5.901   1.561  0.5223  1.3709  0.6834
16702TIP3    H271598   2.482   5.873   1.603  0.6839  2.6192  1.0118
16703TIP3   OH271599   0.290   3.941  12.529 -0.6263  0.2653 -0.0909
16703TIP3    H171600   0.323   4.011  12.586  1.1104 -1.1965  0.8257
16703TIP3    H271601   0.287   3.981  12.442 -1.9352  2.1249  0.7376
16704TIP3   OH271602   6.399   6.348   0.990 -0.6171  0.6735 -0.2966
16704TIP3    H171603   6.331   6.282   0.980  0.7207 -0.9205  0.4314
16704TIP3    H271604   6.359   6.417   1.042 -0.8458 -1.7620  3.1525
16705TIP3   OH271605   5.727   1.422   5.588  0.5736 -0.1624 -0.0678
16705TIP3    H171606   5.793   1.439   5.521  0.9382 -0.0423  0.3148
16705TIP3    H271607   5.721   1.327   5.593  2.0849 -0.2456  1.1809
16706TIP3   OH271608   5.120   2.554  14.354 -0.2269 -0.0323 -0.1781
16706TIP3    H171609   5.079   2.637  14.378  0.1534  0.1360 -0.0957
16706TIP3    H271610   5.074   2.488  14.406 -0.6220  0.1099 -0.3478
16707TIP3   OH271611   2.892   3.335   3.768  0.2075  0.3369  0.0933
16707TIP3    H171612   2.844   3.347   3.686  0.7391 -2.5680 -0.7603
16707TIP3    H271613   2.838   3.275   3.819  1.0900  0.1004  0.7736
16708TIP3   OH271614   0.766   4.788  16.173  0.2432 -0.3397 -0.0288
16708TIP3    H171615   0.837   4.725  16.184 -0.5318 -0.9522  1.9199
16708TIP3    H271616   0.797   4.868  16.215  0.3726 -0.1237 -0.5349
16709TIP3   OH271617   1.473   1.307   4.633 -0.1409  0.4120 -0.2351
16709TIP3    H171618   1.440   1.270   4.715 -1.4434  2.1855  0.1036
16709TIP3    H271619   1.396   1.314   4.577  0.6634 -0.3472 -1.4684
16710TIP3   OH271620   1.820   2.452  12.192 -0.4648  0.1146  0.4842
16710TIP3    H171621   1.780   2.387  12.133  1.4901  0.2645 -1.1044
16710TIP3    H271622   1.759   2.458  12.266 -1.6475 -2.1296 -0.2120
16711TIP3   OH271623   0.254   3.834   1.254  0.0117 -0.4085  0.0416
16711TIP3    H171624   0.255   3.774   1.328 -0.3271 -0.1801  0.2334
16711TIP3    H271625   0.203   3.909   1.284  1.0844  0.3320  0.0904
16712TIP3   OH271626   2.541   3.311  17.035  0.0869  0.3316  0.1179
16712TIP3    H171627   2.482   3.350  16.970 -1.6842  0.8423  1.9044
16712TIP3    H271628   2.619   3.367  17.033 -0.0984  0.5887 -1.2264
16713TIP3   OH271629   3.065   2.409  13.910 -0.5555  0.1475 -0.2035
16713TIP3    H171630   3.040   2.487  13.960  1.2487  1.1709 -0.8050
16713TIP3    H271631   3.148   2.381  13.949 -0.5518 -0.7441 -0.8071
16714TIP3   OH271632   5.346   3.745  14.224  0.7383 -0.3691  0.2645
16714TIP3    H171633   5.310   3.719  14.309  1.7383 -0.9931  0.5127
16714TIP3    H271634   5.277   3.799  14.185  0.7319  1.0194  2.0180
16715TIP3   OH271635   0.049   5.463  16.093  0.0015  0.5152 -0.4681
16715TIP3    H171636  -0.044   5.471  16.113 -0.0435  0.0502 -0.4769
16715TIP3    H271637   0.085   5.413  16.167  0.2225  0.5964 -0.5198
16716TIP3   OH271638   1.439   3.538  14.556  0.3807 -0.4374 -0.5257
16716TIP3    H171639   1.358   3.584  14.576 -0.1059 -1.8950  1.1545
16716TIP3    H271640   1.501   3.606  14.534 -0.5283  0.9453  0.9981
16717TIP3   OH271641   2.711   1.903  17.098  0.5341 -0.0457 -0.2518
16717TIP3    H171642   2.797   1.863  17.083  0.6211 -0.3465  0.9872
16717TIP3    H271643   2.699   1.899  17.193 -1.2401 -0.8378 -0.4823
16718TIP3   OH271644   4.394   2.203  14.204  0.1546  0.6205 -0.0423
16718TIP3    H171645   4.337   2.127  14.210 -2.7750  2.5468 -1.3644
16718TIP3    H271646   4.393   2.241  14.292  2.1801 -1.0785  0.8135
16719TIP3   OH271647   2.173   6.286  11.858  0.2634  0.0044 -0.0746
16719TIP3    H171648   2.243   6.235  11.898 -0.4346 -0.1909  0.9354
16719TIP3    H271649   2.204   6.377  11.863  0.5938 -0.1113  0.0441
16720TIP3   OH271650   3.702   6.857   6.012  0.3951  0.3719 -0.3987
16720TIP3    H171651   3.678   6.916   6.083  1.2025 -1.1755  1.2667
16720TIP3    H271652   3.633   6.791   6.011  1.2180 -0.5257  0.0981
16721TIP3   OH271653   6.457   1.371  14.066 -0.1222 -0.4266 -0.2318
16721TIP3    H171654   6.543   1.409  14.083 -0.9321  1.4602 -0.0861
16721TIP3    H271655   6.471   1.316  13.988  1.3091 -0.6095  0.1143
16722TIP3   OH271656   5.306   3.341   3.035 -0.1401  0.2419  0.3088
16722TIP3    H171657   5.250   3.266   3.015  0.4238  0.0013 -0.3939
16722TIP3    H271658   5.280   3.409   2.973  1.9022 -0.6515 -1.6538
16723TIP3   OH271659   4.919   4.048  12.220 -0.3641  0.1201  0.0127
16723TIP3    H171660   4.886   4.061  12.131 -2.2326  0.2350  0.6754
16723TIP3    H271661   4.934   4.137  12.254 -2.7213  0.2812  0.8414
16724TIP3   OH271662   3.415   2.654   4.023 -0.5024 -0.9043 -0.2681
16724TIP3    H171663   3.433   2.728   4.081 -2.0447  0.5084 -1.5168
16724TIP3    H271664   3.448   2.578   4.071  0.4397  0.4743  1.3886
16725TIP3   OH271665   1.736   6.753   4.092 -0.1843 -0.3446  0.6948
16725TIP3    H171666   1.727   6.693   4.018  0.6800 -0.7637  0.9208
16725TIP3    H271667   1.650   6.752   4.134 -0.5361 -0.4775 -0.0215
16726TIP3   OH271668   2.099   3.888   1.442 -0.2381  0.4369  0.1287
16726TIP3    H171669   2.053   3.943   1.379 -1.1965  0.9006  1.2001
16726TIP3    H271670   2.036   3.818   1.463  0.9361 -1.0929 -1.1740
16727TIP3   OH271671   5.264   6.554  15.718 -0.1332  0.1721  0.1033
16727TIP3    H171672   5.209   6.632  15.704 -1.2272 -0.2968  1.4980
16727TIP3    H271673   5.349   6.589  15.743 -0.6707  0.9313  0.9290
16728TIP3   OH271674   2.290   2.811   2.103  0.0377 -0.0085 -0.8990
16728TIP3    H171675   2.351   2.792   2.175 -1.0206  0.6842  0.2123
16728TIP3    H271676   2.221   2.745   2.112 -1.3587  1.5449  0.2598
16729TIP3   OH271677   3.257   4.155  11.473  0.2127  0.1742 -0.0727
16729TIP3    H171678   3.232   4.141  11.565  3.1862 -0.8009  0.7007
16729TIP3    H271679   3.216   4.082  11.426 -1.4304  0.7376  0.4151
16730TIP3   OH271680   5.900   2.301  14.220  0.1029  0.2305 -0.3619
16730TIP3    H171681   5.905   2.353  14.140 -0.9833  2.5138  0.9656
16730TIP3    H271682   5.919   2.363  14.291 -0.1241 -1.4407  1.2469
16731TIP3   OH271683   5.173   1.984  17.063  0.1106  0.3467  0.0742
16731TIP3    H171684   5.204   1.991  16.973  0.3788  1.6977  0.2474
16731TIP3    H271685   5.231   1.920  17.104 -0.6052 -1.0027 -0.9322
16732TIP3   OH271686   5.929   3.008  13.016 -0.1531  0.5460 -0.3131
16732TIP3    H171687   5.950   2.976  13.104 -2.6885  0.8894  0.5016
16732TIP3    H271688   5.834   3.021  13.017  0.0356  2.8399 -2.3559
16733TIP3   OH271689   4.568   0.492  10.868  0.2393 -0.5158 -0.1975
16733TIP3    H171690   4.576   0.526  10.957 -0.3463  0.1485 -0.3923
16733TIP3    H271691   4.624   0.548  10.815  0.7454 -1.0344 -0.2268
16734TIP3   OH271692   3.077   6.299   1.287 -0.1706  0.6459  0.4160
16734TIP3    H171693   3.110   6.309   1.198  0.8433 -0.1108  0.6875
16734TIP3    H271694   2.999   6.355   1.290 -0.4841  0.3448 -1.0720
16735TIP3   OH271695   0.637   3.186  14.998 -0.1013 -0.6400  0.4410
16735TIP3    H171696   0.566   3.147  15.049 -0.2384 -0.9713  0.0037
16735TIP3    H271697   0.695   3.112  14.977  0.8321 -0.2403  1.5197
16736TIP3   OH271698   2.533   2.333   5.343  0.2131  0.0495 -0.1883
16736TIP3    H171699   2.568   2.342   5.432  0.2003  3.4528 -0.3838
16736TIP3    H271700   2.577   2.402   5.293 -1.4609 -0.2776 -2.2575
16737TIP3   OH271701   3.993   5.048   3.160  0.1133 -0.2178  0.1687
16737TIP3    H171702   3.940   5.128   3.158  1.3270  0.6161  0.1041
16737TIP3    H271703   3.946   4.989   3.218 -0.3278  0.9037  0.9858
16738TIP3   OH271704   0.862   1.611  14.074 -0.4182 -0.5618  0.5754
16738TIP3    H171705   0.847   1.517  14.075 -0.5230 -0.5827 -0.9323
16738TIP3    H271706   0.775   1.650  14.085 -0.6534 -0.6731 -0.6748
16739TIP3   OH271707   6.721   4.393  16.681 -0.6939 -0.4952 -0.1022
16739TIP3    H171708   6.812   4.416  16.661 -1.1367  1.2892 -0.2308
16739TIP3    H271709   6.728   4.317  16.740  0.9058  0.2538  0.7415
16740TIP3   OH271710   2.838   2.623  12.063  0.0415  0.6637 -0.4862
16740TIP3    H171711   2.746   2.613  12.038 -0.1417  1.9126 -0.3657
16740TIP3    H271712   2.863   2.537  12.098 -1.7336  0.9115  1.5949
16741TIP3   OH271713   3.439   2.840   4.225 -0.4048 -0.5460  0.0658
16741TIP3    H171714   3.371   2.825   4.290 -1.2939 -2.1047 -1.1589
16741TIP3    H271715   3.430   2.932   4.202 -0.7719 -0.2439  1.3538
16742TIP3   OH271716   2.935   0.050   3.196 -0.1947  0.6021  0.1514
16742TIP3    H171717   2.880  -0.024   3.170  0.8616  0.8135 -3.1093
16742TIP3    H271718   2.986   0.017   3.270 -2.1109 -0.7619  0.9486
16743TIP3   OH271719   6.303   4.425   5.140 -0.3800  0.2201 -0.0846
16743TIP3    H171720   6.392   4.409   5.108 -0.9121  0.4044 -1.7432
16743TIP3    H271721   6.302   4.389   5.228  1.5182  0.7855  0.1989
16744TIP3   OH271722   4.358   4.073   4.494  0.1088  0.0240 -0.0046
16744TIP3    H171723   4.368   3.978   4.506 -1.0995 -0.0026  0.9457
16744TIP3    H271724   4.447   4.107   4.503  0.3600 -0.8722  1.2002
16745TIP3   OH271725   5.188   6.636   1.967  0.1386 -0.2705 -0.1457
16745TIP3    H171726   5.214   6.549   1.937 -0.1470  0.1027 -1.5463
16745TIP3    H271727   5.270   6.678   1.991  0.2941 -0.8597  0.3861
16746TIP3   OH271728   4.140   6.201   4.322  0.5951 -0.2097  0.0469
16746TIP3    H171729   4.062   6.158   4.289  0.0435 -0.5812  1.7424
16746TIP3    H271730   4.159   6.158   4.405  0.8525  1.8287  1.1313
16747TIP3   OH271731   4.869   3.608   2.813  0.2234  0.7087  0.3915
16747TIP3    H171732   4.894   3.700   2.818  2.6971  0.1360 -0.0924
16747TIP3    H271733   4.916   3.574   2.737 -0.7039 -0.9330  0.4998
16748TIP3   OH271734   4.631   1.605  15.025 -0.1414  0.5057  0.0582
16748TIP3    H171735   4.559   1.666  15.013 -1.1554 -0.6602  0.0811
16748TIP3    H271736   4.644   1.603  15.120 -1.0586 -0.3660  0.1785
16749TIP3   OH271737   1.744   6.482   2.031  0.7442  0.3569 -0.3734
16749TIP3    H171738   1.787   6.410   1.985  2.4469  0.6507  0.6578
16749TIP3    H271739   1.650   6.466   2.020  1.0785 -1.9681 -0.2519
16750TIP3   OH271740   3.381   0.446   1.147 -0.3474  0.1734  0.1425
16750TIP3    H171741   3.476   0.448   1.142 -0.2990 -1.0560  0.3969
16750TIP3    H271742   3.353   0.527   1.104  0.7167 -0.8835 -2.8067
16751TIP3   OH271743   1.415   2.966   2.186  0.1662  0.3684  0.0116
16751TIP3    H171744   1.504   2.953   2.218  0.2217  0.2897 -0.1705
16751TIP3    H271745   1.426   3.011   2.102  0.2076 -2.1322 -1.4232
16752TIP3   OH271746   2.619   2.773   0.061  0.2529 -0.5879  0.3958
16752TIP3    H171747   2.664   2.743   0.140  2.6591 -0.2510 -0.7422
16752TIP3    H271748   2.640   2.866   0.056  1.7844 -0.9868 -1.5903
16753TIP3   OH271749   4.605   3.225  15.963  0.1168 -0.0593  0.1608
16753TIP3    H171750   4.596   3.313  15.927  0.0090 -0.9680 -2.2774
16753TIP3    H271751   4.619   3.238  16.057 -0.0923  2.5162 -0.0935
16754TIP3   OH271752   6.529   4.719  11.456 -0.5083 -0.1177 -0.4175
16754TIP3    H171753   6.607   4.731  11.403 -0.5424  1.1905 -0.2062
16754TIP3    H271754   6.545   4.638  11.505 -0.0679 -0.8187 -1.6819
16755TIP3   OH271755   3.230   2.185   2.754 -0.0838 -0.4525  0.5866
16755TIP3    H171756   3.168   2.230   2.811  1.3004  2.4313  0.0211
16755TIP3    H271757   3.297   2.151   2.814 -0.5099 -0.6460  0.9541
16756TIP3   OH271758   4.064   6.117   0.890 -0.8599 -0.1516 -0.0022
16756TIP3    H171759   4.075   6.032   0.848  1.1218 -0.5049  1.1171
16756TIP3    H271760   4.037   6.096   0.980  0.2175  0.3403  0.4544
16757TIP3   OH271761   2.243   4.200   4.714 -0.0874  0.2356 -0.4407
16757TIP3    H171762   2.194   4.259   4.655  1.4338 -0.2355 -2.2573
16757TIP3    H271763   2.260   4.122   4.662  3.6907  0.8647 -0.4217
16758TIP3   OH271764   6.056   4.631   0.997  0.1170 -0.4083 -0.2303
16758TIP3    H171765   6.103   4.547   0.998  0.8596 -0.0157 -1.2216
16758TIP3    H271766   5.964   4.606   0.985 -0.2774 -1.2948  3.4262
16759TIP3   OH271767   0.886   3.055  14.169 -0.5045 -0.0130 -0.9319
16759TIP3    H171768   0.949   3.122  14.141 -0.1631  0.1764  0.2260
16759TIP3    H271769   0.938   2.975  14.177 -0.1046  0.4086  1.2053
16760TIP3   OH271770   3.887   2.908   1.231  0.7365 -0.8727 -0.9092
16760TIP3    H171771   3.958   2.855   1.196  0.1801 -1.3408 -1.3404
16760TIP3    H271772   3.848   2.950   1.154  2.2790  1.6001 -0.4474
16761TIP3   OH271773   4.865   4.442   4.344  0.3991  0.3357 -0.8552
16761TIP3    H171774   4.832   4.366   4.392 -0.9857  0.7101 -1.1703
16761TIP3    H271775   4.946   4.466   4.389 -0.1161 -0.1956  0.3930
16762TIP3   OH271776   0.152   3.861   6.382 -0.1423  0.2581 -0.2902
16762TIP3    H171777   0.172   3.948   6.418  1.6547 -0.5981  0.9345
16762TIP3    H271778   0.105   3.817   6.453 -2.6796  0.7670 -1.5634
16763TIP3   OH271779   4.948   2.100  14.506 -0.5975 -0.6102 -0.5847
16763TIP3    H171780   5.028   2.058  14.537 -1.4178 -0.6057  1.7332
16763TIP3    H271781   4.883   2.030  14.507 -1.2712  0.0059  0.4155
16764TIP3   OH271782   1.881   1.665  16.152  0.1251 -0.1583  0.2472
16764TIP3    H171783   1.793   1.700  16.164  0.8128  1.5249  0.6999
16764TIP3    H271784   1.871   1.571  16.162 -1.8165 -0.1253 -0.9442
16765TIP3   OH271785   2.848   5.987   2.317 -0.4491  0.0289 -0.7904
16765TIP3    H171786   2.858   6.029   2.232 -1.4364 -0.6768 -1.2721
16765TIP3    H271787   2.852   6.059   2.380  0.0479  0.5835 -1.4425
16766TIP3   OH271788   4.618   0.734  17.028  0.6217 -0.2661  0.5497
16766TIP3    H171789   4.587   0.823  17.012 -0.1287 -0.3384  1.5049
16766TIP3    H271790   4.646   0.735  17.120  0.2858 -1.1084  0.6669
16767TIP3   OH271791   2.806   0.506   5.486  0.0896 -0.0288 -0.1293
16767TIP3    H171792   2.758   0.587   5.473 -0.1359 -0.2373 -0.6128
16767TIP3    H271793   2.832   0.508   5.578 -0.5418  0.2447  0.0483
16768TIP3   OH271794   6.821   1.588   5.210  0.1878 -0.5054  0.2053
16768TIP3    H171795   6.756   1.652   5.179  0.0685 -0.5183  0.4304
16768TIP3    H271796   6.872   1.636   5.276 -0.7817 -1.0499  1.3862
16769TIP3   OH271797   4.975   4.538   0.577 -0.2336  0.3897 -0.4095
16769TIP3    H171798   5.068   4.543   0.553 -0.6061 -0.9837 -2.3854
16769TIP3    H271799   4.971   4.470   0.644  0.4372  2.1664  1.5510
16770TIP3   OH271800   0.776   0.258   5.296 -0.4942 -0.2816  0.0382
16770TIP3    H171801   0.870   0.274   5.303 -0.1814 -2.1767  0.6903
16770TIP3    H271802   0.749   0.234   5.385 -1.4080 -0.6894 -0.3346
16771TIP3   OH271803   2.921   0.734  16.747  0.0723  0.2517 -0.6043
16771TIP3    H171804   2.926   0.814  16.800 -2.2929  1.1610 -1.6432
16771TIP3    H271805   2.841   0.690  16.777  0.4217 -0.8640 -1.2496
16772TIP3   OH271806   2.456   2.560  11.454  0.2676 -0.2761  0.1745
16772TIP3    H171807   2.412   2.540  11.372 -0.1511 -0.5962  0.4697
16772TIP3    H271808   2.508   2.638  11.436  2.0469 -1.6634 -1.0650
16773TIP3   OH271809   6.276   4.492  14.004  0.0493 -0.0634  0.2449
16773TIP3    H171810   6.248   4.573  13.962  0.8346 -0.1300 -0.4463
16773TIP3    H271811   6.197   4.455  14.042 -0.4758  0.5779 -0.2145
16774TIP3   OH271812   5.835   6.035   5.557  0.3454 -0.2406 -0.2531
16774TIP3    H171813   5.850   6.010   5.466 -0.2130  0.5142 -0.5619
16774TIP3    H271814   5.749   5.999   5.578  1.5553 -2.6995  0.8357
16775TIP3   OH271815   1.554   4.334   4.311  0.2300 -0.6866  0.2257
16775TIP3    H171816   1.569   4.420   4.350 -0.7991 -0.5856  0.4275
16775TIP3    H271817   1.545   4.352   4.217  0.1049 -0.5849  0.2569
16776TIP3   OH271818   6.093   3.217   0.208 -0.1603 -0.6598 -0.0304
16776TIP3    H171819   6.077   3.199   0.116  0.8051 -1.0201 -0.1400
16776TIP3    H271820   6.184   3.192   0.222  0.9324  2.8049  0.1451
16777TIP3   OH271821   0.202   4.431  12.670 -0.3559 -0.3054 -0.0233
16777TIP3    H171822   0.240   4.479  12.743  2.0635  1.1572 -2.0715
16777TIP3    H271823   0.277   4.402  12.619 -1.8955  0.7800 -3.1595
16778TIP3   OH271824   4.098   0.331   6.332  0.1350 -0.1256 -0.2112
16778TIP3    H171825   4.059   0.399   6.388  0.7090  1.0142 -1.1694
16778TIP3    H271826   4.084   0.250   6.381  1.4302  0.9306  2.0598
16779TIP3   OH271827   3.863   1.000  13.173 -0.2856 -0.2234  0.4047
16779TIP3    H171828   3.808   0.971  13.246  0.7862 -0.9412  0.9432
16779TIP3    H271829   3.951   0.972  13.196  0.2285  0.3902 -0.7258
16780TIP3   OH271830   4.509   5.228  10.926 -0.2090 -0.3798  0.1340
16780TIP3    H171831   4.558   5.166  10.872  0.8393 -0.1914  0.8383
16780TIP3    H271832   4.530   5.203  11.017  1.3653  1.8025  0.4623
16781TIP3   OH271833   0.142   5.824   1.887 -0.4410 -0.4661  0.3480
16781TIP3    H171834   0.096   5.870   1.957 -1.1926  0.0608 -0.4653
16781TIP3    H271835   0.087   5.748   1.867 -0.6107 -0.2200 -0.1487
16782TIP3   OH271836   4.948   0.724   3.332 -0.0349 -0.5436 -0.2594
16782TIP3    H171837   4.924   0.751   3.243  0.2604 -0.8752 -0.4438
16782TIP3    H271838   5.042   0.743   3.338 -0.5381  1.9439  0.8875
16783TIP3   OH271839   0.616   5.288  11.323  0.0039 -0.0225  0.4089
16783TIP3    H171840   0.570   5.205  11.333  0.6113 -0.2481  1.5095
16783TIP3    H271841   0.548   5.354  11.333  0.0064 -0.3135  3.2766
16784TIP3   OH271842   3.829   5.910  15.144 -0.2678  0.5135 -0.3779
16784TIP3    H171843   3.752   5.896  15.199 -0.5807 -3.3397 -1.4842
16784TIP3    H271844   3.879   5.979  15.188 -1.9994 -0.1837  2.9641
16785TIP3   OH271845   4.857   2.583  16.485 -0.0460  0.5449  0.1263
16785TIP3    H171846   4.936   2.584  16.539  0.1860  0.1881 -0.2053
16785TIP3    H271847   4.889   2.577  16.395 -0.4791 -0.7477  0.0472
16786TIP3   OH271848   0.920   5.363  14.019  0.4198  0.3683  0.2238
16786TIP3    H171849   0.840   5.319  13.991  1.1774 -0.7954 -0.1812
16786TIP3    H271850   0.906   5.382  14.112 -0.5196  0.6346  0.0348
16787TIP3   OH271851   4.591   4.184   4.316  0.1110 -0.0431  0.2523
16787TIP3    H171852   4.551   4.104   4.282 -1.3070  0.4340  0.7115
16787TIP3    H271853   4.673   4.155   4.356 -1.6766 -1.8176  3.0241
16788TIP3   OH271854   4.686   0.203  16.852 -0.7034  0.3088 -0.3576
16788TIP3    H171855   4.766   0.172  16.893 -0.6370  2.0676  0.9152
16788TIP3    H271856   4.653   0.272  16.910 -1.7987  1.3606 -2.1241
16789TIP3   OH271857   3.681   1.551  16.997  0.3961  0.0992  0.7019
16789TIP3    H171858   3.598   1.563  17.043  0.9237  0.4435  1.5823
16789TIP3    H271859   3.667   1.592  16.911 -0.3105  0.2268  0.8717
16790TIP3   OH271860   3.279   4.374   2.431 -0.0781  0.5700  0.1612
16790TIP3    H171861   3.361   4.415   2.458  0.1246 -0.5623  1.3758
16790TIP3    H271862   3.216   4.447   2.423  0.0200  1.0813  3.1292
16791TIP3   OH271863   4.241   1.100  13.598 -0.7180  0.0257 -0.5940
16791TIP3    H171864   4.221   1.121  13.689 -1.7040  1.0810 -1.0388
16791TIP3    H271865   4.241   1.004  13.595  1.6415 -0.0945  0.9830
16792TIP3   OH271866   0.449   2.996   5.554  0.0960 -0.1749 -0.1578
16792TIP3    H171867   0.528   2.945   5.537  1.1156  0.9764  0.8946
16792TIP3    H271868   0.480   3.073   5.603 -1.4294  1.2249 -1.2578
16793TIP3   OH271869   5.970   6.630   2.824 -0.0389  0.0845 -0.1171
16793TIP3    H171870   5.921   6.643   2.744  0.8461  0.9863 -0.5317
16793TIP3    H271871   6.048   6.581   2.797 -0.3182 -0.6871  0.4101
16794TIP3   OH271872   1.236   0.281   4.917 -0.0266  0.2633  0.4495
16794TIP3    H171873   1.235   0.315   5.007  1.0743  0.1597  0.5092
16794TIP3    H271874   1.156   0.316   4.878 -1.6208 -1.3605  2.0695
16795TIP3   OH271875   1.112   0.805   3.249  0.2676  0.0985 -0.6467
16795TIP3    H171876   1.059   0.876   3.213 -0.5614  0.1027  0.5020
16795TIP3    H271877   1.114   0.822   3.343  2.4431  0.1526 -0.6643
16796TIP3   OH271878   3.400   6.222  11.905  0.0240  0.0214 -0.1851
16796TIP3    H171879   3.412   6.225  11.810 -1.5917 -0.6910 -0.4545
16796TIP3    H271880   3.432   6.135  11.931 -2.5013 -1.1328 -0.6282
16797TIP3   OH271881   5.713   0.951  13.496 -0.2568  0.0998  0.3969
16797TIP3    H171882   5.636   1.008  13.488  0.2583  0.8959  0.9814
16797TIP3    H271883   5.780   0.994  13.444 -0.3365 -0.8766 -0.5614
16798TIP3   OH271884   5.040   4.772  13.238 -0.5833  0.1068 -0.5211
16798TIP3    H171885   5.117   4.716  13.252 -1.4508 -0.8469  0.6998
16798TIP3    H271886   5.068   4.859  13.265 -0.3760 -0.5443  1.5134
16799TIP3   OH271887   1.352   5.773   2.270  0.5714 -0.2522  0.0142
16799TIP3    H171888   1.385   5.851   2.314  0.3346 -0.7356  1.0648
16799TIP3    H271889   1.295   5.807   2.200  0.9459  0.5165  0.0718
16800TIP3   OH271890   2.073   6.819  16.611 -0.0362 -0.1960  0.7470
16800TIP3    H171891   2.168   6.830  16.618  0.2252 -1.4626 -0.4618
16800TIP3    H271892   2.056   6.810  16.517 -0.9952 -2.8278  1.1024
16801TIP3   OH271893   5.517   5.842   1.791 -0.0092 -0.1516 -0.1251
16801TIP3    H171894   5.518   5.935   1.812 -1.8759  0.4595 -2.3008
16801TIP3    H271895   5.451   5.805   1.851 -0.2887  0.2078 -0.2077
16802TIP3   OH271896   0.680   2.756   5.100 -0.2120 -0.3894 -0.8191
16802TIP3    H171897   0.705   2.848   5.094  1.6304 -0.6989  1.1030
16802TIP3    H271898   0.602   2.749   5.045 -0.6935  2.4120 -0.6280
16803TIP3   OH271899   6.305   1.648   3.404 -0.6033 -0.0936  0.1408
16803TIP3    H171900   6.387   1.697   3.406 -0.5219 -0.2354  0.3567
16803TIP3    H271901   6.306   1.603   3.319 -0.3932 -0.2066  0.2045
16804TIP3   OH271902   4.111   4.670   5.541 -0.0896  0.1166  0.5818
16804TIP3    H171903   4.181   4.709   5.594  0.8101 -0.1452 -0.3605
16804TIP3    H271904   4.053   4.743   5.520  1.0070  0.7672 -0.2916
16805TIP3   OH271905   5.983   6.279   1.598 -0.0148  0.9010 -0.1084
16805TIP3    H171906   5.896   6.275   1.559  0.0215  0.7555 -0.1734
16805TIP3    H271907   5.981   6.216   1.670  0.2859  0.3208 -0.6055
16806TIP3   OH271908   6.488   4.672  15.479 -0.9187 -0.4170  0.6217
16806TIP3    H171909   6.423   4.645  15.544  0.6174  0.9207  2.8245
16806TIP3    H271910   6.569   4.682  15.528  0.4044  0.4463 -1.5713
16807TIP3   OH271911   1.966   3.128  13.644 -0.6545  0.4937  0.4228
16807TIP3    H171912   1.894   3.164  13.593 -1.6918  1.1704  2.2735
16807TIP3    H271913   2.044   3.171  13.610 -1.3396  1.0781 -0.4395
16808TIP3   OH271914   3.141   1.145  11.466 -0.2291  0.3186  0.4091
16808TIP3    H171915   3.141   1.059  11.507 -1.6162 -0.9324 -1.9805
16808TIP3    H271916   3.064   1.189  11.504 -1.5214 -0.8333 -0.7336
16809TIP3   OH271917   3.247   3.889   0.781  0.5572 -0.1799 -0.1855
16809TIP3    H171918   3.295   3.921   0.857  0.2006  0.1522 -0.1021
16809TIP3    H271919   3.165   3.939   0.780  0.4502 -0.3538 -0.6429
16810TIP3   OH271920   2.320   1.243   5.165  0.0838 -0.3449 -0.4496
16810TIP3    H171921   2.319   1.176   5.097 -0.1764 -0.9941  0.1805
16810TIP3    H271922   2.352   1.198   5.243 -1.5459 -0.1325  0.3784
16811TIP3   OH271923   2.947   5.066   0.250 -0.5981 -0.6270  0.0637
16811TIP3    H171924   2.867   5.086   0.202 -0.1509 -0.7862 -0.7786
16811TIP3    H271925   2.976   4.982   0.215  1.5061  0.7630 -1.8458
16812TIP3   OH271926   4.050   5.147  11.602 -0.4144  0.2760  0.1169
16812TIP3    H171927   4.002   5.230  11.597  1.4789  1.5718  1.7332
16812TIP3    H271928   4.115   5.161  11.671  0.6730 -2.2202 -0.2796
16813TIP3   OH271929   6.000   5.274  12.072 -0.1085  0.1519 -0.2231
16813TIP3    H171930   5.945   5.266  11.994  1.6446 -0.5530 -1.4461
16813TIP3    H271931   6.082   5.311  12.040  0.9987 -1.0416  1.0976
16814TIP3   OH271932   0.573   5.531   1.603  0.4234  1.2005  0.4257
16814TIP3    H171933   0.644   5.507   1.662  0.5160  1.1603  0.2982
16814TIP3    H271934   0.589   5.481   1.523  0.1003  0.9842  0.4932
16815TIP3   OH271935   0.102   1.567  14.866 -0.4342 -0.7693 -0.0628
16815TIP3    H171936   0.069   1.642  14.817  0.2770 -0.8054 -0.6221
16815TIP3    H271937   0.194   1.588  14.883 -0.5273 -1.0071  0.7860
16816TIP3   OH271938   0.000   4.531  11.583 -0.3283  0.8147 -0.5046
16816TIP3    H171939  -0.016   4.585  11.505 -3.0482  0.7984 -0.0596
16816TIP3    H271940  -0.087   4.504  11.611  0.7188 -0.7564  1.4711
16817TIP3   OH271941   2.721   1.641  11.703 -0.1181  0.4915  0.0475
16817TIP3    H171942   2.710   1.602  11.790  3.0990  1.1054  0.8525
16817TIP3    H271943   2.632   1.662  11.675 -1.3225 -0.3385  2.9066
16818TIP3   OH271944   4.367   3.837  13.551 -0.0287  0.1364 -0.4476
16818TIP3    H171945   4.422   3.886  13.613  1.5624  0.7926 -2.2424
16818TIP3    H271946   4.403   3.861  13.465 -2.4875 -0.2903 -1.6605
16819TIP3   OH271947   2.000   6.695   4.839  0.0253 -0.1432  0.7322
16819TIP3    H171948   1.958   6.712   4.755 -0.2738 -0.8670  0.7336
16819TIP3    H271949   2.086   6.736   4.831 -0.8251  1.7906  0.9045
16820TIP3   OH271950   6.631   2.605   1.264 -0.1663 -0.4689  0.3113
16820TIP3    H171951   6.599   2.515   1.257 -1.4289  0.0210 -0.7209
16820TIP3    H271952   6.685   2.605   1.343 -0.5126 -2.0182  0.5890
16821TIP3   OH271953   6.214   0.545   5.243  0.1017 -0.2791  0.1775
16821TIP3    H171954   6.309   0.530   5.243  0.1207 -0.2269 -0.7774
16821TIP3    H271955   6.179   0.476   5.300  0.7026 -0.3979  0.4114
16822TIP3   OH271956   3.998   6.301   0.676  0.8949  0.3679 -0.3322
16822TIP3    H171957   3.992   6.230   0.740  0.0703  0.2005 -0.5809
16822TIP3    H271958   4.091   6.323   0.672  0.9364  0.5334  1.0853
16823TIP3   OH271959   4.787   3.001  16.789 -0.0490 -0.1605  0.2610
16823TIP3    H171960   4.727   2.965  16.854  0.2086  0.2282  0.7120
16823TIP3    H271961   4.844   2.927  16.766 -0.0753 -0.2720  0.5516
16824TIP3   OH271962   3.359   1.533   3.876 -0.4551 -0.4529  0.5101
16824TIP3    H171963   3.264   1.531   3.885 -0.5108 -1.0561 -0.1006
16824TIP3    H271964   3.374   1.566   3.787  0.0095  3.0374  1.7209
16825TIP3   OH271965   0.412   4.469   2.009  0.2801  0.1629  0.1983
16825TIP3    H171966   0.356   4.546   2.003 -2.9501 -2.0009 -0.0528
16825TIP3    H271967   0.400   4.437   2.099  1.8387  0.0738  0.4092
16826TIP3   OH271968   2.683   5.595   3.211 -0.8370 -0.6566 -0.4898
16826TIP3    H171969   2.669   5.686   3.186 -1.5538 -0.4047  0.7444
16826TIP3    H271970   2.774   5.577   3.185  0.7259  1.6589  2.7046
16827TIP3   OH271971   0.573   2.531   4.803 -0.0057  0.6014  0.3229
16827TIP3    H171972   0.550   2.587   4.877  0.1904 -1.0182  1.6771
16827TIP3    H271973   0.648   2.481   4.833  0.0103 -0.1857 -0.9384
16828TIP3   OH271974   5.054   6.364  16.468 -0.3025 -0.7082 -0.2649
16828TIP3    H171975   5.051   6.339  16.561  1.5909  0.1253  0.0670
16828TIP3    H271976   5.003   6.445  16.464  2.5569  1.3005  0.8534
16829TIP3   OH271977   6.171   1.452  15.045 -0.4873  0.3199 -0.3388
16829TIP3    H171978   6.079   1.433  15.064 -0.3109  0.7982  1.0681
16829TIP3    H271979   6.220   1.405  15.112  0.2135  1.3323 -0.1150
16830TIP3   OH271980   1.887   3.715   4.405 -0.4927 -0.3712  0.1942
16830TIP3    H171981   1.896   3.788   4.344  0.9090 -1.3594 -0.8428
16830TIP3    H271982   1.915   3.750   4.490 -0.9387  0.5934 -0.0553
16831TIP3   OH271983   6.065   0.968   4.385  0.8152 -0.0951  0.2699
16831TIP3    H171984   6.035   0.920   4.308 -0.3705  0.5370  0.3190
16831TIP3    H271985   6.141   0.918   4.416  1.7124 -0.0277 -1.6548
16832TIP3   OH271986   1.378   4.932   1.970  0.2042 -0.2938  0.5784
16832TIP3    H171987   1.292   4.957   2.004  0.4887 -1.5946  2.4223
16832TIP3    H271988   1.439   4.957   2.040  1.3993  0.8448 -0.8013
16833TIP3   OH271989   5.635   3.638  15.127 -0.0093 -0.5455  0.2357
16833TIP3    H171990   5.695   3.678  15.191  1.9770 -0.5135 -1.5247
16833TIP3    H271991   5.686   3.566  15.089 -2.0265 -2.1471  0.3934
16834TIP3   OH271992   2.682   6.129  12.894  0.1434 -0.1680  0.5003
16834TIP3    H171993   2.732   6.081  12.960 -0.7681 -1.5142  0.2457
16834TIP3    H271994   2.601   6.154  12.938 -0.4907 -1.1108 -0.0804
16835TIP3   OH271995   5.256   4.172  11.307  0.1515  0.5884  0.3116
16835TIP3    H171996   5.172   4.177  11.353  0.2829  0.4137  0.5717
16835TIP3    H271997   5.320   4.206  11.370  0.2939  0.5942  0.1628
16836TIP3   OH271998   6.848   5.796  12.857  0.8049 -0.3748  0.3568
16836TIP3    H171999   6.754   5.790  12.840  1.1598 -0.3654 -2.0010
16836TIP3    H272000   6.886   5.732  12.796  2.3886  0.3377  0.5718
16837TIP3   OH272001   3.188   0.943   0.741 -0.6036 -0.7728 -0.2108
16837TIP3    H172002   3.281   0.956   0.723 -0.9595  1.6025 -0.7671
16837TIP3    H272003   3.145   0.961   0.658 -1.5451 -2.8751 -0.2281
16838TIP3   OH272004   5.249   0.652  11.823 -0.9046 -0.8597  0.9221
16838TIP3    H172005   5.189   0.722  11.798  1.4873  0.9344 -0.1362
16838TIP3    H272006   5.210   0.572  11.787 -2.6651  0.1985  0.3924
16839TIP3   OH272007   5.866   4.082   3.190 -0.1726  0.2692  0.3715
16839TIP3    H172008   5.801   4.143   3.223 -0.3223  0.6125 -0.5126
16839TIP3    H272009   5.817   4.024   3.132  0.2233  0.2531  0.0441
16840TIP3   OH272010   3.035   2.115  14.039 -0.3423 -0.4841  0.5154
16840TIP3    H172011   3.076   2.052  13.980 -1.3778 -0.5888 -0.1205
16840TIP3    H272012   3.108   2.152  14.089  1.2839  2.5277 -3.4874
16841TIP3   OH272013   6.288   0.788  10.258 -0.3415  0.0514  0.4507
16841TIP3    H172014   6.374   0.822  10.233 -0.9674  1.3940  0.0377
16841TIP3    H272015   6.272   0.827  10.344 -0.4454 -0.3746  0.6248
16842TIP3   OH272016   1.959   0.011   1.118  0.8599 -0.6461  0.5751
16842TIP3    H172017   1.872  -0.013   1.149  0.3723 -0.6338 -0.7270
16842TIP3    H272018   1.960  -0.016   1.027  1.9202  0.1400  0.3361
16843TIP3   OH272019   1.614   5.535  13.886  0.2881 -0.1477 -0.4299
16843TIP3    H172020   1.560   5.456  13.894  1.2412 -0.7642  0.2536
16843TIP3    H272021   1.555   5.607  13.910  0.0595 -0.9165  1.5757
16844TIP3   OH272022   1.723   2.460  11.235  0.8575 -0.3155  0.1180
16844TIP3    H172023   1.778   2.496  11.166  0.1244 -1.3912 -1.0664
16844TIP3    H272024   1.740   2.365  11.232  0.6289 -0.4113  1.2523
16845TIP3   OH272025   6.612   0.022  13.246  0.6901 -0.1581  0.1413
16845TIP3    H172026   6.634  -0.040  13.315 -0.6694  0.1668  0.8948
16845TIP3    H272027   6.635   0.107  13.282 -1.2831  0.1519  0.7959
16846TIP3   OH272028   5.905   3.051  11.454  0.4248  0.0567 -0.4433
16846TIP3    H172029   5.983   3.083  11.500 -0.4463  2.5706 -0.5802
16846TIP3    H272030   5.919   2.957  11.447  2.4072  0.1108  1.5154
16847TIP3   OH272031   6.165   5.987  14.846  0.4688 -0.1526  0.0463
16847TIP3    H172032   6.199   5.908  14.803  0.4076  0.1559 -0.5817
16847TIP3    H272033   6.115   5.954  14.921  2.3631 -0.6098  1.1770
16848TIP3   OH272034   4.639   2.849  16.970 -0.1816 -0.0723 -0.1218
16848TIP3    H172035   4.595   2.869  17.053 -1.8715 -0.4917 -0.8840
16848TIP3    H272036   4.673   2.760  16.983 -0.6939 -0.2501  0.0166
16849TIP3   OH272037   6.423   3.422  14.000  0.5627  0.1498  0.0523
16849TIP3    H172038   6.415   3.452  14.090 -1.3092 -0.9007  0.3051
16849TIP3    H272039   6.349   3.463  13.954  0.6185 -0.4778 -0.6270
16850TIP3   OH272040   1.686   3.753   1.057  0.0869  0.1335 -0.3074
16850TIP3    H172041   1.706   3.717   1.143  0.2654  0.4304 -0.2233
16850TIP3    H272042   1.767   3.744   1.008  0.1608  0.4981 -0.2577
16851TIP3   OH272043   1.522   0.848  11.155  0.2635 -0.5565  0.0180
16851TIP3    H172044   1.466   0.808  11.221 -1.5218 -2.9459 -2.6640
16851TIP3    H272045   1.484   0.934  11.139 -0.3961 -0.6989  0.7675
16852TIP3   OH272046   6.779   2.122  13.512  0.0305  0.2914  0.4371
16852TIP3    H172047   6.849   2.182  13.539 -0.1664  0.7119  0.0211
16852TIP3    H272048   6.809   2.088  13.428 -1.1187  1.9386 -0.7105
16853TIP3   OH272049   2.876   6.288   1.848  0.1821 -0.4354  0.4578
16853TIP3    H172050   2.827   6.213   1.813 -1.7048 -0.2293  2.4289
16853TIP3    H272051   2.841   6.300   1.937  0.9339  2.3429  0.4656
16854TIP3   OH272052   4.971   2.837  11.123 -0.4887 -0.0430  0.8540
16854TIP3    H172053   4.959   2.802  11.211 -1.7061 -0.7232  0.4399
16854TIP3    H272054   5.012   2.766  11.074  1.5308  0.8195  1.1892
16855TIP3   OH272055   6.824   6.509  13.964  0.3605  0.0262  0.4935
16855TIP3    H172056   6.759   6.452  14.006 -1.4255  1.9222  0.4909
16855TIP3    H272057   6.809   6.496  13.870  1.1485 -0.7574  0.4672
16856TIP3   OH272058   2.533   4.125   2.174 -0.3237 -0.0699 -0.4344
16856TIP3    H172059   2.528   4.203   2.119  0.3866  0.1524 -0.2031
16856TIP3    H272060   2.539   4.159   2.263  0.0291 -0.3817 -0.3349
16857TIP3   OH272061   0.498   5.307   0.549  0.0460 -0.4340  0.5931
16857TIP3    H172062   0.563   5.264   0.604 -0.7637 -0.0852  1.8734
16857TIP3    H272063   0.548   5.341   0.475  1.0977 -1.2968  0.8856
16858TIP3   OH272064   6.078   1.683  15.156  0.1279 -0.0376 -0.2629
16858TIP3    H172065   6.131   1.731  15.219  1.0476 -0.4747 -0.6756
16858TIP3    H272066   6.130   1.604  15.137 -0.5831 -0.3793 -0.8362
16859TIP3   OH272067   2.606   1.048   3.365 -0.0701  0.6797 -0.1569
16859TIP3    H172068   2.676   1.089   3.314  1.7866  1.4868  2.7666
16859TIP3    H272069   2.644   0.965   3.394 -1.5819 -0.3846 -1.1146
16860TIP3   OH272070   3.187   1.046   0.152 -0.1683  0.1178 -0.7864
16860TIP3    H172071   3.192   0.972   0.212  0.9179  1.0044  0.2616
16860TIP3    H272072   3.120   1.022   0.089 -3.0180  0.0749  2.0364
16861TIP3   OH272073   1.478   5.994  10.680  0.0968 -0.3398  0.0335
16861TIP3    H172074   1.515   6.081  10.663 -0.0098 -0.1937  0.5488
16861TIP3    H272075   1.389   6.012  10.711  0.1240 -0.6258  0.2745
16862TIP3   OH272076   2.724   1.955  15.869 -0.1827 -0.3095  0.7975
16862TIP3    H172077   2.808   1.947  15.823 -1.1077 -2.1935 -0.7258
16862TIP3    H272078   2.679   2.026  15.823  0.0987 -0.1466  0.7740
16863TIP3   OH272079   1.780   5.877  15.658  0.1933 -0.6658 -0.0964
16863TIP3    H172080   1.720   5.950  15.672  0.2861 -0.5486 -0.3111
16863TIP3    H272081   1.865   5.918  15.642  0.3646 -0.8370  0.3756
16864TIP3   OH272082   4.872   4.666   1.281  0.3648  0.8469 -0.0339
16864TIP3    H172083   4.929   4.598   1.246  0.1064  0.7535 -0.2819
16864TIP3    H272084   4.916   4.748   1.257  0.3698  0.7763 -0.2746
16865TIP3   OH272085   1.422   0.195  15.088 -0.0093  0.4938  0.1195
16865TIP3    H172086   1.495   0.237  15.040  2.3927 -2.1090  1.1958
16865TIP3    H272087   1.433   0.225  15.178  0.3704 -0.6378  0.4645
16866TIP3   OH272088   6.504   4.561   4.098 -0.0765 -0.5243 -0.0478
16866TIP3    H172089   6.565   4.616   4.049  1.3746 -1.1277  1.0219
16866TIP3    H272090   6.515   4.588   4.189 -1.1370 -0.9282  0.2184
16867TIP3   OH272091   4.486   3.414   4.221  0.1307  0.1074  0.0477
16867TIP3    H172092   4.533   3.432   4.302  0.2189 -1.3591  0.3532
16867TIP3    H272093   4.533   3.340   4.182  2.0926  2.6407 -3.0111
16868TIP3   OH272094   2.469   5.853  13.717 -0.0277 -0.0611  0.1658
16868TIP3    H172095   2.463   5.853  13.621 -0.7347 -0.8123  0.1959
16868TIP3    H272096   2.393   5.904  13.746 -0.6621 -1.0881  0.3479
16869TIP3   OH272097   6.121   5.962   3.210 -0.0612  0.4410 -0.2512
16869TIP3    H172098   6.083   5.877   3.188  1.0879 -0.1963  0.1358
16869TIP3    H272099   6.167   5.990   3.131  0.7572  0.0132  0.0609
16870TIP3   OH272100   1.041   0.880   0.294  0.1908 -0.2729  0.1963
16870TIP3    H172101   1.077   0.969   0.297  0.1620 -0.2813  0.9167
16870TIP3    H272102   0.965   0.887   0.237  1.5767 -0.3573 -1.7715
16871TIP3   OH272103   1.803   0.694   6.119 -0.2527  0.2403 -0.3612
16871TIP3    H172104   1.790   0.786   6.142 -3.1079 -0.7629  2.9487
16871TIP3    H272105   1.898   0.683   6.118  0.1734  3.1081 -0.4089
16872TIP3   OH272106   4.156   5.615  13.750  0.6894  0.1183  0.9225
16872TIP3    H172107   4.178   5.524  13.767 -0.1758 -0.3787 -0.4416
16872TIP3    H272108   4.218   5.642  13.682 -2.2799 -1.1400 -2.5795
16873TIP3   OH272109   3.122   4.094   2.559  0.2494  0.6380 -0.0434
16873TIP3    H172110   3.141   4.056   2.645  0.2791 -1.6559 -0.9852
16873TIP3    H272111   3.056   4.036   2.521  0.4867  1.3956 -1.7140
16874TIP3   OH272112   4.469   1.608   5.210  0.1969  0.2694 -0.3801
16874TIP3    H172113   4.397   1.548   5.190  0.9364 -0.4357 -1.0024
16874TIP3    H272114   4.468   1.671   5.138 -0.3456  0.8115  0.0818
16875TIP3   OH272115   4.854   3.569   6.402  0.6974 -0.3878 -0.1364
16875TIP3    H172116   4.912   3.493   6.410  0.3979 -0.5956  0.0651
16875TIP3    H272117   4.856   3.591   6.309  1.6593  0.0466 -0.0273
16876TIP3   OH272118   0.323   6.627  12.086  0.0049  0.5945 -0.0622
16876TIP3    H172119   0.355   6.712  12.055  0.1880  0.4759 -0.1986
16876TIP3    H272120   0.396   6.592  12.137 -1.2449  2.0239  2.9326
16877TIP3   OH272121   6.239   1.610  14.437 -0.3593  0.4631 -0.8554
16877TIP3    H172122   6.289   1.689  14.456  1.0538 -0.8418  1.2573
16877TIP3    H272123   6.305   1.545  14.413 -0.9267 -1.2510  1.7965
16878TIP3   OH272124   4.091   2.686   0.750  0.2548  0.1690 -0.1694
16878TIP3    H172125   4.066   2.596   0.727  1.1352 -0.3790  0.9138
16878TIP3    H272126   4.015   2.738   0.727 -1.6680 -1.3177  2.3136
16879TIP3   OH272127   5.390   6.594   0.442  0.0096  0.0066  0.0105
16879TIP3    H172128   5.358   6.507   0.417  0.1894  0.0747 -0.4739
16879TIP3    H272129   5.314   6.637   0.480  0.1197 -0.6421  0.9974
16880TIP3   OH272130   6.513   5.640   6.008 -0.0825  0.2556 -0.3249
16880TIP3    H172131   6.427   5.606   5.983 -0.6579  1.2148  0.2778
16880TIP3    H272132   6.508   5.650   6.103  0.9597 -0.3654 -0.1969
16881TIP3   OH272133   0.931   5.392   4.458  0.2286  0.3582 -0.3299
16881TIP3    H172134   1.002   5.443   4.418 -0.1173  1.2451  0.1673
16881TIP3    H272135   0.901   5.333   4.388  0.3449  1.1331 -1.0439
16882TIP3   OH272136   4.857   2.599  15.517  0.2463 -0.5412 -0.1720
16882TIP3    H172137   4.777   2.571  15.473  0.0937  0.8052 -0.8106
16882TIP3    H272138   4.917   2.622  15.446  0.0526  1.5213  0.2597
16883TIP3   OH272139   6.097   5.186   1.775  0.3179 -0.5559 -0.2271
16883TIP3    H172140   6.012   5.143   1.786  1.3176 -2.0220  2.8612
16883TIP3    H272141   6.079   5.263   1.721 -3.1225 -0.3378  1.0394
16884TIP3   OH272142   3.907   0.247   0.095 -0.1030 -0.2194  0.4535
16884TIP3    H172143   3.926   0.161   0.131 -0.9997 -1.0005 -0.8759
16884TIP3    H272144   3.823   0.237   0.051  0.3094  1.0308 -0.6797
16885TIP3   OH272145   2.259   1.914  14.702  0.1797  0.6559 -0.1814
16885TIP3    H172146   2.253   1.924  14.607 -0.9961  0.2042 -0.1770
16885TIP3    H272147   2.202   1.839  14.722  0.5582  0.6276  0.8600
16886TIP3   OH272148   5.458   5.988   1.134 -0.0831 -0.0672  0.6548
16886TIP3    H172149   5.506   5.914   1.169 -1.9264 -1.8343 -0.3476
16886TIP3    H272150   5.375   5.987   1.182 -0.4453  0.8733  0.0744
16887TIP3   OH272151   2.242   6.516   5.341  0.3588 -0.5315 -0.2527
16887TIP3    H172152   2.191   6.450   5.387 -1.7134  0.5941 -0.8356
16887TIP3    H272153   2.200   6.524   5.255  0.6279  1.4161 -0.2489
16888TIP3   OH272154   5.142   2.159   0.965 -0.1457  0.2933  0.1208
16888TIP3    H172155   5.080   2.087   0.955  0.2411  0.1140 -1.1828
16888TIP3    H272156   5.106   2.212   1.036 -1.1928 -0.4120  0.1347
16889TIP3   OH272157   0.614   1.047   1.767 -0.2884 -0.6514 -0.0662
16889TIP3    H172158   0.542   1.109   1.759 -0.5228 -1.1156 -2.2387
16889TIP3    H272159   0.634   1.045   1.860  0.2591  3.2138  0.0616
16890TIP3   OH272160   6.253   1.553   0.986 -0.5926  0.6297 -0.2750
16890TIP3    H172161   6.168   1.549   0.943 -1.0955 -0.8589  0.7736
16890TIP3    H272162   6.259   1.643   1.020 -2.7646  0.1516  1.5785
16891TIP3   OH272163   4.498   4.711   3.565 -0.2451  0.0200 -0.7845
16891TIP3    H172164   4.483   4.654   3.490  1.5943 -0.0447 -1.1566
16891TIP3    H272165   4.503   4.652   3.640  0.1228 -0.1641 -0.9492
16892TIP3   OH272166   2.458   0.335  11.073 -0.2104 -0.0484 -0.2791
16892TIP3    H172167   2.452   0.240  11.061 -0.4239  0.1115 -1.5975
16892TIP3    H272168   2.370   0.367  11.056 -0.4829  0.2783  1.5397
16893TIP3   OH272169   6.228   6.214  11.572  0.5966  0.3077  0.8391
16893TIP3    H172170   6.176   6.176  11.501  0.3881 -0.1557  1.2347
16893TIP3    H272171   6.318   6.213  11.540  0.7157 -1.3211  1.1705
16894TIP3   OH272172   6.268   4.694  12.343  0.2541 -0.0122  0.3810
16894TIP3    H172173   6.248   4.602  12.322 -1.3392 -0.6597  4.0960
16894TIP3    H272174   6.221   4.712  12.424  2.2617  3.4842  0.9918
16895TIP3   OH272175   3.015   4.663   0.528 -0.3038  0.2332 -0.5858
16895TIP3    H172176   3.004   4.756   0.509 -1.1206  0.3729  0.4756
16895TIP3    H272177   3.106   4.644   0.504 -0.6711  0.8212 -2.6712
16896TIP3   OH272178   6.357   3.820   5.088 -0.2704 -0.5559  0.0994
16896TIP3    H172179   6.384   3.794   5.176  3.0039 -2.5759 -1.3362
16896TIP3    H272180   6.429   3.873   5.055 -2.0076  1.2534 -1.0063
16897TIP3   OH272181   1.953   5.811  13.986  0.5363  0.0117 -0.3334
16897TIP3    H172182   1.919   5.760  13.912  1.2785  0.8482 -1.2863
16897TIP3    H272183   1.882   5.811  14.050 -0.9323  0.9126 -1.8593
16898TIP3   OH272184   1.269   0.731   0.821  0.6074  0.0758  0.1688
16898TIP3    H172185   1.334   0.728   0.751  0.4543  0.4675  0.0038
16898TIP3    H272186   1.262   0.641   0.851  0.7878 -0.0697 -0.2148
16899TIP3   OH272187   2.691   4.105   5.741  0.0119  0.5080  0.1206
16899TIP3    H172188   2.628   4.151   5.685  0.5438  1.0829 -0.0176
16899TIP3    H272189   2.639   4.038   5.786 -0.5665  0.5239 -0.5031
16900TIP3   OH272190   5.741   0.551   2.345 -0.3216  0.4663 -0.0561
16900TIP3    H172191   5.776   0.510   2.266 -2.8817 -0.5768 -0.7514
16900TIP3    H272192   5.742   0.645   2.326  0.6437  0.3489 -0.6286
16901TIP3   OH272193   1.734   4.076   4.294 -0.6329 -0.0009  0.2145
16901TIP3    H172194   1.663   4.084   4.358 -0.3900 -0.7433  0.5901
16901TIP3    H272195   1.696   4.026   4.222 -1.2102  1.6876 -0.7091
16902TIP3   OH272196   2.706   2.605   1.372  0.2164  0.4383  0.3278
16902TIP3    H172197   2.630   2.636   1.323  0.9457  0.2392 -0.9928
16902TIP3    H272198   2.669   2.559   1.447 -0.9871 -0.4196 -0.7517
16903TIP3   OH272199   3.204   1.889  13.961 -0.3313  0.0770  0.4895
16903TIP3    H172200   3.248   1.804  13.959 -2.5143 -1.1583  0.9270
16903TIP3    H272201   3.229   1.931  13.878  1.5939 -0.5091  0.7283
16904TIP3   OH272202   3.411   3.276   0.427  0.0820  0.9485 -0.5372
16904TIP3    H172203   3.496   3.301   0.465  0.5179 -0.1424 -0.7606
16904TIP3    H272204   3.348   3.292   0.498  0.4612  1.8140 -0.3834
16905TIP3   OH272205   2.897   4.016  16.762 -0.4154 -0.0922 -0.5098
16905TIP3    H172206   2.957   4.051  16.828  0.7186 -2.9400  0.0931
16905TIP3    H272207   2.939   4.039  16.678 -1.3014  2.5516 -0.3422
16906TIP3   OH272208   0.946   2.557  15.063 -0.5200  0.5865 -0.1983
16906TIP3    H172209   0.892   2.513  15.127  0.2556  1.9167  1.4403
16906TIP3    H272210   1.036   2.539  15.091 -0.1135 -0.0807 -1.8171
16907TIP3   OH272211   5.973   6.004  17.005  0.6652  0.3634 -0.0181
16907TIP3    H172212   6.040   5.942  17.032 -0.8201 -0.1932  2.8187
16907TIP3    H272213   5.899   5.949  16.977  0.5556  0.9295 -0.8860
16908TIP3   OH272214   4.155   5.313  13.392  0.0341  0.5371  0.1433
16908TIP3    H172215   4.146   5.238  13.333  0.5516 -1.0397  1.9686
16908TIP3    H272216   4.065   5.344  13.405 -0.3633 -0.7065  0.4828
16909TIP3   OH272217   2.249   1.971   4.797  0.0131 -0.2626  0.2417
16909TIP3    H172218   2.172   1.960   4.852  0.2656  1.5069  1.0189
16909TIP3    H272219   2.215   1.973   4.708 -0.8278  0.2910  0.5653
16910TIP3   OH272220   1.210   0.911  13.833  0.4020 -0.1554 -0.3020
16910TIP3    H172221   1.297   0.885  13.863 -0.0828 -1.2450  0.1960
16910TIP3    H272222   1.153   0.895  13.908 -1.1615 -4.4714 -2.1070
16911TIP3   OH272223   6.288   3.850  10.729  0.1444  0.4163  0.1559
16911TIP3    H172224   6.339   3.852  10.649 -0.3849 -1.4568 -0.2782
16911TIP3    H272225   6.348   3.880  10.797  1.5232 -0.7051 -0.5091
16912TIP3   OH272226   0.806   4.768  13.815  0.4179  0.4522 -0.3247
16912TIP3    H172227   0.797   4.706  13.887 -0.7980 -2.0739 -2.4559
16912TIP3    H272228   0.893   4.806  13.827 -0.0103  0.7097  2.8029
16913TIP3   OH272229   2.770   0.945  13.840 -0.6183 -0.0334  0.1217
16913TIP3    H172230   2.855   0.978  13.810  0.6234 -0.0239  3.2674
16913TIP3    H272231   2.764   0.857  13.803  0.7666 -0.0373 -0.1644
16914TIP3   OH272232   2.478   2.584  15.184  0.7563 -0.3375 -0.5898
16914TIP3    H172233   2.527   2.503  15.195  0.7889 -0.2202  0.1609
16914TIP3    H272234   2.387   2.561  15.200  0.7283 -0.2789 -0.6583
16915TIP3   OH272235   4.127   6.444   4.961  0.6352  0.4423 -1.0709
16915TIP3    H172236   4.153   6.449   5.053  0.5569  0.7285 -1.0638
16915TIP3    H272237   4.137   6.533   4.928  0.2588  0.4306 -1.2294
16916TIP3   OH272238   1.889   2.507   2.249 -0.3868  0.2517 -0.4400
16916TIP3    H172239   1.875   2.507   2.154  0.3921  0.7432 -0.5582
16916TIP3    H272240   1.831   2.576   2.282 -1.5616 -0.7201 -0.4065
16917TIP3   OH272241   3.454   5.356  12.296 -0.1674  0.3413  0.0603
16917TIP3    H172242   3.411   5.421  12.241 -0.9643 -0.7629 -0.6591
16917TIP3    H272243   3.391   5.338  12.365 -0.0217  0.1985  0.1563
16918TIP3   OH272244   5.671   3.216   3.931  0.8460  0.3471  0.4933
16918TIP3    H172245   5.625   3.203   3.848  0.2088  1.5825  0.6312
16918TIP3    H272246   5.746   3.156   3.927 -1.8389 -3.3863  1.1741
16919TIP3   OH272247   6.108   2.864   3.578 -0.3255  0.1917  0.2063
16919TIP3    H172248   6.193   2.827   3.554 -0.8561 -0.6592 -0.4295
16919TIP3    H272249   6.053   2.849   3.501 -0.6086  2.2199 -0.0399
16920TIP3   OH272250   1.606   2.442   0.792  0.2340 -0.1042  0.1273
16920TIP3    H172251   1.661   2.413   0.719 -0.5962  1.3206 -1.1031
16920TIP3    H272252   1.522   2.465   0.752 -0.7536 -0.6671  1.7433
16921TIP3   OH272253   2.757   6.057  11.168 -0.0930 -0.1855 -0.2750
16921TIP3    H172254   2.743   6.133  11.226 -2.0597 -0.4827 -0.2722
16921TIP3    H272255   2.759   5.982  11.227  0.7714 -0.2433 -0.3706
16922TIP3   OH272256   1.461   6.679   4.150 -0.4619 -0.1143  0.4665
16922TIP3    H172257   1.397   6.734   4.196 -0.7725  0.8066 -0.9972
16922TIP3    H272258   1.452   6.704   4.059  1.5931 -0.4066  0.1499
16923TIP3   OH272259   1.229   0.414  16.397  0.5470  0.3470 -0.3448
16923TIP3    H172260   1.186   0.482  16.346  1.1947 -0.1640 -1.6262
16923TIP3    H272261   1.272   0.359  16.332 -1.1908 -2.1906  0.4964
16924TIP3   OH272262   3.130   6.053   2.584 -0.5153  0.1860 -0.2508
16924TIP3    H172263   3.061   6.072   2.648 -0.2938  0.9007 -0.2056
16924TIP3    H272264   3.206   6.100   2.618  0.0746 -0.8193 -0.1539
16925TIP3   OH272265   3.155   5.386   2.262 -0.1905 -0.1474  0.1596
16925TIP3    H172266   3.241   5.366   2.300 -0.6378 -0.5996  0.9652
16925TIP3    H272267   3.140   5.478   2.285  1.2748  0.8292 -2.3881
16926TIP3   OH272268   4.214   2.376   1.765  0.1225  0.3548  0.1974
16926TIP3    H172269   4.188   2.461   1.801  0.8144  1.5385 -1.9088
16926TIP3    H272270   4.132   2.335   1.739 -0.1311  1.2347 -0.4697
16927TIP3   OH272271   4.911   4.894   6.292 -0.1507 -0.5354 -0.1328
16927TIP3    H172272   4.967   4.927   6.363 -2.7064  2.1531  0.8288
16927TIP3    H272273   4.929   4.800   6.289  2.1725 -0.2798  2.0948
16928TIP3   OH272274   2.872   3.563   2.622 -0.0443 -0.2403  0.3129
16928TIP3    H172275   2.812   3.637   2.631 -0.0792 -0.3681  1.3143
16928TIP3    H272276   2.958   3.599   2.645 -0.0170 -0.4432  0.5354
16929TIP3   OH272277   4.722   6.639   2.792  0.4971  0.4387  0.2410
16929TIP3    H172278   4.683   6.724   2.815  0.5641  0.9404 -1.3703
16929TIP3    H272279   4.654   6.575   2.810  0.4977  0.8031  1.6348
16930TIP3   OH272280   4.347   1.206  11.927 -0.0929 -0.3115  0.0996
16930TIP3    H172281   4.375   1.260  12.000 -1.4638 -0.1083  0.4977
16930TIP3    H272282   4.313   1.268  11.862 -0.4242 -0.6038 -0.0100
16931TIP3   OH272283   6.437   0.868  11.217  0.0203  0.1980  0.4767
16931TIP3    H172284   6.464   0.908  11.134  1.8848  0.9745  1.4059
16931TIP3    H272285   6.342   0.862  11.210  0.2299 -2.4714 -2.9251
16932TIP3   OH272286   4.860   6.510   2.312 -0.8414  0.4470  0.4203
16932TIP3    H172287   4.915   6.562   2.253  0.8774 -1.6032  0.0742
16932TIP3    H272288   4.786   6.482   2.258  0.8445 -1.6349 -1.0092
16933TIP3   OH272289   2.835   0.050  15.423 -0.0526 -0.2189  0.0800
16933TIP3    H172290   2.914   0.085  15.384 -0.1057 -0.6006 -0.3782
16933TIP3    H272291   2.863   0.016  15.509  0.7098 -2.1367 -0.8625
16934TIP3   OH272292   5.262   1.004  11.031  0.0519 -0.4999 -0.0705
16934TIP3    H172293   5.225   1.022  10.944 -0.4305 -0.4977  0.1316
16934TIP3    H272294   5.214   1.064  11.089 -1.9322 -2.6943  0.7097
16935TIP3   OH272295   1.794   5.072  12.036 -0.1682  0.0256  0.2568
16935TIP3    H172296   1.880   5.107  12.014 -0.3146  0.4600  0.3653
16935TIP3    H272297   1.737   5.102  11.966 -0.9452  2.6559  1.8788
16936TIP3   OH272298   4.205   2.010   4.678  0.4818  0.2961  0.1076
16936TIP3    H172299   4.203   1.930   4.625 -2.0033  0.3360  0.0422
16936TIP3    H272300   4.189   2.080   4.615 -1.8245  0.4042  0.7534
16937TIP3   OH272301   0.738   5.293   5.702  0.0384 -0.0925  0.4477
16937TIP3    H172302   0.657   5.248   5.726 -0.6362  0.0389 -1.4553
16937TIP3    H272303   0.750   5.358   5.772 -1.1198 -0.5682  1.1215
16938TIP3   OH272304   5.223   4.845  16.401  0.6847  0.4052 -0.0796
16938TIP3    H172305   5.159   4.868  16.334 -2.0787 -0.3658  2.1052
16938TIP3    H272306   5.275   4.775  16.361 -3.2988 -2.7620 -0.3370
16939TIP3   OH272307   2.222   1.006  12.445  0.0734 -0.3571 -0.1904
16939TIP3    H172308   2.299   1.047  12.485 -0.3062 -0.7581  0.9737
16939TIP3    H272309   2.163   1.079  12.426 -0.4083 -0.2720  1.4644
16940TIP3   OH272310   2.752   4.738  12.637  0.3631 -0.3389 -0.2596
16940TIP3    H172311   2.819   4.671  12.624 -0.3716 -0.9678 -0.9011
16940TIP3    H272312   2.699   4.704  12.710 -1.6838 -1.8934 -2.3245
16941TIP3   OH272313   3.458   6.352   5.374 -0.0346  0.0815 -0.0077
16941TIP3    H172314   3.520   6.304   5.319  1.6620  1.6686  0.4108
16941TIP3    H272315   3.475   6.321   5.462 -0.2747  0.0684  0.0343
16942TIP3   OH272316   2.683   3.084  16.863  0.0164 -1.0055  0.4455
16942TIP3    H172317   2.672   3.082  16.958 -1.9152  1.1672  0.3503
16942TIP3    H272318   2.742   3.157  16.846 -1.7940  0.4057 -0.0902
16943TIP3   OH272319   5.605   5.291  17.057 -0.2089  0.4520  0.5104
16943TIP3    H172320   5.531   5.347  17.079  0.6121  1.5225  0.6507
16943TIP3    H272321   5.677   5.352  17.039  0.9477 -0.5685  1.4734
16944TIP3   OH272322   1.185   3.861   4.034 -0.3188 -0.4494  0.0883
16944TIP3    H172323   1.165   3.955   4.036 -1.3179 -0.6656  1.3189
16944TIP3    H272324   1.176   3.838   3.941  0.6852  0.7971 -0.3578
16945TIP3   OH272325   3.137   0.626  11.755 -0.8121 -0.4120 -0.2701
16945TIP3    H172326   3.063   0.566  11.749 -0.4107 -0.9546  0.0858
16945TIP3    H272327   3.114   0.686  11.825 -0.0718 -1.8128  1.2453
16946TIP3   OH272328   5.166   6.496  13.718 -0.0304 -0.0045 -0.0362
16946TIP3    H172329   5.229   6.525  13.652 -0.9327 -0.4377 -1.1201
16946TIP3    H272330   5.195   6.538  13.799 -0.1560  2.3878 -1.1417
16947TIP3   OH272331   0.613   5.763  15.939 -0.4945 -0.6017 -0.3319
16947TIP3    H172332   0.642   5.840  15.890  0.8536 -0.6036  0.4132
16947TIP3    H272333   0.527   5.786  15.973  0.1930  0.8517  0.4758
16948TIP3   OH272334   6.462   4.118   5.046 -0.1557 -0.4687  0.4739
16948TIP3    H172335   6.367   4.124   5.056 -0.2399  0.0018 -0.5026
16948TIP3    H272336   6.496   4.188   5.101 -0.4764  0.4876 -0.5165
16949TIP3   OH272337   0.248   2.895  13.659  0.2731 -0.0050  0.3579
16949TIP3    H172338   0.283   2.960  13.598  2.3222 -0.6731  0.7304
16949TIP3    H272339   0.313   2.891  13.729  0.9070 -3.2847 -0.2456
16950TIP3   OH272340   3.361   4.928  13.797 -0.4462  0.1944 -0.2254
16950TIP3    H172341   3.338   4.836  13.784 -1.0238  0.5609 -2.1188
16950TIP3    H272342   3.326   4.973  13.720  0.7843  1.8490  0.1153
16951TIP3   OH272343   4.049   6.414  12.422 -0.5996  0.2665 -0.1533
16951TIP3    H172344   4.016   6.343  12.477 -0.7239  0.0662 -0.4832
16951TIP3    H272345   3.978   6.432  12.361 -0.5126  0.5770 -0.1651
16952TIP3   OH272346   6.409   5.090  11.241  0.2420 -0.0713  0.2625
16952TIP3    H172347   6.318   5.061  11.233  0.5644 -1.0029 -0.2387
16952TIP3    H272348   6.459   5.022  11.196  1.1224  0.8415 -0.1547
16953TIP3   OH272349   1.923   3.279  12.484 -0.1823  0.7497 -0.2742
16953TIP3    H172350   1.989   3.214  12.458 -1.1701 -0.7257  0.7207
16953TIP3    H272351   1.868   3.289  12.407  0.0951  0.5527 -0.5028
16954TIP3   OH272352   4.543   4.548  12.261 -0.1260  0.0114  0.0978
16954TIP3    H172353   4.544   4.455  12.239  1.1363  0.0300 -0.0207
16954TIP3    H272354   4.597   4.555  12.339 -0.2915  0.6353  0.1659
16955TIP3   OH272355   2.071   1.392  11.354  0.5327  0.0246 -0.1346
16955TIP3    H172356   1.985   1.417  11.390  0.1315 -0.3151 -0.8411
16955TIP3    H272357   2.134   1.429  11.416 -0.1078  0.8220  0.0581
16956TIP3   OH272358   1.055   5.499  13.809 -0.2730 -0.4452  0.2335
16956TIP3    H172359   1.051   5.472  13.901 -1.2359  1.7052  0.9044
16956TIP3    H272360   0.968   5.478  13.775  0.2526 -1.7195 -0.3649
16957TIP3   OH272361   1.088   0.121  13.075 -1.1251  0.8031 -0.1468
16957TIP3    H172362   1.040   0.100  12.995  2.0332 -1.2775 -1.6746
16957TIP3    H272363   1.142   0.196  13.051  0.0237  0.0155 -0.0830
16958TIP3   OH272364   4.509   0.775  15.432  0.2468 -0.6307 -0.0825
16958TIP3    H172365   4.557   0.742  15.356 -0.0603  0.6754 -0.8754
16958TIP3    H272366   4.429   0.812  15.395  0.0152 -0.1272  0.9077
16959TIP3   OH272367   2.795   4.533  12.333  0.0040 -0.8392  0.1365
16959TIP3    H172368   2.743   4.488  12.266 -0.3187  0.6893 -0.6923
16959TIP3    H272369   2.799   4.471  12.406 -2.4706 -1.2766  0.0055
16960TIP3   OH272370   1.238   2.582   1.653  0.3183  0.5258  0.5243
16960TIP3    H172371   1.297   2.532   1.597  1.3051  1.6684  0.5019
16960TIP3    H272372   1.209   2.655   1.597  1.5999  1.8892  1.5614
16961TIP3   OH272373   6.197   0.383   2.907  0.0553  0.1542  0.1678
16961TIP3    H172374   6.237   0.334   2.835  0.3362 -0.4145  0.6991
16961TIP3    H272375   6.221   0.334   2.986  0.0670  0.9768  0.6867
16962TIP3   OH272376   3.937   5.475  12.784 -0.3090 -0.3581  0.2930
16962TIP3    H172377   3.935   5.570  12.799  1.7015  0.2316 -2.4675
16962TIP3    H272378   4.030   5.453  12.784 -0.7606 -2.4869  1.4359
16963TIP3   OH272379   4.435   4.291  13.447 -0.0941 -0.6835 -0.0522
16963TIP3    H172380   4.398   4.236  13.516  0.1408 -0.2835  0.3917
16963TIP3    H272381   4.517   4.325  13.483 -2.2275  3.5421  1.4830
16964TIP3   OH272382   3.154   3.118  12.037 -0.5187 -0.0259  0.1351
16964TIP3    H172383   3.246   3.139  12.022 -0.5157  1.0928  1.5464
16964TIP3    H272384   3.156   3.033  12.081 -0.1101  0.3365  0.8296
16965TIP3   OH272385   2.267   5.956   0.868 -0.1020  0.6255  0.1116
16965TIP3    H172386   2.361   5.973   0.870 -0.0886  0.4738  1.2481
16965TIP3    H272387   2.255   5.895   0.795  0.7210  0.3908  0.1676
16966TIP3   OH272388   0.726   1.434  16.874  0.3941  0.0113 -0.3938
16966TIP3    H172389   0.785   1.508  16.866  0.1593  0.1044 -1.5105
16966TIP3    H272390   0.638   1.473  16.880  0.2100 -0.1527 -1.6290
16967TIP3   OH272391   5.535   3.545  11.329 -0.1873 -0.2984 -0.1063
16967TIP3    H172392   5.538   3.634  11.363 -2.1176 -0.6718  1.2057
16967TIP3    H272393   5.448   3.537  11.289 -0.0273 -1.5721 -0.2436
16968TIP3   OH272394   0.873   1.242   3.385  0.2546 -0.3172 -0.3493
16968TIP3    H172395   0.925   1.311   3.344 -0.2551 -0.3788 -1.1317
16968TIP3    H272396   0.879   1.168   3.325 -1.6193  0.0365 -1.0779
16969TIP3   OH272397   0.127   4.089  16.737  0.0750  0.5700  0.6367
16969TIP3    H172398   0.106   4.114  16.647  2.6976 -1.6660 -0.7581
16969TIP3    H272399   0.113   4.169  16.788 -0.1302  2.3418 -1.9887
16970TIP3   OH272400   2.964   3.472  15.273  0.0539 -0.0940  0.0483
16970TIP3    H172401   2.892   3.420  15.237  0.1659 -0.2976  0.1181
16970TIP3    H272402   2.958   3.457  15.368  0.5155 -0.5285  0.0075
16971TIP3   OH272403   0.915   0.674   1.580 -0.3501 -0.0788 -0.2761
16971TIP3    H172404   0.822   0.654   1.571 -0.3423 -0.1223 -0.2589
16971TIP3    H272405   0.959   0.615   1.519 -0.3571  0.1612 -0.5211
16972TIP3   OH272406   3.580   0.427   3.729 -0.1119  0.0847  0.1697
16972TIP3    H172407   3.627   0.457   3.651 -0.5670  0.5225  0.0609
16972TIP3    H272408   3.572   0.332   3.718  2.0188 -0.2392  0.8750
16973TIP3   OH272409   3.804   3.564   1.395 -0.0219  0.1445  0.2149
16973TIP3    H172410   3.810   3.615   1.476  0.2714  0.3672  0.0538
16973TIP3    H272411   3.885   3.513   1.393  0.1966  0.4966 -0.1749
16974TIP3   OH272412   0.089   6.686  10.603 -0.3117  0.4972 -0.0125
16974TIP3    H172413   0.111   6.593  10.607  0.2784  0.6509  0.4313
16974TIP3    H272414  -0.004   6.689  10.623 -0.5526 -0.0788 -0.9481
16975TIP3   OH272415   6.398   2.836   6.140  0.0732 -0.0354 -0.4923
16975TIP3    H172416   6.466   2.903   6.128 -1.2988  1.7875  1.1543
16975TIP3    H272417   6.438   2.771   6.197  1.7827 -1.2606 -2.9363
16976TIP3   OH272418   6.068   3.736   1.936  0.4280 -0.0962  0.3172
16976TIP3    H172419   6.129   3.792   1.887  0.3256  0.3860  0.7344
16976TIP3    H272420   6.076   3.765   2.027 -0.9704  0.5065  0.2790
16977TIP3   OH272421   4.263   1.610  14.030 -0.2663 -0.3746 -0.0203
16977TIP3    H172422   4.192   1.623  14.093 -0.3515 -0.6984 -0.0453
16977TIP3    H272423   4.219   1.586  13.949 -0.2550  1.7104 -0.6863
16978TIP3   OH272424   1.304   2.824  12.704  0.2911  0.4827 -0.0108
16978TIP3    H172425   1.270   2.752  12.650  1.2950  1.0098 -1.3966
16978TIP3    H272426   1.283   2.903  12.654  0.5201  1.0518  0.7743
16979TIP3   OH272427   1.015   3.858  13.745  0.0061 -0.4881  0.2161
16979TIP3    H172428   0.923   3.871  13.765 -0.2117 -0.6590 -0.6196
16979TIP3    H272429   1.051   3.946  13.736 -0.2053 -0.4235 -0.0056
16980TIP3   OH272430   5.462   6.480  14.113 -0.2486 -0.1014 -0.4332
16980TIP3    H172431   5.545   6.437  14.092  0.2843 -0.2465  1.6638
16980TIP3    H272432   5.488   6.553  14.170 -1.4747  0.5123 -0.6374
16981TIP3   OH272433   5.590   6.184  16.306 -0.3153 -0.7772 -0.0885
16981TIP3    H172434   5.576   6.171  16.212 -2.9238 -1.7705  0.3590
16981TIP3    H272435   5.551   6.107  16.346  1.8033 -0.9492  1.8038
16982TIP3   OH272436   0.781   1.399  10.248 -0.5884  0.4977  0.0273
16982TIP3    H172437   0.721   1.472  10.261 -1.2839 -0.1563  0.5862
16982TIP3    H272438   0.868   1.437  10.260 -0.9387  1.2298  0.3040
16983TIP3   OH272439   0.911   2.665   4.585  0.1067  0.1958  0.0595
16983TIP3    H172440   0.969   2.617   4.645 -0.5368 -0.6656  0.0134
16983TIP3    H272441   0.959   2.745   4.565  0.4933  0.3512  1.4577
16984TIP3   OH272442   0.939   6.039  12.079  0.4228 -0.2611 -0.2783
16984TIP3    H172443   0.917   6.069  11.991 -1.4112  0.1008  0.2751
16984TIP3    H272444   0.865   6.065  12.133  1.0376 -1.4209  1.1867
16985TIP3   OH272445   1.376   2.104  16.685  0.0899 -0.3271 -0.5164
16985TIP3    H172446   1.419   2.030  16.640 -1.1461 -0.2653 -1.8465
16985TIP3    H272447   1.395   2.180  16.630 -1.0826 -0.1729 -0.7339
16986TIP3   OH272448   5.232   6.372   2.789 -0.3362  0.0746  0.0575
16986TIP3    H172449   5.167   6.442   2.783 -1.1054 -0.6390 -0.2065
16986TIP3    H272450   5.231   6.346   2.881 -0.0839  0.3767  0.1463
16987TIP3   OH272451   0.553   4.661  15.332 -0.3227  0.2989  0.4331
16987TIP3    H172452   0.538   4.567  15.338 -0.3664  0.3797  4.5213
16987TIP3    H272453   0.471   4.700  15.360  0.5826  1.4233  1.6371
16988TIP3   OH272454   6.246   4.598   4.683 -0.0750  0.3749 -0.2298
16988TIP3    H172455   6.221   4.686   4.712 -0.2581 -0.2631  1.7124
16988TIP3    H272456   6.331   4.582   4.725 -0.9445 -1.0829  1.0599
16989TIP3   OH272457   5.698   0.850   2.287  1.0602  0.2757  0.2167
16989TIP3    H172458   5.785   0.873   2.255  1.2010 -0.7607 -0.1894
16989TIP3    H272459   5.690   0.896   2.371  2.8155 -1.1879  1.2473
16990TIP3   OH272460   0.872   2.366   3.562  0.1272  0.0835 -0.0305
16990TIP3    H172461   0.821   2.412   3.628  0.8382 -0.5156  0.9658
16990TIP3    H272462   0.813   2.359   3.487 -0.2404  1.9318  0.0474
16991TIP3   OH272463   4.035   5.489   5.563  0.7197  0.3041 -0.0748
16991TIP3    H172464   3.986   5.482   5.481  1.1568 -0.9737 -0.2627
16991TIP3    H272465   4.005   5.570   5.603  0.7020  1.0965 -1.6318
16992TIP3   OH272466   6.615   6.653   4.724 -0.9717 -0.1969  0.3216
16992TIP3    H172467   6.562   6.703   4.786  0.4330  0.3484  1.1132
16992TIP3    H272468   6.642   6.717   4.658 -0.8178 -0.3416  0.2431
16993TIP3   OH272469   1.303   6.323  16.142  0.5802  0.0208  0.2337
16993TIP3    H172470   1.351   6.330  16.060 -0.5148 -1.3231 -0.5766
16993TIP3    H272471   1.263   6.236  16.139 -0.8956  0.6072  1.4180
16994TIP3   OH272472   6.697   5.208   6.159  0.5580 -0.8370 -0.1846
16994TIP3    H172473   6.769   5.217   6.222 -0.5803 -0.7813  1.1557
16994TIP3    H272474   6.693   5.114   6.141  0.4120 -0.9561  0.4315
16995TIP3   OH272475   6.198   1.149   2.626 -0.4476 -0.4160  0.8351
16995TIP3    H172476   6.114   1.107   2.607  0.1261 -0.6258 -1.4386
16995TIP3    H272477   6.245   1.084   2.678 -0.6669 -1.4351 -0.1965
16996TIP3   OH272478   1.275   3.356  13.128 -0.4034 -0.1085  0.7052
16996TIP3    H172479   1.305   3.271  13.097 -3.6015 -0.9295 -0.5789
16996TIP3    H272480   1.270   3.347  13.223  3.6735  0.3706  1.1544
16997TIP3   OH272481   4.137   6.714   4.880  0.4653 -0.3454  0.3865
16997TIP3    H172482   4.093   6.744   4.959  1.8759 -1.1036  1.4996
16997TIP3    H272483   4.121   6.783   4.815 -1.5920 -0.2091  0.9943
16998TIP3   OH272484   5.494   0.107  17.097  0.5263  0.1126 -0.2040
16998TIP3    H172485   5.451   0.192  17.105 -0.0699 -0.2917  1.1508
16998TIP3    H272486   5.547   0.099  17.177 -1.5265 -1.9016  1.1045
16999TIP3   OH272487   5.532   3.956  13.131 -0.0256  0.4925  0.0308
16999TIP3    H172488   5.616   3.969  13.176  0.3844 -1.1361 -0.2181
16999TIP3    H272489   5.556   3.931  13.042 -0.7922  0.6877 -0.2362
17000TIP3   OH272490   1.236   0.442   1.299 -0.2776 -0.3910 -0.0877
17000TIP3    H172491   1.264   0.491   1.222  0.9447  1.0053  1.1788
17000TIP3    H272492   1.142   0.457   1.304 -0.1472  0.6768 -0.5420
17001TIP3   OH272493   0.833   5.233  12.801  0.6624  0.3413 -0.2895
17001TIP3    H172494   0.852   5.145  12.768  1.0637  0.4417 -0.3251
17001TIP3    H272495   0.843   5.290  12.725  1.9103  0.6163  0.0488
17002TIP3   OH272496   4.224   3.893   3.951  0.0003 -0.0810 -0.5620
17002TIP3    H172497   4.269   3.976   3.932 -0.5919  0.4436  0.2650
17002TIP3    H272498   4.284   3.826   3.919  0.8175  0.6409 -0.5952
17003TIP3   OH272499   2.884   5.747  14.376 -0.1119 -0.0832  0.1561
17003TIP3    H172500   2.926   5.668  14.411  1.9831 -0.0089 -1.9773
17003TIP3    H272501   2.845   5.718  14.293  0.6013  1.0785 -0.6055
17004TIP3   OH272502   5.209   5.324  10.930 -0.3781 -0.2713  0.0275
17004TIP3    H172503   5.295   5.365  10.935  0.1160 -0.8838 -2.2940
17004TIP3    H272504   5.227   5.230  10.931 -1.1093 -0.4167  0.3270
17005TIP3   OH272505   4.107   6.582  10.777  0.1865 -0.6325  0.3977
17005TIP3    H172506   4.145   6.612  10.860  1.0428 -0.5130 -0.0240
17005TIP3    H272507   4.120   6.487  10.778  0.0786 -0.6464  0.4608
17006TIP3   OH272508   4.885   1.816  14.723 -0.4728  0.2021 -0.0410
17006TIP3    H172509   4.822   1.887  14.735  0.1091  1.0071 -1.4968
17006TIP3    H272510   4.939   1.817  14.802 -1.2452  0.5575  0.4986
17007TIP3   OH272511   4.470   3.473  12.207 -0.0368  0.2878 -0.5005
17007TIP3    H172512   4.421   3.478  12.125 -0.1569 -1.2709 -0.5444
17007TIP3    H272513   4.486   3.565  12.231 -3.2994  0.9086 -0.2654
17008TIP3   OH272514   6.651   6.706  11.241  0.2434 -0.6878  0.1731
17008TIP3    H172515   6.592   6.774  11.274 -1.0373 -0.1304 -2.8607
17008TIP3    H272516   6.603   6.624  11.255  0.5099 -0.6855  1.1996
17009TIP3   OH272517   6.834   5.141  12.911  0.5377  0.6581  0.7070
17009TIP3    H172518   6.881   5.224  12.921  0.0706  1.4257 -2.3547
17009TIP3    H272519   6.745   5.161  12.942  1.0550  0.4896  2.3888
17010TIP3   OH272520   0.004   3.214  14.315  0.1405 -0.2811 -0.4636
17010TIP3    H172521  -0.058   3.285  14.301  1.2033  0.7277 -0.1465
17010TIP3    H272522   0.089   3.252  14.298  0.7472 -1.4611 -0.1975
17011TIP3   OH272523   3.353   2.323   0.397  0.7699 -0.1745 -0.0804
17011TIP3    H172524   3.273   2.364   0.430  0.6253 -0.9762  0.6152
17011TIP3    H272525   3.355   2.237   0.440  0.7827 -1.1053 -1.8694
17012TIP3   OH272526   3.339   1.122   0.963  0.2125  0.3826  0.0826
17012TIP3    H172527   3.387   1.152   1.041  1.8976 -0.8001 -0.4390
17012TIP3    H272528   3.265   1.073   0.998 -0.0317  1.3281  0.9314
17013TIP3   OH272529   4.408   1.943  14.572 -0.0930  0.0474 -0.0709
17013TIP3    H172530   4.407   1.857  14.615 -1.1376  0.8750  1.7070
17013TIP3    H272531   4.410   1.923  14.478 -0.0529 -1.9061  0.2999
17014TIP3   OH272532   2.034   6.444  15.356  0.3490  0.0380  0.2196
17014TIP3    H172533   2.123   6.448  15.390  0.7698  0.9499 -0.9293
17014TIP3    H272534   2.033   6.367  15.300 -0.1671 -1.1012  1.7317
17015TIP3   OH272535   2.068   2.175   4.094 -0.0121  0.1968 -0.4830
17015TIP3    H172536   2.069   2.260   4.049 -0.9722 -0.1551 -1.2040
17015TIP3    H272537   2.038   2.113   4.028 -0.7931 -0.4546  0.4492
17016TIP3   OH272538   0.115   1.327   2.952 -0.0543 -0.2222 -0.8064
17016TIP3    H172539   0.102   1.250   3.008 -0.7124  0.5136  0.0741
17016TIP3    H272540   0.032   1.338   2.906 -0.0505  0.1023 -0.7391
17017TIP3   OH272541   6.001   5.978  11.954  0.0562  0.0220 -0.3324
17017TIP3    H172542   5.924   5.930  11.923 -0.1718  0.7995 -0.9921
17017TIP3    H272543   5.979   6.004  12.043 -0.1814 -0.3174 -0.2897
17018TIP3   OH272544   1.747   0.302  16.124 -0.1439  0.1807 -0.1886
17018TIP3    H172545   1.692   0.225  16.139 -0.1917  0.3490  0.5216
17018TIP3    H272546   1.836   0.271  16.133 -0.0617 -0.2802 -2.1935
17019TIP3   OH272547   4.718   0.676  10.708  0.3916 -0.1399  0.1819
17019TIP3    H172548   4.671   0.712  10.632 -1.1280 -0.4925  0.9248
17019TIP3    H272549   4.718   0.747  10.772  1.9527  0.2677 -0.2208
17020TIP3   OH272550   2.395   5.320   3.434 -0.2104 -0.1486  0.2761
17020TIP3    H172551   2.443   5.268   3.498  0.2278 -1.8675 -1.3970
17020TIP3    H272552   2.420   5.411   3.453 -0.3313 -0.5591  2.6934
17021TIP3   OH272553   1.720   6.319  10.326  0.0210  0.0605 -0.2828
17021TIP3    H172554   1.697   6.395  10.273 -1.6678 -0.0636  0.2209
17021TIP3    H272555   1.753   6.355  10.408  0.9407  0.2339 -0.7110
17022TIP3   OH272556   3.473   0.787   1.060  0.2979  0.2153 -0.4664
17022TIP3    H172557   3.513   0.825   1.138 -0.5986 -0.6110  0.4338
17022TIP3    H272558   3.387   0.830   1.054 -0.3550 -0.9731  0.0450
17023TIP3   OH272559   5.486   1.787   5.479 -0.6427  0.0788  0.5495
17023TIP3    H172560   5.516   1.700   5.453 -2.6416 -0.1549 -1.3658
17023TIP3    H272561   5.413   1.770   5.539 -0.4936  0.4537  0.8392
17024TIP3   OH272562   0.887   1.370   0.543 -0.0105  0.4422  0.4529
17024TIP3    H172563   0.899   1.465   0.533  0.0808  0.3184 -0.7702
17024TIP3    H272564   0.854   1.341   0.458 -1.5267 -0.4078  1.2995
17025TIP3   OH272565   3.305   6.537   5.228  0.4967 -0.1752  0.6455
17025TIP3    H172566   3.337   6.466   5.284  0.6287 -0.3839  0.3117
17025TIP3    H272567   3.222   6.564   5.268 -0.0098 -1.1269  0.2833
17026TIP3   OH272568   1.303   3.233   5.566  0.5667 -0.1613  0.5661
17026TIP3    H172569   1.248   3.260   5.640 -0.6891  0.6016 -0.6173
17026TIP3    H272570   1.384   3.284   5.577  0.1505  0.3963  1.0759
17027TIP3   OH272571   4.320   0.653  11.687 -0.3656  0.0172  0.8883
17027TIP3    H172572   4.339   0.664  11.780  0.0251  0.4204  0.7678
17027TIP3    H272573   4.233   0.691  11.676 -0.2706  0.2768  1.0283
17028TIP3   OH272574   2.872   1.950   2.535  0.4237 -0.9860 -0.2279
17028TIP3    H172575   2.787   1.974   2.499 -0.5073 -1.4351  1.5629
17028TIP3    H272576   2.864   1.857   2.557  0.6552 -0.5839  1.7808
17029TIP3   OH272577   0.393   0.756   1.560 -0.3512  0.0443  0.1742
17029TIP3    H172578   0.403   0.762   1.465  1.1270  0.9118  0.3542
17029TIP3    H272579   0.340   0.832   1.584  0.8594  0.9048  0.2173
17030TIP3   OH272580   4.699   6.375  11.682  0.1262 -0.1404  0.1117
17030TIP3    H172581   4.725   6.353  11.771 -0.0946 -0.3197  0.1324
17030TIP3    H272582   4.670   6.466  11.688  0.1162 -0.1510  0.2212
17031TIP3   OH272583   0.957   5.140   4.778  0.4119  0.3945 -0.7285
17031TIP3    H172584   0.998   5.085   4.711 -1.1557 -1.6071 -0.1810
17031TIP3    H272585   1.022   5.207   4.799  2.5280 -1.3674 -1.3340
17032TIP3   OH272586   0.567   2.378   4.068  0.3516 -0.1409  0.4774
17032TIP3    H172587   0.486   2.427   4.082 -0.0871 -0.1824 -1.5118
17032TIP3    H272588   0.539   2.288   4.055  0.6576 -0.1189 -0.4539
17033TIP3   OH272589   1.117   6.335   0.114 -1.0621 -0.4298 -0.0938
17033TIP3    H172590   1.169   6.275   0.061  1.5630  2.0035 -0.4827
17033TIP3    H272591   1.088   6.282   0.189  1.6725 -2.0469 -0.0495
17034TIP3   OH272592   6.457   5.698   5.178  0.0770  0.2293  0.6513
17034TIP3    H172593   6.508   5.774   5.150 -1.3718  1.1724  0.4303
17034TIP3    H272594   6.477   5.689   5.271 -0.4475  1.5058  0.9146
17035TIP3   OH272595   6.332   3.749  11.239  0.1510  0.3383  0.1206
17035TIP3    H172596   6.313   3.656  11.255 -0.7038  0.3890 -0.5072
17035TIP3    H272597   6.300   3.793  11.317  0.2409  0.1431  0.2715
17036TIP3   OH272598   5.420   1.259   3.159  0.4581  0.2792 -0.1269
17036TIP3    H172599   5.451   1.241   3.070 -1.0188 -0.4740 -0.5382
17036TIP3    H272600   5.418   1.355   3.165  0.4437  0.3419 -0.9731
17037TIP3   OH272601   5.616   6.849   5.657  0.3312  0.2448  0.1738
17037TIP3    H172602   5.607   6.803   5.740  0.5301 -2.4069 -1.1753
17037TIP3    H272603   5.560   6.800   5.596 -0.8050  2.8463 -1.0393
17038TIP3   OH272604   3.987   4.183  15.618 -0.6371  0.2365 -0.3621
17038TIP3    H172605   4.044   4.105  15.617 -0.3749  0.4238 -0.1164
17038TIP3    H272606   3.899   4.148  15.606 -0.3813  0.0210 -1.7740
17039TIP3   OH272607   4.050   1.381  16.478 -0.0520  0.5871 -0.3114
17039TIP3    H172608   4.101   1.396  16.557  1.0675 -1.6141 -0.5462
17039TIP3    H272609   4.074   1.292  16.450 -2.2417  0.3709 -1.7631
17040TIP3   OH272610   3.647   5.994  12.352  0.1357  0.3344  0.1482
17040TIP3    H172611   3.624   5.902  12.348  0.8196  0.1464  0.4099
17040TIP3    H272612   3.659   6.012  12.446 -0.5574  0.8350  0.1497
17041TIP3   OH272613   4.470   0.195   1.214 -0.5947 -0.0371 -0.2617
17041TIP3    H172614   4.501   0.232   1.131  1.4972 -0.4891  0.2506
17041TIP3    H272615   4.425   0.114   1.188 -2.2136  1.0710 -1.1020
17042TIP3   OH272616   5.252   1.948  16.808  0.1227 -0.6255  0.6218
17042TIP3    H172617   5.209   1.886  16.750 -1.0488  1.6087 -1.0648
17042TIP3    H272618   5.308   2.000  16.751 -0.7548  1.3835  1.4831
17043TIP3   OH272619   6.284   2.087  13.783 -0.4772 -0.1415  0.0152
17043TIP3    H172620   6.326   2.145  13.720 -1.9020 -0.7524 -1.5779
17043TIP3    H272621   6.271   2.142  13.861  0.7168  0.8255 -0.4352
17044TIP3   OH272622   3.669   2.362   0.680 -0.3543 -0.0419 -0.1914
17044TIP3    H172623   3.609   2.434   0.660  0.3782  0.9966  1.2414
17044TIP3    H272624   3.633   2.322   0.760  1.0634  0.8863  0.9602
17045TIP3   OH272625   0.640   2.684  16.483  1.0881  0.3294 -0.1602
17045TIP3    H172626   0.626   2.609  16.425  0.6724  0.3288 -0.0626
17045TIP3    H272627   0.689   2.649  16.557 -0.1331 -0.1112  0.4611
17046TIP3   OH272628   6.568   2.859  17.013 -0.2519 -0.2657 -0.5317
17046TIP3    H172629   6.613   2.919  17.071  0.1194 -0.8299 -0.2272
17046TIP3    H272630   6.632   2.790  16.996 -0.7050 -0.6260 -0.7960
17047TIP3   OH272631   6.024   2.809  13.715 -0.1156 -0.2429  0.1070
17047TIP3    H172632   5.949   2.752  13.700  1.2242 -1.7293 -1.3323
17047TIP3    H272633   6.034   2.812  13.810 -1.5914 -0.5218  0.2944
17048TIP3   OH272634   2.459   1.699  11.611  0.7137 -0.3323  0.3529
17048TIP3    H172635   2.390   1.718  11.675 -0.7282 -1.0082 -0.9607
17048TIP3    H272636   2.456   1.773  11.551 -0.0428 -1.1560 -0.6628
17049TIP3   OH272637   1.990   5.430   3.919 -0.2282  0.2323 -0.1496
17049TIP3    H172638   1.940   5.426   3.837  0.2729  0.3321 -0.4589
17049TIP3    H272639   2.019   5.340   3.933  2.5643  0.7364 -1.8807
17050TIP3   OH272640   2.500   1.854  11.090  0.2620  0.3684 -0.1886
17050TIP3    H172641   2.508   1.793  11.017 -1.5357  0.7323 -0.7533
17050TIP3    H272642   2.427   1.820  11.142 -1.3729  2.4146 -0.9915
17051TIP3   OH272643   5.409   5.706  15.065  0.7656  0.0026  0.5540
17051TIP3    H172644   5.414   5.653  14.986  1.0889  1.3344 -0.3523
17051TIP3    H272645   5.494   5.750  15.071  0.4013  0.6721  1.0822
17052TIP3   OH272646   3.050   5.334  12.995 -0.3532  0.4234  0.5218
17052TIP3    H172647   3.144   5.348  12.991 -0.6161  2.4197  0.0028
17052TIP3    H272648   3.036   5.286  13.076  1.1425 -0.3210  0.3587
17053TIP3   OH272649   1.557   4.689   0.614 -0.3963 -0.0775  0.1292
17053TIP3    H172650   1.637   4.731   0.645 -0.6030  0.0211  0.5398
17053TIP3    H272651   1.491   4.712   0.680 -0.8132  0.0173 -0.3107
17054TIP3   OH272652   3.991   3.999  13.513 -0.0400  0.0256  0.2858
17054TIP3    H172653   4.000   4.080  13.462 -1.7650 -0.0645 -0.2301
17054TIP3    H272654   3.981   3.931  13.446  0.8207 -0.5471  0.7282
17055TIP3   OH272655   6.087   2.322   4.942  0.3333  0.8394  0.1164
17055TIP3    H172656   6.169   2.306   4.990  0.6859 -0.8826 -0.9864
17055TIP3    H272657   6.098   2.410   4.904  1.6816  0.6249 -0.0317
17056TIP3   OH272658   2.929   1.534   6.117 -0.0610 -0.4645  0.2712
17056TIP3    H172659   2.993   1.478   6.161 -1.2401 -1.8937  0.2669
17056TIP3    H272660   2.980   1.607   6.082  1.8966 -2.5030 -1.3947
17057TIP3   OH272661   1.740   2.066   1.676 -0.2425  0.3243 -0.1294
17057TIP3    H172662   1.836   2.058   1.673 -0.0334  2.2825 -0.5554
17057TIP3    H272663   1.711   2.039   1.589 -0.5169 -3.7860  1.0653
17058TIP3   OH272664   0.001   3.018   2.456  0.0203  0.4374  0.6030
17058TIP3    H172665   0.064   2.987   2.521 -0.5138 -0.7198  0.5863
17058TIP3    H272666   0.053   3.072   2.397  0.7956  0.3146  1.1537
17059TIP3   OH272667   6.228   3.348   3.498  0.2261 -0.1588  0.1639
17059TIP3    H172668   6.215   3.281   3.565  0.3416 -2.8226 -2.3424
17059TIP3    H272669   6.302   3.400   3.531 -1.2585  0.2534  3.2125
17060TIP3   OH272670   6.809   0.840   3.705  0.8987  0.0557 -0.1408
17060TIP3    H172671   6.842   0.886   3.782  1.3446  0.5743 -0.6299
17060TIP3    H272672   6.765   0.907   3.654  1.3080 -0.1076 -0.7267
17061TIP3   OH272673   1.307   1.505  15.757  0.4594 -0.2679 -0.2933
17061TIP3    H172674   1.239   1.445  15.788 -1.5778  2.3491  0.7444
17061TIP3    H272675   1.362   1.522  15.833 -0.1436  0.5987 -0.0335
17062TIP3   OH272676   5.493   0.731  11.173 -0.1027  0.0123  0.7882
17062TIP3    H172677   5.441   0.699  11.100  0.7913  0.4008 -0.0329
17062TIP3    H272678   5.433   0.729  11.248 -1.0975 -0.1389 -0.0001
17063TIP3   OH272679   1.279   3.372  15.030  0.0544 -0.0534 -0.8097
17063TIP3    H172680   1.257   3.308  14.963 -1.9900 -0.0631 -0.2054
17063TIP3    H272681   1.215   3.443  15.018 -1.1171 -0.5495  1.7381
17064TIP3   OH272682   6.352   6.499   5.311 -0.5532 -0.0152  0.1121
17064TIP3    H172683   6.366   6.435   5.241  1.8157 -0.0242  0.5183
17064TIP3    H272684   6.440   6.528   5.335 -1.4763  2.5129  0.7841
17065TIP3   OH272685   1.990   0.596   5.316 -0.3263 -0.5503  0.1383
17065TIP3    H172686   1.920   0.538   5.284  0.4214 -0.9358 -0.8342
17065TIP3    H272687   2.071   0.552   5.292  0.2603  0.3524  0.4085
17066TIP3   OH272688   4.255   5.393   5.671  0.3354  0.4529 -0.0643
17066TIP3    H172689   4.291   5.350   5.593 -0.3371  0.8149 -0.5851
17066TIP3    H272690   4.174   5.433   5.641 -1.7664 -2.2438  1.5559
17067TIP3   OH272691   0.175   6.643   2.446  0.2869 -0.5131  0.1107
17067TIP3    H172692   0.176   6.547   2.452  0.1907 -0.4904  0.4930
17067TIP3    H272693   0.195   6.661   2.354  0.0628 -0.9055 -0.0184
17068TIP3   OH272694   3.566   6.019  16.646 -0.2837  0.0085  0.2272
17068TIP3    H172695   3.520   5.966  16.710 -1.1002 -0.4112 -0.6736
17068TIP3    H272696   3.576   5.961  16.570  0.9893  0.3673  0.0928
17069TIP3   OH272697   6.332   3.852  11.751 -0.1925  0.3431 -0.5227
17069TIP3    H172698   6.301   3.762  11.757  0.4631  0.0928 -0.8291
17069TIP3    H272699   6.388   3.863  11.828  1.6626 -0.2917 -1.7052
17070TIP3   OH272700   1.399   6.201  11.682 -0.0597  0.0065 -0.1081
17070TIP3    H172701   1.492   6.225  11.681 -0.3303  1.0695 -0.1584
17070TIP3    H272702   1.396   6.123  11.737  0.7111  0.5824  0.7782
17071TIP3   OH272703   0.828   3.227   0.686  0.1275 -0.3324  0.2950
17071TIP3    H172704   0.877   3.146   0.677  0.5051  0.0287 -0.9838
17071TIP3    H272705   0.758   3.220   0.621 -0.6442 -0.2051  1.0957
17072TIP3   OH272706   3.901   1.840   0.556 -0.1785 -0.2018  0.1841
17072TIP3    H172707   3.887   1.924   0.600  0.3902 -0.0139  0.0172
17072TIP3    H272708   3.919   1.864   0.465  2.8409 -0.2675  0.6613
17073TIP3   OH272709   2.198   5.698   3.010  0.1914 -0.0732 -0.2575
17073TIP3    H172710   2.125   5.646   3.042 -1.0658  1.6883 -0.1121
17073TIP3    H272711   2.275   5.663   3.057 -0.2631 -2.8509 -1.4211
17074TIP3   OH272712   6.733   3.329   0.183  0.1555 -0.0684  0.4078
17074TIP3    H172713   6.776   3.406   0.220 -0.3627 -0.3695  1.6980
17074TIP3    H272714   6.717   3.352   0.091  0.9307  0.9525  0.5124
17075TIP3   OH272715   0.833   5.138   4.343  0.1839  0.4881  0.1860
17075TIP3    H172716   0.746   5.139   4.383 -0.4300  1.7353 -1.1094
17075TIP3    H272717   0.819   5.104   4.255  0.9299  1.1334 -0.1989
17076TIP3   OH272718   5.299   5.917   4.435 -0.4172  0.0124 -0.1593
17076TIP3    H172719   5.263   5.836   4.399  0.7129 -0.3296 -0.5795
17076TIP3    H272720   5.224   5.975   4.445 -1.0378 -0.5644 -1.2735
17077TIP3   OH272721   6.728   5.463  12.063  0.2199 -0.3137  0.1463
17077TIP3    H172722   6.793   5.427  12.003  0.1867 -1.4857  0.7914
17077TIP3    H272723   6.779   5.498  12.136  0.1714 -0.2921  0.1700
17078TIP3   OH272724   5.954   1.152   5.959 -0.2575  0.0558 -0.6651
17078TIP3    H172725   6.009   1.201   6.020 -1.2799 -0.7351  0.9416
17078TIP3    H272726   6.009   1.080   5.929 -0.3988 -0.8245  1.0549
17079TIP3   OH272727   3.095   1.623   3.893 -0.1493 -0.0724 -0.3381
17079TIP3    H172728   3.047   1.576   3.825  0.5773  0.6972 -1.4196
17079TIP3    H272729   3.027   1.668   3.944 -0.6291  1.4219 -2.1477
17080TIP3   OH272730   1.328   1.011   5.686  0.0815  0.0336 -0.0572
17080TIP3    H172731   1.322   1.105   5.670  1.3933  0.0329 -0.7211
17080TIP3    H272732   1.312   0.971   5.600 -0.7630 -0.3767  0.2765
17081TIP3   OH272733   1.119   5.073   5.048  0.2313  0.9263  0.1582
17081TIP3    H172734   1.192   5.071   4.986  1.3932  0.0374  1.4673
17081TIP3    H272735   1.061   5.003   5.020  1.0498  0.1371  0.4020
17082TIP3   OH272736   2.906   3.909  10.876 -0.1229 -0.4752  0.4955
17082TIP3    H172737   2.961   3.837  10.907  1.7253 -0.3799 -2.2058
17082TIP3    H272738   2.963   3.986  10.879 -0.5788 -0.0529 -0.8789
17083TIP3   OH272739   6.785   1.285  17.071  0.0259 -0.1230 -0.0808
17083TIP3    H172740   6.791   1.381  17.068 -1.3120 -0.0282 -1.9233
17083TIP3    H272741   6.735   1.267  17.151 -0.9041  0.8350 -0.4154
17084TIP3   OH272742   4.589   0.561   1.398 -0.3260 -0.4343 -0.4006
17084TIP3    H172743   4.587   0.642   1.449  1.9088 -1.3705  1.3217
17084TIP3    H272744   4.503   0.522   1.412 -1.7492  1.8870 -1.8667
17085TIP3   OH272745   3.002   3.478   5.564  0.8236  0.2026  0.2929
17085TIP3    H172746   3.021   3.447   5.475 -1.2092  0.0415 -0.1328
17085TIP3    H272747   2.940   3.414   5.599  2.5202 -0.4387  2.3451
17086TIP3   OH272748   4.726   4.632  14.811  0.1880 -0.4314 -0.1247
17086TIP3    H172749   4.798   4.594  14.861 -1.0175 -1.3026  1.0153
17086TIP3    H272750   4.749   4.616  14.720  1.9467  0.2923  0.1575
17087TIP3   OH272751   5.198   0.651  12.996  0.3135 -0.0976 -0.1310
17087TIP3    H172752   5.120   0.659  12.942  1.5756  2.4332 -1.8219
17087TIP3    H272753   5.212   0.557  13.006 -1.8754 -0.6027 -1.3500
17088TIP3   OH272754   6.173   2.863  15.384  0.1999 -0.0757 -0.0763
17088TIP3    H172755   6.266   2.842  15.387 -0.4747 -3.5304  2.3083
17088TIP3    H272756   6.158   2.918  15.462  0.2272  0.5829 -0.5262
17089TIP3   OH272757   3.538   6.587   4.493  0.4947  0.4730  0.2429
17089TIP3    H172758   3.561   6.570   4.584 -1.6194 -1.2757  0.5374
17089TIP3    H272759   3.461   6.645   4.499  1.3834  1.7812 -0.5152
17090TIP3   OH272760   3.131   0.014   5.066 -0.3941  0.0316  0.6087
17090TIP3    H172761   3.226   0.002   5.072 -0.4479 -1.2595 -0.7127
17090TIP3    H272762   3.116   0.102   5.101  1.7402  1.7485 -2.3486
17091TIP3   OH272763   3.368   5.585   2.687  0.0065 -0.0370 -0.0051
17091TIP3    H172764   3.324   5.508   2.721 -0.0517 -0.8429 -1.8075
17091TIP3    H272765   3.385   5.639   2.764  2.1563 -2.8665  1.6643
17092TIP3   OH272766   2.486   0.906  13.220 -0.0613  0.1953  0.1491
17092TIP3    H172767   2.482   0.925  13.314  0.0732 -0.5174  0.3091
17092TIP3    H272768   2.503   0.990  13.178 -1.3704  0.7343  0.6644
17093TIP3   OH272769   0.667   5.192  11.778 -0.3220 -0.1992  1.1223
17093TIP3    H172770   0.758   5.172  11.756 -0.9562 -1.9155 -0.1668
17093TIP3    H272771   0.666   5.196  11.874  1.2898  0.9054  1.1316
17094TIP3   OH272772   1.881   2.510  13.961  0.3289  0.5464  0.0050
17094TIP3    H172773   1.910   2.601  13.968  1.3359  0.2168  0.2766
17094TIP3    H272774   1.870   2.482  14.052 -1.1012  0.7297 -0.0930
17095TIP3   OH272775   5.005   0.864  16.168 -0.3921 -0.4028 -0.0829
17095TIP3    H172776   5.098   0.849  16.149 -0.0782  0.8431  0.2960
17095TIP3    H272777   4.984   0.802  16.238  0.4199 -0.1098  0.4449
17096TIP3   OH272778   4.540   6.042   3.124  0.3779  0.2402  0.0117
17096TIP3    H172779   4.454   6.076   3.102 -0.1177  1.2346  3.0531
17096TIP3    H272780   4.523   5.963   3.175  1.4402 -1.7043 -2.4060
17097TIP3   OH272781   1.469   4.968   1.494  0.6712  0.4859 -0.0895
17097TIP3    H172782   1.413   5.022   1.439  0.3378 -0.8168 -1.0795
17097TIP3    H272783   1.408   4.919   1.550  0.6282 -1.9145 -2.0648
17098TIP3   OH272784   1.052   0.876   2.580 -0.6097 -0.5373  0.9425
17098TIP3    H172785   1.147   0.882   2.568 -0.9890  1.2388 -2.1163
17098TIP3    H272786   1.028   0.794   2.537 -0.3891 -1.9771  3.3367
17099TIP3   OH272787   5.277   0.041   5.592 -0.4228 -0.0680 -0.0685
17099TIP3    H172788   5.323   0.020   5.510 -0.6702  1.6764 -0.6871
17099TIP3    H272789   5.295  -0.034   5.648 -0.8109 -1.6527 -1.9325
17100TIP3   OH272790   5.536   6.489   1.199 -0.4969  0.2834  0.3469
17100TIP3    H172791   5.526   6.519   1.109 -1.6338  1.0957  0.7224
17100TIP3    H272792   5.530   6.394   1.193 -0.8389  0.3439 -0.3961
17101TIP3   OH272793   5.360   0.303   6.445 -0.0651  0.5403  0.4935
17101TIP3    H172794   5.358   0.338   6.534  0.3404  1.5365  0.1215
17101TIP3    H272795   5.291   0.236   6.444 -0.0092  0.4468  1.5744
17102TIP3   OH272796   3.370   5.308   4.906 -0.2855  0.5566 -0.1818
17102TIP3    H172797   3.448   5.363   4.904 -0.3495  0.7113  0.8604
17102TIP3    H272798   3.308   5.351   4.847  0.6262  0.0917 -1.5005
17103TIP3   OH272799   6.206   5.761   3.787 -0.4087 -0.2126  0.8095
17103TIP3    H172800   6.129   5.779   3.732  1.2981 -0.5204 -1.8684
17103TIP3    H272801   6.272   5.824   3.758  1.5915 -2.4395  0.1841
17104TIP3   OH272802   6.715   5.033  15.224  0.2125 -0.0993  0.7758
17104TIP3    H172803   6.714   4.996  15.136  0.9636 -1.6631  1.3759
17104TIP3    H272804   6.729   4.957  15.281 -2.6943  0.4674  2.4549
17105TIP3   OH272805   1.330   4.208  11.515 -0.0707 -0.2846 -0.7815
17105TIP3    H172806   1.296   4.176  11.432  0.0011 -1.2691 -0.4442
17105TIP3    H272807   1.424   4.188  11.513  0.0487  0.2581 -0.7265
17106TIP3   OH272808   0.003   3.040  16.377  0.0603 -0.2653  0.0099
17106TIP3    H172809   0.039   3.049  16.289  0.9146  2.2961  0.5223
17106TIP3    H272810  -0.026   2.949  16.382  0.5352 -0.6579 -2.6819
17107TIP3   OH272811   3.783   3.116  16.843 -0.1109  0.3556  0.2639
17107TIP3    H172812   3.754   3.198  16.804  0.8061 -1.1108 -4.0943
17107TIP3    H272813   3.704   3.061  16.846 -0.3221  0.6949  1.2584
17108TIP3   OH272814   2.068   2.488  10.269  0.3366 -0.5469  0.2296
17108TIP3    H172815   2.084   2.562  10.327 -1.1668 -1.3759  1.7906
17108TIP3    H272816   2.083   2.411  10.323  0.1843 -1.3877 -0.8778
17109TIP3   OH272817   5.755   5.832  13.783  0.5044 -0.0951  0.8295
17109TIP3    H172818   5.769   5.740  13.760 -1.5954 -0.5806  1.2978
17109TIP3    H272819   5.741   5.877  13.700 -1.5297 -0.8026  0.7546
17110TIP3   OH272820   4.548   0.736  16.528 -0.8205 -0.2909  0.0860
17110TIP3    H172821   4.525   0.670  16.593 -1.0354  0.7221  1.0774
17110TIP3    H272822   4.475   0.798  16.531  0.3355  1.1095  0.7439
17111TIP3   OH272823   2.375   4.523  13.801 -0.0666 -0.4419  0.0632
17111TIP3    H172824   2.426   4.579  13.860 -1.3498  1.2307 -0.3060
17111TIP3    H272825   2.285   4.555  13.812 -0.6398 -1.5450 -1.2208
17112TIP3   OH272826   5.475   6.848   0.722  0.0896 -0.7338 -0.4786
17112TIP3    H172827   5.497   6.846   0.629  1.8798  0.1522 -0.1251
17112TIP3    H272828   5.559   6.838   0.767 -0.2703  1.9342  1.0053
17113TIP3   OH272829   3.863   5.907  10.876  0.2689  0.2272  0.4572
17113TIP3    H172830   3.919   5.831  10.858  1.7603  1.2651  0.5318
17113TIP3    H272831   3.784   5.892  10.824  0.7137 -1.1553  0.1344
17114TIP3   OH272832   3.311   0.796   1.363 -0.4296  1.1049 -0.0846
17114TIP3    H172833   3.400   0.830   1.371  0.1314  0.0499 -1.4510
17114TIP3    H272834   3.319   0.704   1.387 -1.5338  1.3892  1.5669
17115TIP3   OH272835   0.482   5.922  11.741  0.1120  0.0443  0.6559
17115TIP3    H172836   0.470   5.868  11.663 -1.6362  1.0519  0.1643
17115TIP3    H272837   0.431   6.001  11.724 -0.0149  0.4605  2.6438
17116TIP3   OH272838   2.325   5.220   2.010 -0.4147 -0.7769 -0.4110
17116TIP3    H172839   2.354   5.243   1.922  1.5356  0.8912  0.5752
17116TIP3    H272840   2.269   5.292   2.037  0.7773 -0.1338  0.4663
17117TIP3   OH272841   0.992   4.150  15.795 -0.1003  0.0784  0.2862
17117TIP3    H172842   0.901   4.120  15.793  0.1930 -0.9553  1.5038
17117TIP3    H272843   1.044   4.070  15.802  1.0097  0.5455 -1.6517
17118TIP3   OH272844   5.872   4.995   1.296  0.2104  0.2120  0.1161
17118TIP3    H172845   5.827   4.929   1.244  0.6815  0.2494 -0.3530
17118TIP3    H272846   5.852   5.078   1.252 -2.0724  0.6841  1.8621
17119TIP3   OH272847   4.671   2.826   4.829 -0.2762  0.4380 -0.2869
17119TIP3    H172848   4.633   2.884   4.895  0.4930  0.0970  0.4830
17119TIP3    H272849   4.764   2.852   4.826 -0.2526  0.2774 -1.0520
17120TIP3   OH272850   0.221   2.841   0.272  0.6361  0.0580 -0.3988
17120TIP3    H172851   0.198   2.888   0.352  1.4438  1.0276 -0.7036
17120TIP3    H272852   0.298   2.789   0.296  1.3266  0.9061 -0.6991
17121TIP3   OH272853   1.718   3.096   5.009  0.1174 -0.3505  0.8384
17121TIP3    H172854   1.655   3.034   5.045 -0.8407  0.0104 -0.1357
17121TIP3    H272855   1.752   3.143   5.085 -0.3404 -0.9688  1.4379
17122TIP3   OH272856   3.462   0.288   2.254  0.1034  0.2333 -0.7589
17122TIP3    H172857   3.400   0.356   2.280 -0.9705 -0.9913 -0.0186
17122TIP3    H272858   3.517   0.274   2.331 -0.7460 -0.8691 -0.3356
17123TIP3   OH272859   0.727   6.247   0.981 -0.6366  0.3199 -0.1532
17123TIP3    H172860   0.786   6.243   0.906 -0.4211  1.7438 -0.0812
17123TIP3    H272861   0.687   6.334   0.976 -1.1113  0.1862  1.0080
17124TIP3   OH272862   5.662   0.131   5.923  0.2393 -0.3732  0.0436
17124TIP3    H172863   5.652   0.161   5.833  0.7052 -1.3730 -0.3548
17124TIP3    H272864   5.640   0.038   5.920  2.6968 -1.0468  0.4359
17125TIP3   OH272865   6.238   2.589   2.943 -0.2866 -0.1146 -0.5440
17125TIP3    H172866   6.209   2.648   2.873 -0.0291  1.1766  0.4120
17125TIP3    H272867   6.184   2.612   3.018 -1.5223 -2.4377 -0.6563
17126TIP3   OH272868   4.778   1.033   2.166  0.4205  0.0136 -0.3620
17126TIP3    H172869   4.844   0.965   2.158 -0.0050 -0.4733  0.2016
17126TIP3    H272870   4.765   1.043   2.260  0.5111  0.9112 -0.4364
17127TIP3   OH272871   5.672   0.511   2.900 -0.5255 -0.6676  0.4558
17127TIP3    H172872   5.746   0.506   2.961  0.1705  0.8182 -0.2147
17127TIP3    H272873   5.673   0.601   2.869 -0.3656 -1.5203 -2.3247
17128TIP3   OH272874   5.096   2.787   5.997 -0.3368 -0.1890 -0.0184
17128TIP3    H172875   5.121   2.871   5.957  0.6207 -0.3164  0.2695
17128TIP3    H272876   5.012   2.804   6.039  1.0386  1.4430  2.3569
17129TIP3   OH272877   0.060   2.243  15.334  0.0012 -0.0661 -0.0579
17129TIP3    H172878  -0.033   2.226  15.321  0.8502 -3.8126 -2.8100
17129TIP3    H272879   0.094   2.259  15.246  2.0851  0.6409  0.8159
17130TIP3   OH272880   1.344   4.395  15.604  0.6401  0.6234 -0.3489
17130TIP3    H172881   1.314   4.341  15.677 -0.4153  1.7387  0.0810
17130TIP3    H272882   1.404   4.458  15.644 -2.5958  3.5403  0.3367
17131TIP3   OH272883   6.507   1.621  13.408 -0.2197  0.1427  0.2445
17131TIP3    H172884   6.413   1.637  13.418  0.1301  4.4540 -1.2100
17131TIP3    H272885   6.545   1.646  13.492 -0.2142  0.5165  0.1328
17132TIP3   OH272886   0.688   0.802  15.487  0.5795 -0.1217  0.3098
17132TIP3    H172887   0.695   0.803  15.583  0.8393 -0.9117  0.3079
17132TIP3    H272888   0.775   0.831  15.457 -0.5753  3.9270  0.2717
17133TIP3   OH272889   3.872   5.297  16.174 -0.2988  0.7393  0.2058
17133TIP3    H172890   3.883   5.267  16.264  0.1810  0.2897  0.0052
17133TIP3    H272891   3.785   5.264  16.149  0.3835 -0.9273 -0.1477
17134TIP3   OH272892   1.967   2.003   4.294 -0.3155 -0.6462 -0.3957
17134TIP3    H172893   1.944   1.938   4.227  0.4096  0.0518 -1.3456
17134TIP3    H272894   2.032   2.059   4.252  1.5603 -1.2869  1.4933
17135TIP3   OH272895   1.047   0.420   0.192  0.1974  0.1286 -0.1751
17135TIP3    H172896   1.099   0.484   0.241  1.1843  0.0464 -1.0783
17135TIP3    H272897   1.104   0.344   0.184  0.0254  0.1137 -1.3798
17136TIP3   OH272898   0.283   3.111   1.986  0.6023 -0.1524  0.0789
17136TIP3    H172899   0.266   3.018   1.967  2.3400 -0.5076  0.0817
17136TIP3    H272900   0.260   3.156   1.905  1.4179 -0.8334 -0.5645
17137TIP3   OH272901   3.091   1.871   5.310 -0.3625  0.0180  0.0071
17137TIP3    H172902   3.154   1.943   5.310 -0.7952  0.4093  0.3733
17137TIP3    H272903   3.010   1.910   5.276 -0.7413 -0.1531  0.6918
17138TIP3   OH272904   4.982   2.287  16.041 -0.0881 -0.2896 -0.3200
17138TIP3    H172905   5.049   2.312  16.105 -0.8830  0.7970  0.1223
17138TIP3    H272906   5.014   2.323  15.958 -0.9201  1.8461  0.1990
17139TIP3   OH272907   1.757   5.665   3.650  0.2785 -0.4568 -0.0416
17139TIP3    H172908   1.791   5.577   3.664 -0.9889 -0.5736  3.1018
17139TIP3    H272909   1.812   5.721   3.705  0.3687  0.5970 -1.1477
17140TIP3   OH272910   1.071   6.079   0.724  0.0610  0.3867  0.8940
17140TIP3    H172911   1.106   5.991   0.708 -2.6604 -0.6476 -0.1094
17140TIP3    H272912   1.012   6.067   0.799 -0.5819  1.2573  0.5424
17141TIP3   OH272913   3.777   3.253   5.387 -0.9738  0.4633 -0.5593
17141TIP3    H172914   3.852   3.262   5.447 -0.0491 -0.9346 -1.4495
17141TIP3    H272915   3.798   3.311   5.314 -2.0478  2.0797  0.3647
17142TIP3   OH272916   6.296   2.309   5.134 -0.3862  0.4926  0.0924
17142TIP3    H172917   6.347   2.381   5.171 -0.1798  0.1141  0.5668
17142TIP3    H272918   6.342   2.287   5.052  1.4451 -1.1108  1.4254
17143TIP3   OH272919   2.129   6.603  12.863  0.1844 -0.3365 -0.0745
17143TIP3    H172920   2.202   6.665  12.854  1.0366 -0.9510  2.0088
17143TIP3    H272921   2.143   6.563  12.949 -1.9483 -1.3639 -0.1622
17144TIP3   OH272922   5.017   0.514   2.016 -0.0167  0.0545  0.7969
17144TIP3    H172923   4.925   0.527   2.039 -0.2932 -0.9545  0.3009
17144TIP3    H272924   5.060   0.500   2.100  0.0031  2.2382  1.1982
17145TIP3   OH272925   3.790   0.735  11.692  0.2780 -0.0584 -0.1323
17145TIP3    H172926   3.750   0.750  11.606 -0.8122  1.0805  0.5400
17145TIP3    H272927   3.717   0.735  11.754  1.1935  1.1779  1.0235
17146TIP3   OH272928   3.990   6.298   2.866  0.1805 -0.3846  0.6077
17146TIP3    H172929   4.049   6.330   2.934  2.0042  0.1082 -1.1212
17146TIP3    H272930   3.929   6.371   2.852  0.5802  0.0049  0.8516
17147TIP3   OH272931   6.592   0.332  16.488 -0.0388  0.2923 -0.1489
17147TIP3    H172932   6.556   0.253  16.529 -0.6981  0.5934 -0.1241
17147TIP3    H272933   6.534   0.347  16.412  0.9558 -0.0730 -1.0054
17148TIP3   OH272934   3.866   1.881   3.699  0.5818 -0.2366 -0.4879
17148TIP3    H172935   3.952   1.858   3.665  0.5385 -0.0927 -0.6948
17148TIP3    H272936   3.810   1.887   3.622 -0.0737 -2.2153 -0.2202
17149TIP3   OH272937   2.477   6.154   4.638 -0.0090  0.2200  0.3760
17149TIP3    H172938   2.532   6.168   4.715  0.1526  0.2078  0.2649
17149TIP3    H272939   2.484   6.236   4.589 -1.0612  0.6677  0.9625
17150TIP3   OH272940   5.865   3.413  11.465 -0.0379 -0.2194 -0.2532
17150TIP3    H172941   5.902   3.348  11.525  1.7458  0.6207 -0.3852
17150TIP3    H272942   5.853   3.491  11.519  2.0757  0.7135 -1.0143
17151TIP3   OH272943   4.954   5.446  14.998 -0.3912  0.0699  0.1504
17151TIP3    H172944   4.888   5.388  14.960 -0.1762 -0.0782  0.0067
17151TIP3    H272945   5.034   5.394  15.001 -0.9078 -0.7196  2.9374
17152TIP3   OH272946   0.046   5.069   3.960  0.6585 -0.3343 -0.1158
17152TIP3    H172947   0.068   5.007   4.029 -0.2089 -0.5629 -0.0366
17152TIP3    H272948  -0.048   5.086   3.972  0.2600 -1.1583 -1.8570
17153TIP3   OH272949   0.228   2.466   5.274 -0.2173  0.1473 -0.6370
17153TIP3    H172950   0.166   2.393   5.270 -2.5655  1.8240  1.5828
17153TIP3    H272951   0.298   2.436   5.333 -1.0270 -0.4471  0.0408
17154TIP3   OH272952   1.212   5.416  15.719 -0.0133 -0.6680  0.4494
17154TIP3    H172953   1.282   5.350  15.719 -0.5275 -1.2841 -1.5121
17154TIP3    H272954   1.131   5.366  15.709 -0.2977  0.2050 -3.1577
17155TIP3   OH272955   4.842   2.735  16.717 -0.3716 -0.5706 -0.0914
17155TIP3    H172956   4.816   2.702  16.631 -0.7399 -0.7150  0.0718
17155TIP3    H272957   4.883   2.660  16.760  1.7065  0.0366 -0.8892
17156TIP3   OH272958   0.694   6.017  12.253  0.4017  0.1932  0.0984
17156TIP3    H172959   0.622   5.990  12.196 -0.1240  1.3029  0.2079
17156TIP3    H272960   0.652   6.060  12.327  1.1229 -0.3715  0.8545
17157TIP3   OH272961   5.639   1.029  15.919  0.3376  0.2952 -0.4103
17157TIP3    H172962   5.626   0.936  15.935 -0.1272  0.3308 -0.5540
17157TIP3    H272963   5.646   1.037  15.824  1.7929  0.2405 -0.3188
17158TIP3   OH272964   2.620   1.183   2.868 -0.3022 -0.1457  0.6974
17158TIP3    H172965   2.672   1.114   2.910  1.4840  1.1929  0.7839
17158TIP3    H272966   2.609   1.153   2.777 -0.3021 -0.9287  0.9489
17159TIP3   OH272967   1.014   3.615  15.280  0.2494 -0.0798 -0.2572
17159TIP3    H172968   0.942   3.666  15.244  0.6177 -0.3005 -1.3395
17159TIP3    H272969   1.088   3.633  15.221  1.3217  0.8076  1.2989
17160TIP3   OH272970   6.312   3.617   1.061 -0.6121 -0.4106 -0.0481
17160TIP3    H172971   6.220   3.614   1.084 -0.9125  3.1158 -0.2552
17160TIP3    H272972   6.312   3.632   0.966  0.1329  0.3069  0.0565
17161TIP3   OH272973   5.567   6.235   3.942  0.0874  0.4482 -0.1961
17161TIP3    H172974   5.651   6.201   3.974  0.0867 -0.3713 -1.0194
17161TIP3    H272975   5.510   6.158   3.939 -0.6073  0.9412  0.0504
17162TIP3   OH272976   3.289   2.569   3.243  0.4244  0.6515 -0.6330
17162TIP3    H172977   3.201   2.600   3.265  1.4785  2.2822  1.6541
17162TIP3    H272978   3.311   2.506   3.312  0.9814  0.0461 -1.3369
17163TIP3   OH272979   6.537   5.902   0.440  0.1699  0.1559  0.3135
17163TIP3    H172980   6.579   5.916   0.355 -0.9254  2.3067  0.0456
17163TIP3    H272981   6.487   5.821   0.430 -0.3352  0.6414 -1.2754
17164TIP3   OH272982   0.418   2.930  13.877  0.5254 -0.5038  0.7138
17164TIP3    H172983   0.512   2.918  13.883  0.4857 -0.8784  0.5916
17164TIP3    H272984   0.394   2.977  13.957  0.8832  0.0243  0.5121
17165TIP3   OH272985   3.409   1.535   1.329 -0.6237  0.4875 -0.3166
17165TIP3    H172986   3.492   1.568   1.364 -0.5526 -0.1729  0.1438
17165TIP3    H272987   3.422   1.441   1.319 -1.4116  0.3267  0.0392
17166TIP3   OH272988   2.896   5.851   3.829 -0.2014 -0.1731  0.1058
17166TIP3    H172989   2.893   5.946   3.827  1.2799 -0.0881 -1.9368
17166TIP3    H272990   2.978   5.831   3.875 -1.0247 -0.5389  1.4835
17167TIP3   OH272991   1.489   2.231   2.187 -0.2380 -0.5264  0.2388
17167TIP3    H172992   1.462   2.319   2.214  0.0163 -0.2188 -0.4793
17167TIP3    H272993   1.530   2.244   2.101 -2.7211 -1.7185 -1.2258
17168TIP3   OH272994   5.648   2.857   1.494 -0.6436 -0.0611 -0.4729
17168TIP3    H172995   5.636   2.900   1.410 -0.0940  1.9136  0.3840
17168TIP3    H272996   5.664   2.929   1.555 -1.5120 -1.3915  1.4188
17169TIP3   OH272997   0.913   3.702  12.876 -0.2741 -0.2038  0.0947
17169TIP3    H172998   0.962   3.747  12.807  0.8368  0.8906  1.5216
17169TIP3    H272999   0.979   3.647  12.919 -0.2150  1.3691  2.1224
17170TIP3   OH273000   2.542   4.294  14.969 -0.2388 -0.1893 -0.3367
17170TIP3    H173001   2.585   4.236  14.907  0.2366  0.2483 -0.4285
17170TIP3    H273002   2.552   4.250  15.054 -0.8835 -0.7827 -0.5562
17171TIP3   OH273003   2.778   0.244  15.890  0.1082  0.0571 -0.4506
17171TIP3    H173004   2.707   0.245  15.826  0.4014  0.9368 -0.7834
17171TIP3    H273005   2.744   0.293  15.965  0.5563  1.0171 -0.8522
17172TIP3   OH273006   3.373   0.273   3.031 -0.8602  0.6834 -0.7759
17172TIP3    H173007   3.354   0.276   3.125  2.7419 -1.9169  0.2377
17172TIP3    H273008   3.302   0.220   2.994 -1.7994  0.8985  0.6305
17173TIP3   OH273009   4.272   5.355  13.844 -0.2357  0.7778 -0.2870
17173TIP3    H173010   4.334   5.425  13.865 -1.4505  1.8431 -0.1368
17173TIP3    H273011   4.216   5.348  13.921  0.4541 -1.0664  0.1058
17174TIP3   OH273012   4.755   1.572  14.671  0.1686  0.2060 -0.0665
17174TIP3    H173013   4.782   1.483  14.696  0.5328 -0.0612 -1.3721
17174TIP3    H273014   4.812   1.630  14.722  0.3783 -0.3133  0.2942
17175TIP3   OH273015   4.864   5.590   3.255 -0.1296 -0.3694 -0.3751
17175TIP3    H173016   4.939   5.539   3.283 -0.4779 -1.5942 -1.5802
17175TIP3    H273017   4.900   5.656   3.196  0.4300  1.3925  1.8038
17176TIP3   OH273018   5.700   5.173   2.772 -0.4422 -0.7532  0.0560
17176TIP3    H173019   5.733   5.207   2.688  0.5320  1.7429  1.3303
17176TIP3    H273020   5.759   5.101   2.794 -0.4932 -1.2036 -1.2169
17177TIP3   OH273021   5.462   0.056  16.427 -0.0163  0.5361 -0.4378
17177TIP3    H173022   5.510   0.126  16.472 -1.7655  1.4163  0.1234
17177TIP3    H273023   5.497   0.059  16.337  1.2470  0.8760  0.0346
17178TIP3   OH273024   3.853   4.830   5.845  0.2064 -0.4927 -0.2145
17178TIP3    H173025   3.812   4.904   5.802 -0.3295  0.0734  1.2147
17178TIP3    H273026   3.833   4.842   5.938  0.8572 -1.9545  0.1426
17179TIP3   OH273027   4.407   0.016   0.094 -0.1095 -0.7637  0.6776
17179TIP3    H173028   4.466  -0.053   0.066  1.4384  1.2436 -1.3793
17179TIP3    H273029   4.332   0.009   0.034  0.8888  0.3951 -0.7719
17180TIP3   OH273030   5.588   6.272   4.419 -0.3050 -0.5109  0.5702
17180TIP3    H173031   5.622   6.329   4.350 -0.7320  1.7769  2.1325
17180TIP3    H273032   5.628   6.187   4.401  0.4685  0.2675 -1.8124
17181TIP3   OH273033   6.747   4.740   1.206 -0.0758  0.0163  0.5453
17181TIP3    H173034   6.803   4.663   1.211  0.4725  0.4180  0.7255
17181TIP3    H273035   6.698   4.729   1.125  0.9172  0.0891 -0.0787
17182TIP3   OH273036   2.494   4.376   1.231  0.2707 -0.1140 -0.0997
17182TIP3    H173037   2.534   4.368   1.317  0.8407  0.5523 -0.2982
17182TIP3    H273038   2.400   4.370   1.247  0.3859 -0.2920  0.5250
17183TIP3   OH273039   6.359   3.807   2.422  0.2226  0.0640 -0.3637
17183TIP3    H173040   6.272   3.844   2.435 -0.4850 -1.5562 -0.1172
17183TIP3    H273041   6.382   3.830   2.332  0.3358  2.0122  0.1326
17184TIP3   OH273042   1.263   2.535  13.601 -0.5178 -0.7438 -0.0502
17184TIP3    H173043   1.204   2.478  13.649  0.9711 -2.0783  0.2730
17184TIP3    H273044   1.274   2.493  13.516 -1.4943  0.5139 -0.8449
17185TIP3   OH273045   1.927   0.932  14.326 -0.4675 -0.0018  0.4301
17185TIP3    H173046   1.991   0.888  14.381  0.3252  0.1808 -0.3189
17185TIP3    H273047   1.843   0.912  14.366  0.0298 -0.5203  1.2432
17186TIP3   OH273048   2.776   4.939  13.150 -0.0164  0.2638  0.3824
17186TIP3    H173049   2.810   5.028  13.143 -2.2595  1.1015 -0.7313
17186TIP3    H273050   2.823   4.890  13.082  1.8388  0.3311  1.5533
17187TIP3   OH273051   1.421   5.046   4.964 -0.1598 -0.0860 -0.4333
17187TIP3    H173052   1.460   5.023   4.879  0.1767 -0.2119 -0.2462
17187TIP3    H273053   1.480   5.006   5.028  0.4842  1.3674 -0.0904
17188TIP3   OH273054   3.833   2.527   4.738 -0.3937 -0.2620  0.4437
17188TIP3    H173055   3.774   2.597   4.711  0.7526  0.4393 -0.3310
17188TIP3    H273056   3.790   2.446   4.711 -1.8687  0.0968  1.6008
17189TIP3   OH273057   0.403   3.437  13.437  0.3652  0.3020 -0.0673
17189TIP3    H173058   0.409   3.436  13.341 -0.7277  0.5735 -0.1511
17189TIP3    H273059   0.477   3.384  13.466  1.4018  1.1824 -1.0214
17190TIP3   OH273060   2.739   6.257   3.137  0.2005 -0.8057 -0.1662
17190TIP3    H173061   2.725   6.317   3.210  1.2320  0.2150 -0.7791
17190TIP3    H273062   2.654   6.253   3.093  0.0224 -0.0755  0.0974
17191TIP3   OH273063   6.294   2.014  11.063  0.8775 -0.2665  0.5269
17191TIP3    H173064   6.232   2.030  10.992  1.0060 -0.8252  0.2855
17191TIP3    H273065   6.299   1.919  11.070  2.3358 -0.2501  0.0004
17192TIP3   OH273066   5.330   1.894   1.134  0.3465  0.0590  0.1687
17192TIP3    H173067   5.341   1.943   1.052 -1.2133 -0.8875 -0.6736
17192TIP3    H273068   5.252   1.933   1.174  0.9681  0.3626  1.1027
17193TIP3   OH273069   2.342   4.525  14.658 -0.5235 -0.0378 -0.0711
17193TIP3    H173070   2.278   4.525  14.587  1.4395 -0.2294 -1.9540
17193TIP3    H273071   2.337   4.437  14.695 -1.6559  0.0983  0.1327
17194TIP3   OH273072   0.151   1.137   2.354 -0.1476 -0.4418 -0.3949
17194TIP3    H173073   0.152   1.075   2.428 -1.9804 -0.2138 -0.1110
17194TIP3    H273074   0.155   1.081   2.276  1.1189 -0.7238 -0.1494
17195TIP3   OH273075   5.484   6.213  14.495  0.0004  0.4315  0.9434
17195TIP3    H173076   5.401   6.227  14.450 -0.6590  0.2432  2.0660
17195TIP3    H273077   5.535   6.292  14.475  1.1358 -1.0759 -2.9595
17196TIP3   OH273078   3.017   4.760  11.605 -0.6460 -0.1690  0.4138
17196TIP3    H173079   3.066   4.773  11.685  2.0682 -0.5801 -1.0501
17196TIP3    H273080   2.954   4.690  11.626  1.5462 -1.9004  1.6119
17197TIP3   OH273081   0.217   6.799  16.623  0.0100 -0.5863  0.3557
17197TIP3    H173082   0.251   6.888  16.629  1.4538 -1.0208 -0.7665
17197TIP3    H273083   0.269   6.749  16.687  1.0113 -1.1053 -0.8265
17198TIP3   OH273084   6.585   4.066  12.419 -0.1646 -0.2036 -0.6335
17198TIP3    H173085   6.520   3.997  12.424 -0.0751 -0.2007  0.9752
17198TIP3    H273086   6.574   4.103  12.331 -3.0075  0.4601 -0.0916
17199TIP3   OH273087   0.771   3.351  12.324 -0.5488  0.1732  0.5868
17199TIP3    H173088   0.714   3.363  12.248  1.2741 -1.0851 -1.0890
17199TIP3    H273089   0.748   3.264  12.357  1.1806 -0.9461 -0.9328
17200TIP3   OH273090   4.653   1.642   3.321  0.3303  0.1539 -0.1561
17200TIP3    H173091   4.651   1.595   3.238  1.0291 -0.8325  0.3548
17200TIP3    H273092   4.727   1.603   3.368 -1.2261 -0.7149  1.7152
17201TIP3   OH273093   0.650   2.430  16.340  0.3744  0.2832 -0.1893
17201TIP3    H173094   0.621   2.361  16.400 -0.9411 -0.8976 -2.0553
17201TIP3    H273095   0.722   2.390  16.291 -0.7258 -0.0503 -1.6407
17202TIP3   OH273096   4.603   3.527  13.793 -0.1925  0.1580 -0.2565
17202TIP3    H173097   4.525   3.492  13.837 -0.6592  1.5585  0.0865
17202TIP3    H273098   4.647   3.579  13.861  1.0366 -0.5856 -0.4555
17203TIP3   OH273099   0.034   2.795   6.220  0.3636  0.5712  0.0122
17203TIP3    H173100   0.079   2.809   6.304 -1.8947 -0.3856  1.4805
17203TIP3    H273101  -0.031   2.727   6.239 -1.0961  1.2473 -2.2084
17204TIP3   OH273102   0.265   1.546  11.745 -0.3185 -0.2161  0.0532
17204TIP3    H173103   0.292   1.638  11.748  1.2141 -0.6783  1.0931
17204TIP3    H273104   0.200   1.538  11.815 -1.0999  0.2409 -0.5963
17205TIP3   OH273105   5.396   5.015  15.153  0.2475 -0.0612  0.4706
17205TIP3    H173106   5.338   5.024  15.077  1.4312  2.5198 -0.2430
17205TIP3    H273107   5.387   5.097  15.200  0.0675 -1.3417  2.8129
17206TIP3   OH273108   5.616   5.359   3.033  0.0110 -0.4186  0.0501
17206TIP3    H173109   5.707   5.350   3.060  0.7076  1.3616 -1.5352
17206TIP3    H273110   5.566   5.325   3.108  1.9338 -0.3750  1.4331
17207TIP3   OH273111   3.027   4.494  14.430  0.3390  0.0440  0.2877
17207TIP3    H173112   2.989   4.439  14.498 -0.6993  1.1807  0.6744
17207TIP3    H273113   3.040   4.436  14.356 -1.2981 -0.6188  0.4722
17208TIP3   OH273114   3.391   6.136  12.984  0.3788  0.2228  0.2950
17208TIP3    H173115   3.317   6.088  12.946  0.6642  0.8037 -1.0288
17208TIP3    H273116   3.355   6.176  13.063 -0.6022  0.1072 -0.0757
17209TIP3   OH273117   6.628   3.661  14.272 -0.1130  0.4940  0.3043
17209TIP3    H173118   6.698   3.720  14.298 -0.3202  1.4058 -1.1444
17209TIP3    H273119   6.594   3.697  14.190 -1.6223 -0.4771  0.4576
17210TIP3   OH273120   6.165   6.439   2.766  0.5717 -0.2052 -0.3894
17210TIP3    H173121   6.169   6.363   2.709 -1.2374 -0.3993 -0.3165
17210TIP3    H273122   6.178   6.404   2.854  0.6713 -0.2782 -0.4322
17211TIP3   OH273123   4.069   2.220   0.569  0.6847  0.1459 -0.8069
17211TIP3    H173124   4.136   2.160   0.534 -0.1041 -0.2934 -1.6270
17211TIP3    H273125   4.047   2.276   0.494  0.7929  0.8952 -0.2823
17212TIP3   OH273126   3.300   5.709  13.696  0.0006  0.9017 -0.0563
17212TIP3    H173127   3.269   5.673  13.778  2.7124 -1.3078  0.1470
17212TIP3    H273128   3.374   5.765  13.721 -0.5451  2.0474 -0.8794
17213TIP3   OH273129   3.623   0.356   3.176  0.2135 -0.2187 -0.1679
17213TIP3    H173130   3.662   0.283   3.224  0.3716 -0.6413 -0.9215
17213TIP3    H273131   3.565   0.314   3.112 -0.5374  0.3594  0.1225
17214TIP3   OH273132   5.858   0.884  15.660  0.1786 -0.3592  0.2680
17214TIP3    H173133   5.877   0.977  15.651  1.6046 -0.7828 -2.1917
17214TIP3    H273134   5.777   0.872  15.611 -1.3679 -0.1088  2.6123
17215TIP3   OH273135   3.435   5.381   3.313  0.7661 -0.5807  0.3046
17215TIP3    H173136   3.377   5.340   3.377 -0.0979 -1.5055 -1.0211
17215TIP3    H273137   3.520   5.339   3.326  0.6150 -0.7118  0.8716
17216TIP3   OH273138   5.034   2.198   4.359  0.6895  0.3890 -1.2247
17216TIP3    H173139   5.058   2.110   4.388  0.6859  0.5892 -0.5946
17216TIP3    H273140   5.117   2.245   4.350  0.6198  0.8332  0.1476
17217TIP3   OH273141   5.902   1.275   2.520  0.1480 -0.2323  0.0461
17217TIP3    H173142   5.970   1.303   2.458 -0.1978 -1.5118 -0.9717
17217TIP3    H273143   5.947   1.212   2.576  0.3049  0.4653  0.7144
17218TIP3   OH273144   5.191   0.429   3.274  0.4862  0.0019  0.2194
17218TIP3    H173145   5.130   0.448   3.202  0.2470 -1.3601  0.0437
17218TIP3    H273146   5.270   0.397   3.231  0.4373 -0.5685  0.5513
17219TIP3   OH273147   0.295   1.506   1.391 -0.0861 -0.4383 -0.4345
17219TIP3    H173148   0.363   1.519   1.325 -2.1049 -0.0075 -2.5687
17219TIP3    H273149   0.269   1.415   1.382 -0.3741 -0.3770 -0.2419
17220TIP3   OH273150   5.107   3.005   5.769  0.8343  0.2199  0.0919
17220TIP3    H173151   5.199   3.024   5.752  0.7541 -0.3128 -1.0615
17220TIP3    H273152   5.067   3.090   5.784  1.5018  0.4603  0.5312
17221TIP3   OH273153   3.718   3.220   6.332 -0.1110  1.0673  0.0032
17221TIP3    H173154   3.696   3.307   6.365  0.7576  0.8546  1.2309
17221TIP3    H273155   3.697   3.161   6.405 -0.6887  0.2409 -0.8143
17222TIP3   OH273156   3.202   2.680   6.689  0.5300 -0.6211 -0.0867
17222TIP3    H173157   3.127   2.652   6.636 -0.9293 -0.7959  1.9430
17222TIP3    H273158   3.275   2.683   6.627 -1.5507  1.8222 -2.6790
17223TIP3   OH273159   1.462   5.267   5.653 -0.1453 -0.5922 -0.0313
17223TIP3    H173160   1.426   5.295   5.737  1.9612  1.3269  0.3255
17223TIP3    H273161   1.549   5.232   5.674  0.4839  0.0560 -1.3956
17224TIP3   OH273162   4.162   2.649   6.386  0.0702 -0.2307  0.1445
17224TIP3    H173163   4.255   2.646   6.366  0.0293 -3.0612  0.0103
17224TIP3    H273164   4.156   2.623   6.478 -0.6227 -0.8538 -0.0673
17225TIP3   OH273165   0.652   6.597  10.279  0.1631 -1.1063 -0.1897
17225TIP3    H173166   0.612   6.530  10.224 -0.4978 -2.2992  1.6360
17225TIP3    H273167   0.736   6.559  10.306  0.0222 -1.0039  0.4207
17226TIP3   OH273168   0.486   6.271   5.365 -0.1569 -0.3038 -0.2731
17226TIP3    H173169   0.462   6.313   5.283  0.6705  0.7961  0.0312
17226TIP3    H273170   0.415   6.209   5.381  0.0233 -1.0610 -2.1633
17227TIP3   OH273171   1.223   5.692  11.273 -0.4139  0.2363 -0.1377
17227TIP3    H173172   1.265   5.768  11.235  3.0818 -0.8776  1.0547
17227TIP3    H273173   1.210   5.715  11.365  1.1454 -0.6860  0.3530
17228TIP3   OH273174   4.463   3.126  12.513  1.0404  0.5213  0.4629
17228TIP3    H173175   4.408   3.053  12.483  0.1095  1.3361  0.1695
17228TIP3    H273176   4.480   3.107  12.605 -2.0944  1.6591  1.3971
17229TIP3   OH273177   0.498   3.732   2.847  0.2304  0.3032 -0.1382
17229TIP3    H173178   0.460   3.646   2.833 -0.0007  0.2522  0.7251
17229TIP3    H273179   0.424   3.789   2.866  0.4676  0.4749  0.2996
17230TIP3   OH273180   4.729   0.998   3.444  0.2791  0.4219  0.2733
17230TIP3    H173181   4.817   1.036   3.446  0.3735  0.2012  1.3986
17230TIP3    H273182   4.688   1.029   3.525 -0.5495  0.2266 -0.0607
17231TIP3   OH273183   1.690   4.674   2.278  0.0692 -0.2889 -0.1528
17231TIP3    H173184   1.776   4.689   2.240 -0.5391  0.3449 -1.3334
17231TIP3    H273185   1.704   4.606   2.343  1.3068 -0.8455 -0.9624
17232TIP3   OH273186   1.381   4.770  14.715 -0.3600  0.7437 -0.4680
17232TIP3    H173187   1.440   4.813  14.653  1.6037 -0.4038  0.5071
17232TIP3    H273188   1.395   4.816  14.797  0.7441 -0.7597  0.2498
17233TIP3   OH273189   6.704   4.075   1.006  0.5333 -0.0297  0.0438
17233TIP3    H173190   6.636   4.008   1.001  0.7035 -0.0975 -2.5524
17233TIP3    H273191   6.786   4.027   1.006  0.6485  0.1230  1.2914
17234TIP3   OH273192   3.043   1.085  12.396 -0.6666  0.4804 -0.1307
17234TIP3    H173193   2.985   1.061  12.324  0.3523 -0.2124 -0.7417
17234TIP3    H273194   3.059   1.003  12.443  0.6118  0.4561 -0.5725
17235TIP3   OH273195   1.989   3.304   3.293  0.4562  0.1965 -0.2307
17235TIP3    H173196   1.960   3.391   3.266  0.7966  0.3275 -0.1746
17235TIP3    H273197   1.927   3.278   3.360 -0.0198  0.1351 -0.6855
17236TIP3   OH273198   1.143   4.424   2.169 -0.6858  0.4074  0.5675
17236TIP3    H173199   1.206   4.352   2.181 -0.3049  0.8824  1.5322
17236TIP3    H273200   1.197   4.503   2.170 -0.9997  0.6825 -1.3260
17237TIP3   OH273201   5.414   4.550   1.110 -0.1829  0.3272 -0.3106
17237TIP3    H173202   5.346   4.615   1.094  2.3273  2.8865 -1.3611
17237TIP3    H273203   5.388   4.508   1.192 -2.5148  1.8274 -0.1842
17238TIP3   OH273204   2.378   0.120   3.890  0.0692  0.7271  0.3385
17238TIP3    H173205   2.328   0.041   3.910 -0.6318  0.7460 -1.1977
17238TIP3    H273206   2.385   0.120   3.794  2.0508  1.3246  0.4347
17239TIP3   OH273207   6.792   3.733   3.230 -0.2444  0.3063  0.2714
17239TIP3    H173208   6.754   3.726   3.142  0.9991 -1.2817 -0.1773
17239TIP3    H273209   6.762   3.819   3.261  1.2323  2.0365 -2.6536
17240TIP3   OH273210   5.700   3.826  13.471  0.3430 -0.4913  0.1647
17240TIP3    H173211   5.681   3.762  13.404  0.5619 -0.9767  0.5597
17240TIP3    H273212   5.666   3.788  13.552 -1.3122  0.7569  0.1063
17241TIP3   OH273213   1.513   1.644  12.936 -0.3999 -0.0033  0.0966
17241TIP3    H173214   1.603   1.670  12.916 -1.2085  2.2295 -0.9064
17241TIP3    H273215   1.514   1.626  13.030  1.1106 -0.1047  0.0820
17242TIP3   OH273216   4.955   4.341   0.752 -0.1569  0.4768 -0.5064
17242TIP3    H173217   5.023   4.302   0.808 -1.2695  0.2588  0.7581
17242TIP3    H273218   4.895   4.269   0.734 -1.5957  1.2676  0.8464
17243TIP3   OH273219   2.992   3.124  15.924  0.2246  0.6027 -0.0215
17243TIP3    H173220   2.927   3.132  15.854  2.2643  2.7685 -1.8081
17243TIP3    H273221   3.023   3.033  15.918  1.5971  1.1684 -3.1998
17244TIP3   OH273222   1.096   1.193  16.889  0.2214 -0.3593  0.2489
17244TIP3    H173223   1.056   1.128  16.947 -0.0331  0.4927  1.0495
17244TIP3    H273224   1.162   1.144  16.841 -0.6105 -1.4268  0.1385
17245TIP3   OH273225   5.753   3.783  12.092 -0.5159 -0.2815  0.4078
17245TIP3    H173226   5.744   3.852  12.157 -0.3043  2.2417 -2.0570
17245TIP3    H273227   5.664   3.753  12.076 -0.7512  0.3089  0.6013
17246TIP3   OH273228   6.498   5.691  11.422  0.0465 -0.3417  0.1869
17246TIP3    H173229   6.415   5.690  11.471 -0.3366 -0.9684 -0.4618
17246TIP3    H273230   6.498   5.610  11.373  0.6183  0.0997 -0.5639
17247TIP3   OH273231   3.057   0.585   1.958 -0.3776  0.2478  0.4013
17247TIP3    H173232   3.112   0.650   1.915 -1.3299  1.0664  0.3950
17247TIP3    H273233   3.105   0.562   2.037  0.7481 -0.2771 -0.4026
17248TIP3   OH273234   6.853   1.177   0.566 -0.4906 -0.4611  0.4014
17248TIP3    H173235   6.924   1.237   0.543 -1.4717 -0.6505 -3.8953
17248TIP3    H273236   6.774   1.231   0.565 -0.9417 -1.1129  0.3630
17249TIP3   OH273237   4.289   4.767   5.313 -0.6337  0.0261 -0.6670
17249TIP3    H173238   4.233   4.715   5.255 -0.3073  0.0107 -0.9742
17249TIP3    H273239   4.258   4.746   5.401 -1.9330  0.9541 -0.8689
17250TIP3   OH273240   6.477   4.502  12.689  0.1523 -0.4174 -0.1850
17250TIP3    H173241   6.394   4.505  12.737  1.0916 -1.4535  1.6019
17250TIP3    H273242   6.478   4.584  12.640 -2.4512 -0.8984 -1.2409
17251TIP3   OH273243   3.611   5.404   5.230 -0.1533 -0.4856 -0.3514
17251TIP3    H173244   3.527   5.444   5.208 -0.1109  0.1411  0.5493
17251TIP3    H273245   3.589   5.316   5.262 -0.4967 -0.2303  0.1263
17252TIP3   OH273246   5.561   2.659   1.658  0.1520  0.1290  0.4722
17252TIP3    H173247   5.545   2.706   1.741  0.5597  1.5142 -0.2050
17252TIP3    H273248   5.591   2.727   1.598  0.4450 -0.9729 -0.6544
17253TIP3   OH273249   0.400   4.661   2.536  0.0234 -0.1988 -0.2746
17253TIP3    H173250   0.393   4.726   2.605  0.4430 -0.8059  0.3528
17253TIP3    H273251   0.471   4.603   2.565 -0.6628 -1.2068 -0.5857
17254TIP3   OH273252   4.703   6.333  13.476  0.2107  0.0224  0.6133
17254TIP3    H173253   4.704   6.255  13.531 -1.9140  0.6160  1.5938
17254TIP3    H273254   4.776   6.386  13.508  0.1475 -0.4697  1.6170
17255TIP3   OH273255   3.059   2.802  16.146  0.3128  0.2080 -0.1497
17255TIP3    H173256   2.987   2.761  16.098  0.8961 -0.3819 -0.5452
17255TIP3    H273257   3.117   2.729  16.169  1.8697  0.8692 -1.6867
17256TIP3   OH273258   2.790   4.965  13.927  0.4577 -0.3267 -0.3929
17256TIP3    H173259   2.859   4.909  13.892 -0.3285 -1.3685 -0.3267
17256TIP3    H273260   2.804   4.964  14.022  1.0041  0.3525 -0.4635
17257TIP3   OH273261   2.857   4.443   4.321  0.0717  0.4217 -0.4639
17257TIP3    H173262   2.803   4.516   4.351 -2.2769 -0.8663 -1.2917
17257TIP3    H273263   2.805   4.365   4.341  2.0655 -0.9970 -0.4773
17258TIP3   OH273264   6.668   2.129  16.131  0.2152 -0.2410 -0.1372
17258TIP3    H173265   6.702   2.218  16.117  0.1622 -0.2638 -0.4082
17258TIP3    H273266   6.574   2.137  16.118  0.1829 -0.2955  0.0536
17259TIP3   OH273267   5.095   5.429  11.734  0.1269 -0.3452 -0.0987
17259TIP3    H173268   5.117   5.483  11.658 -1.9156  2.0376  0.8459
17259TIP3    H273269   5.088   5.340  11.699  2.6627  0.0495 -1.9384
17260TIP3   OH273270   5.050   3.562   3.963  0.3425 -0.1630  0.1270
17260TIP3    H173271   5.103   3.507   4.021  3.1997  0.6788 -1.4864
17260TIP3    H273272   5.027   3.505   3.890 -1.7993 -0.7414  1.1644
17261TIP3   OH273273   5.478   4.752   2.428 -0.0865 -0.1951 -0.0395
17261TIP3    H173274   5.481   4.728   2.335 -0.7374 -0.0585 -0.1016
17261TIP3    H273275   5.512   4.674   2.473 -0.5051 -0.5693 -0.3510
17262TIP3   OH273276   6.806   6.683   2.575  0.3530 -0.0224 -0.2291
17262TIP3    H173277   6.848   6.630   2.643 -0.2455  0.1280  0.2617
17262TIP3    H273278   6.875   6.695   2.509  0.3639 -1.8113 -0.5990
17263TIP3   OH273279   5.496   0.586   4.645  0.4956 -0.6738  0.6249
17263TIP3    H173280   5.481   0.627   4.730 -1.6323 -0.1775  0.0896
17263TIP3    H273281   5.454   0.646   4.582 -0.7220 -2.5125 -0.4139
17264TIP3   OH273282   0.336   4.966   3.995 -0.3737 -0.3474  0.0766
17264TIP3    H173283   0.338   4.954   3.900 -1.3079 -1.9349  0.2209
17264TIP3    H273284   0.255   4.924   4.024 -0.0381 -0.0372  1.5985
17265TIP3   OH273285   0.478   4.569   1.719 -0.4857  0.0542 -0.1324
17265TIP3    H173286   0.496   4.507   1.790  1.1795  0.4075 -0.2191
17265TIP3    H273287   0.393   4.607   1.742 -0.4891 -0.6315  1.0932
17266TIP3   OH273288   1.771   5.673   2.255 -0.3442 -0.0189 -0.1034
17266TIP3    H173289   1.763   5.741   2.188 -1.5997  0.0961  0.1364
17266TIP3    H273290   1.760   5.720   2.338 -0.1948 -0.3645  0.1135
17267TIP3   OH273291   0.899   5.439   1.438  0.5669 -0.1867 -0.2020
17267TIP3    H173292   0.966   5.398   1.493 -0.6805 -1.4032  0.4968
17267TIP3    H273293   0.825   5.377   1.442 -1.4504  2.1092  0.8972
17268TIP3   OH273294   3.373   4.195  10.306  0.6770 -0.5288  0.4993
17268TIP3    H173295   3.441   4.262  10.306 -0.6454  0.8538  1.5448
17268TIP3    H273296   3.301   4.234  10.257  0.6814 -2.0803 -0.8282
17269TIP3   OH273297   3.660   2.027  15.609 -0.6208  0.3699  0.2790
17269TIP3    H173298   3.709   2.034  15.691  1.0524 -0.1571 -0.6361
17269TIP3    H273299   3.643   2.118  15.584  0.3617  0.5782  0.3513
17270TIP3   OH273300   4.803   2.173  15.582  0.4405  0.5045 -0.0240
17270TIP3    H173301   4.727   2.231  15.584  0.7093  0.8846 -0.5275
17270TIP3    H273302   4.835   2.173  15.672 -0.7277 -0.4495  0.4170
17271TIP3   OH273303   2.549   3.060   1.664  0.2405 -0.4957  0.2574
17271TIP3    H173304   2.628   3.084   1.712 -0.1964 -0.0484  0.7680
17271TIP3    H273305   2.490   3.135   1.675  0.3968 -0.0242 -1.6226
17272TIP3   OH273306   3.168   1.337   1.294  0.2063 -0.2581  0.4892
17272TIP3    H173307   3.186   1.333   1.388  1.0979  0.8802  0.3780
17272TIP3    H273308   3.235   1.282   1.255 -0.5580 -1.2673  0.5368
17273TIP3   OH273309   0.722   2.000  12.238 -0.3249 -0.0338  0.2267
17273TIP3    H173310   0.662   1.946  12.187  0.5415 -2.1609  1.3614
17273TIP3    H273311   0.792   2.023  12.177  0.9170 -2.8884  0.4451
17274TIP3   OH273312   6.086   6.853   2.422 -0.1428  0.0327  0.1064
17274TIP3    H173313   6.142   6.919   2.462 -1.0503  1.1779 -0.4622
17274TIP3    H273314   6.112   6.771   2.464  0.1267  0.9342  1.7863
17275TIP3   OH273315   5.667   5.118  13.237 -0.2135 -0.7027 -0.3242
17275TIP3    H173316   5.582   5.073  13.232 -1.0525  0.8141 -0.4894
17275TIP3    H273317   5.712   5.095  13.156 -0.4240 -1.5803 -0.2036
17276TIP3   OH273318   4.190   6.021  13.224  0.6716  0.9978 -0.2344
17276TIP3    H173319   4.170   6.006  13.131  1.3684 -2.7078  0.0467
17276TIP3    H273320   4.107   6.006  13.269  0.7261  0.9911 -0.1361
17277TIP3   OH273321   1.186   1.240  13.446 -0.4243  0.1662 -0.2493
17277TIP3    H173322   1.199   1.177  13.517 -1.0884  1.1200  0.7618
17277TIP3    H273323   1.094   1.264  13.452 -0.3534  0.6844 -1.0796
17278TIP3   OH273324   6.008   4.306   2.151  0.0083 -0.3185 -0.3523
17278TIP3    H173325   6.046   4.218   2.161 -1.4751 -0.8318  1.2399
17278TIP3    H273326   5.968   4.305   2.064 -1.0719 -1.7097  0.1147
17279TIP3   OH273327   1.140   3.578  14.192 -0.0277  0.8442 -0.2692
17279TIP3    H173328   1.096   3.591  14.108 -0.6740  0.1503 -0.0474
17279TIP3    H273329   1.101   3.644  14.250 -0.3599  0.6154 -0.2297
17280TIP3   OH273330   5.575   6.288  13.552 -0.4898 -0.3149 -0.0999
17280TIP3    H173331   5.554   6.195  13.546  0.6353 -0.5448 -0.8010
17280TIP3    H273332   5.612   6.310  13.466  0.7017  0.4039  0.5629
17281TIP3   OH273333   6.529   6.358   2.562  0.1789  0.6940  0.6384
17281TIP3    H173334   6.582   6.291   2.607  0.0408  0.8466  1.0369
17281TIP3    H273335   6.457   6.310   2.523  0.6506  0.4743  0.0337
17282TIP3   OH273336   6.277   1.459   0.705 -0.2394  0.8148 -0.2454
17282TIP3    H173337   6.221   1.534   0.685  0.7351  1.5694 -0.2497
17282TIP3    H273338   6.304   1.473   0.796  0.4561  0.8098 -0.4468
17283TIP3   OH273339   1.337   4.931   4.430  0.1158  0.6926  0.0112
17283TIP3    H173340   1.308   4.906   4.342  0.5759  0.9141 -0.2050
17283TIP3    H273341   1.314   5.023   4.438  1.0484  0.9626 -0.2909
17284TIP3   OH273342   4.579   5.582   2.194  0.0803 -0.0680 -0.6563
17284TIP3    H173343   4.575   5.671   2.229  1.2927 -0.6213  1.0305
17284TIP3    H273344   4.528   5.585   2.113 -0.9390  1.8464  0.0126
17285TIP3   OH273345   0.169   5.170  17.100  0.3131 -0.2611  0.0953
17285TIP3    H173346   0.081   5.167  17.062  0.8928  2.0709 -1.7251
17285TIP3    H273347   0.210   5.087  17.074 -0.2453  0.1028 -2.1488
17286TIP3   OH273348   2.147   3.937   4.007 -0.2922  0.2193  0.3632
17286TIP3    H173349   2.067   3.885   4.018  0.5716 -1.3327 -0.3438
17286TIP3    H273350   2.189   3.935   4.093 -0.5135  0.1649  0.4693
17287TIP3   OH273351   5.553   5.262  15.665 -0.0622 -0.3928 -1.1219
17287TIP3    H173352   5.578   5.182  15.617 -0.0252 -0.2065 -1.4162
17287TIP3    H273353   5.636   5.296  15.699 -0.1461 -0.7870 -0.5110
17288TIP3   OH273354   4.996   2.732  12.178 -0.0665 -0.1251 -0.1193
17288TIP3    H173355   5.049   2.707  12.103  0.2558 -0.1228  0.1081
17288TIP3    H273356   5.045   2.701  12.254 -1.2259 -1.7425  0.0391
17289TIP3   OH273357   6.072   4.673  13.915 -0.2755  0.3198 -0.0649
17289TIP3    H173358   5.984   4.684  13.878 -0.4397  1.5876  0.6467
17289TIP3    H273359   6.123   4.744  13.875 -0.2550  1.2129  1.4798
17290TIP3   OH273360   0.633   4.375  15.609 -0.0673 -0.0366 -0.0537
17290TIP3    H173361   0.696   4.342  15.545 -0.5693 -2.6356  0.6356
17290TIP3    H273362   0.687   4.410  15.680  0.4982  1.3961 -1.1459
17291TIP3   OH273363   6.545   4.537  16.815  0.7210  0.2345  0.5735
17291TIP3    H173364   6.527   4.467  16.877 -1.0846  0.1348  0.0091
17291TIP3    H273365   6.595   4.495  16.745  1.5013  0.0238  1.2420
17292TIP3   OH273366   4.621   2.576   0.502 -0.0993  0.6252 -0.1684
17292TIP3    H173367   4.650   2.590   0.412 -0.9470  0.9814 -0.3962
17292TIP3    H273368   4.670   2.499   0.531 -1.3085 -0.7966 -1.6619
17293TIP3   OH273369   5.726   0.817   2.847  0.9312 -0.2121 -0.0177
17293TIP3    H173370   5.651   0.864   2.883  0.5740 -0.2993 -0.6370
17293TIP3    H273371   5.784   0.804   2.922  1.4736  2.0193  0.0025
17294TIP3   OH273372   1.071   4.418  17.066 -0.2786 -0.6467  0.1897
17294TIP3    H173373   0.983   4.450  17.048 -0.1763 -0.9243 -0.9083
17294TIP3    H273374   1.061   4.359  17.140 -1.2083 -1.4741 -0.5602
17295TIP3   OH273375   6.140   1.022   0.840 -0.0978 -0.8860  0.2064
17295TIP3    H173376   6.167   0.943   0.794  0.0268 -0.0865 -1.1534
17295TIP3    H273377   6.120   1.085   0.770 -1.0102  0.0145  1.2405
17296TIP3   OH273378   1.964   1.477   3.113  0.3944  0.4275 -0.0703
17296TIP3    H173379   1.934   1.387   3.126  1.4662  0.2216  1.3218
17296TIP3    H273380   2.040   1.470   3.056 -0.3367  0.6184 -1.0911
17297TIP3   OH273381   1.439   1.398  13.422 -0.4529 -0.1091  0.5831
17297TIP3    H173382   1.403   1.465  13.363  1.3706 -1.0162 -1.7495
17297TIP3    H273383   1.375   1.328  13.421 -0.9484  0.3370  0.5518
17298TIP3   OH273384   4.484   4.774   2.103  0.2398 -0.4658 -0.0574
17298TIP3    H173385   4.463   4.682   2.121 -1.2216 -0.2508 -0.4998
17298TIP3    H273386   4.483   4.816   2.190  0.6988 -0.8215  0.1226
17299TIP3   OH273387   3.943   3.432   2.649  0.0464 -0.0976 -0.3448
17299TIP3    H173388   3.976   3.398   2.566  1.5905  0.4219  0.0196
17299TIP3    H273389   4.015   3.421   2.711 -0.8290  0.1592  0.7692
17300TIP3   OH273390   5.864   4.012  10.459  1.1596  0.1290 -0.1545
17300TIP3    H173391   5.884   3.939  10.517  0.9705 -0.1903 -0.4925
17300TIP3    H273392   5.944   4.066  10.461  1.5733 -0.4659 -0.4779
17301TIP3   OH273393   4.054   1.515   1.713  0.2644  0.3271 -0.1292
17301TIP3    H173394   4.001   1.438   1.735  1.9604 -1.4626 -1.8105
17301TIP3    H273395   3.992   1.578   1.678 -0.8718 -1.6077 -1.8677
17302TIP3   OH273396   6.153   4.151   0.694 -0.0066 -0.0306  0.0069
17302TIP3    H173397   6.201   4.172   0.774 -1.1414  3.2557 -0.0011
17302TIP3    H273398   6.061   4.158   0.719 -0.4376 -1.5052 -1.0446
17303TIP3   OH273399   6.380   4.845  16.117 -0.0891  0.1225  0.1553
17303TIP3    H173400   6.463   4.798  16.111 -1.3169 -2.1858 -0.0419
17303TIP3    H273401   6.370   4.887  16.031  1.0444  0.7947  0.3341
17304TIP3   OH273402   3.813   5.282  13.921 -0.2143 -0.5120  0.1608
17304TIP3    H173403   3.857   5.352  13.872  1.1630 -1.7168 -0.3740
17304TIP3    H273404   3.760   5.237  13.855  0.2890 -1.0704  0.1386
17305TIP3   OH273405   2.666   6.670  13.005 -0.1663  0.2236 -0.3443
17305TIP3    H173406   2.648   6.761  12.983  0.7836  0.0343 -2.1597
17305TIP3    H273407   2.711   6.674  13.089  0.6245  1.5272 -0.7980
17306TIP3   OH273408   0.253   0.496   2.460  0.0707 -0.5472 -0.4624
17306TIP3    H173409   0.258   0.571   2.518  0.6472  1.0123 -2.4298
17306TIP3    H273410   0.185   0.440   2.499  0.1696  0.5891  1.4632
17307TIP3   OH273411   4.332   6.591  11.431  0.1625  0.5530 -0.5211
17307TIP3    H173412   4.273   6.666  11.435  0.0697  0.4203  1.1239
17307TIP3    H273413   4.370   6.585  11.518  1.0348 -0.6342 -0.9511
17308TIP3   OH273414   3.874   3.543   2.020 -0.1074 -0.1343  0.5364
17308TIP3    H173415   3.781   3.521   2.018  0.2072 -1.5140 -0.9238
17308TIP3    H273416   3.919   3.458   2.018  1.1853  0.5154  0.8999
17309TIP3   OH273417   2.455   3.753   1.271 -0.4701  0.2314 -0.2311
17309TIP3    H173418   2.387   3.731   1.207  0.6314  0.0414 -1.3666
17309TIP3    H273419   2.503   3.671   1.284  0.4557  0.7103 -0.5602
17310TIP3   OH273420   3.804   3.603   0.407  0.1615 -0.3509 -0.0712
17310TIP3    H173421   3.741   3.538   0.438 -0.0671 -0.4436 -0.7159
17310TIP3    H273422   3.876   3.551   0.372 -0.4214 -0.2932 -1.4256
17311TIP3   OH273423   3.939   2.683   0.309  0.3050  0.1020  0.2885
17311TIP3    H173424   3.929   2.776   0.288  0.5578  0.3850  1.3679
17311TIP3    H273425   4.030   2.674   0.339  0.3236 -0.5191  0.0693
17312TIP3   OH273426   3.779   3.520  15.910  0.2702  0.4447 -0.2658
17312TIP3    H173427   3.724   3.576  15.856 -2.7800  0.3589  2.4418
17312TIP3    H273428   3.722   3.448  15.936  2.6735 -1.4445  0.1635
17313TIP3   OH273429   4.734   3.151  15.606 -0.4325  1.1917  0.3712
17313TIP3    H173430   4.829   3.158  15.613 -0.4170  0.5019  0.9349
17313TIP3    H273431   4.719   3.060  15.579 -1.0148  0.6998  2.2338
17314TIP3   OH273432   5.003   6.096   0.255 -0.0348  0.2984 -0.6205
17314TIP3    H173433   5.021   6.074   0.347  0.7493 -1.6298 -1.1906
17314TIP3    H273434   4.935   6.163   0.260 -0.1085  0.1525  1.3672
17315TIP3   OH273435   2.820   0.146   2.131 -0.5908 -0.9282  0.1377
17315TIP3    H173436   2.841   0.232   2.095  0.1008 -1.5053 -0.8802
17315TIP3    H273437   2.859   0.147   2.219  1.9365 -1.1814 -0.9012
17316TIP3   OH273438   6.423   2.256  13.577  0.4455  0.1521 -0.0654
17316TIP3    H173439   6.358   2.263  13.507  1.4420 -1.7253 -1.2328
17316TIP3    H273440   6.451   2.347  13.592 -1.6691  0.8882 -0.2220
17317TIP3   OH273441   4.528   3.863   5.307 -0.0466  0.2022  0.3413
17317TIP3    H173442   4.535   3.778   5.351  0.7737  0.3854  0.5849
17317TIP3    H273443   4.442   3.861   5.265 -0.8083 -0.0493  1.8117
17318TIP3   OH273444   4.390   6.007   0.738  0.4836 -0.5113 -0.2659
17318TIP3    H173445   4.295   5.998   0.744  0.4706 -0.6450 -0.6015
17318TIP3    H273446   4.422   5.978   0.823  0.3794 -3.1196 -1.0205
17319TIP3   OH273447   4.814   4.832  16.061  0.3852 -0.1151 -0.0827
17319TIP3    H173448   4.779   4.920  16.045 -1.0178 -0.8221 -1.0933
17319TIP3    H273449   4.770   4.803  16.141  2.7648  1.0182  1.7848
17320TIP3   OH273450   6.163   2.991   6.068  0.2118  1.0610 -0.4393
17320TIP3    H173451   6.159   3.048   6.145  1.0666  0.2968  0.1927
17320TIP3    H273452   6.227   2.923   6.091  0.2353  0.6219 -1.6949
17321TIP3   OH273453   5.935   0.969  13.259  0.4459 -0.5957  0.1167
17321TIP3    H173454   5.980   1.029  13.318 -0.4117 -0.7885  1.0059
17321TIP3    H273455   5.985   0.887  13.265  1.3954 -0.1005 -0.8109
17322TIP3   OH273456   3.734   6.319   1.205  0.1681  0.5044  0.1978
17322TIP3    H173457   3.795   6.343   1.136 -0.5607  0.2376 -0.5478
17322TIP3    H273458   3.654   6.293   1.159 -0.7480  1.5074  1.1769
17323TIP3   OH273459   6.828   4.495  14.355 -0.1480  0.1785 -0.7470
17323TIP3    H173460   6.896   4.546  14.399 -0.3253 -0.4955  0.3700
17323TIP3    H273461   6.746   4.541  14.376 -0.3424 -0.6498  0.5065
17324TIP3   OH273462   1.924   6.622   3.084 -0.4674 -0.1570 -0.0350
17324TIP3    H173463   1.889   6.668   3.160  2.8912 -0.4822  1.9061
17324TIP3    H273464   1.960   6.691   3.028  0.3017 -0.1055  0.5104
17325TIP3   OH273465   2.647   6.699   4.700  0.0070 -0.3919  0.8216
17325TIP3    H173466   2.647   6.792   4.723  2.5847 -0.3552  0.8686
17325TIP3    H273467   2.702   6.657   4.765  0.2093 -1.6870 -0.1376
17326TIP3   OH273468   0.839   2.063   0.971  0.2917  0.0729  0.4556
17326TIP3    H173469   0.793   2.146   0.981  0.5599  0.6286 -2.1237
17326TIP3    H273470   0.931   2.084   0.987  0.7869  1.0516 -2.9138
17327TIP3   OH273471   0.194   4.525  14.015 -0.2620 -0.1351  0.2850
17327TIP3    H173472   0.195   4.542  13.920 -0.2290  0.1795  0.3400
17327TIP3    H273473   0.233   4.438  14.024 -1.7839 -0.9008 -0.1391
17328TIP3   OH273474   0.206   2.803  14.248 -0.3815  0.3729 -0.3286
17328TIP3    H173475   0.125   2.793  14.298  1.0215 -1.7769  1.6895
17328TIP3    H273476   0.186   2.768  14.162 -0.5236 -4.9280  1.4783
17329TIP3   OH273477   2.133   6.809   5.799  0.0441 -0.1741  0.0441
17329TIP3    H173478   2.121   6.904   5.794  2.8914  0.3246  0.7973
17329TIP3    H273479   2.097   6.786   5.885 -2.1980 -0.1502 -0.8094
17330TIP3   OH273480   0.739   5.660   4.497 -0.0732 -0.1466 -0.0904
17330TIP3    H173481   0.723   5.569   4.523 -0.0520 -0.3072 -0.6170
17330TIP3    H273482   0.804   5.692   4.559  2.0434 -1.3630 -1.5618
17331TIP3   OH273483   2.993   3.428  16.176 -0.1157 -0.4657 -0.1164
17331TIP3    H173484   3.030   3.402  16.092  0.4976 -1.2562  0.3825
17331TIP3    H273485   3.055   3.493  16.211  0.7863 -1.7164  0.6744
17332TIP3   OH273486   3.697   4.348   2.745 -0.0323  0.1112  0.2797
17332TIP3    H173487   3.744   4.414   2.694 -2.0305  2.6093  1.4576
17332TIP3    H273488   3.733   4.356   2.834 -1.0770  0.4873  0.6875
17333TIP3   OH273489   5.762   5.439  12.796 -0.1274  0.2758  0.1462
17333TIP3    H173490   5.763   5.390  12.714  1.6793  2.3614 -1.2089
17333TIP3    H273491   5.852   5.435  12.827 -0.9181 -1.0139  2.4339
17334TIP3   OH273492   5.101   1.962   5.462  0.4892  0.2101  0.1585
17334TIP3    H173493   5.089   2.049   5.425 -0.9753 -0.4678 -1.0102
17334TIP3    H273494   5.013   1.927   5.473  1.0536 -1.2080  0.4334
17335TIP3   OH273495   6.532   2.717   2.918 -0.1239  0.0962  0.0542
17335TIP3    H173496   6.538   2.774   2.842  0.9972  0.9265  0.7380
17335TIP3    H273497   6.458   2.751   2.968 -0.7711 -0.3631 -0.5747
17336TIP3   OH273498   5.985   3.634   4.437  0.2166 -0.6352 -0.1107
17336TIP3    H173499   6.047   3.676   4.378 -0.3253 -1.3629 -1.2259
17336TIP3    H273500   6.014   3.543   4.442  0.9027 -0.3606  1.6396
17337TIP3   OH273501   3.995   2.394   0.043  0.0997  0.2835  0.2968
17337TIP3    H173502   4.007   2.432  -0.044 -0.6812  1.6729  0.7593
17337TIP3    H273503   4.082   2.362   0.068  0.5442  0.7738 -0.5787
17338TIP3   OH273504   4.022   4.041   1.950 -0.0817  0.3862  0.0416
17338TIP3    H173505   3.929   4.053   1.928 -0.1831  0.6047  0.5516
17338TIP3    H273506   4.041   3.951   1.926 -0.4465  0.3175 -0.0044
17339TIP3   OH273507   2.142   1.413   1.584  0.1060 -0.1124 -0.0691
17339TIP3    H173508   2.110   1.351   1.650  0.0898  0.2713  0.2879
17339TIP3    H273509   2.236   1.422   1.603  0.3508 -0.9137 -0.8505
17340TIP3   OH273510   3.125   3.464   3.131 -0.4045 -0.3537  0.2196
17340TIP3    H173511   3.092   3.542   3.087 -1.7534 -1.9264 -1.7079
17340TIP3    H273512   3.135   3.491   3.223 -1.7072  1.8061 -0.2059
17341TIP3   OH273513   5.058   3.779   1.052 -0.9036 -0.1476  0.1304
17341TIP3    H173514   5.145   3.805   1.021 -0.9124  0.7853  0.8633
17341TIP3    H273515   5.000   3.850   1.025 -0.8371  0.9725  2.6391
17342TIP3   OH273516   5.100   3.332  12.444  0.2818 -0.0675 -0.3923
17342TIP3    H173517   5.131   3.251  12.485 -0.7848 -0.3269 -0.0599
17342TIP3    H273518   5.136   3.329  12.356 -2.5487 -2.6859 -1.6497
17343TIP3   OH273519   3.457   3.005   5.948 -0.1227  0.4524 -0.1238
17343TIP3    H173520   3.544   3.009   5.987  0.6117  0.8710 -1.7085
17343TIP3    H273521   3.399   2.982   6.020  1.5411 -1.6495  0.6499
17344TIP3   OH273522   6.055   1.567  13.238  0.5215  0.3103  0.1880
17344TIP3    H173523   6.096   1.485  13.267  0.4131  0.3078  0.3379
17344TIP3    H273524   5.961   1.550  13.243  0.4786  0.7933  1.2779
17345TIP3   OH273525   2.760   3.962  11.081 -0.1963  0.7771 -1.0541
17345TIP3    H173526   2.814   3.902  11.132  0.9849  2.2285 -0.5360
17345TIP3    H273527   2.789   3.949  10.991 -0.3738  0.1721 -1.0346
17346TIP3   OH273528   0.768   4.768   1.993 -0.0290  0.5572  0.7489
17346TIP3    H173529   0.757   4.857   2.025 -1.8608  0.7600 -0.2878
17346TIP3    H273530   0.828   4.776   1.919  0.7822  0.7151  1.4029
17347TIP3   OH273531   3.308   3.726   3.945  0.0630  0.2175 -0.8703
17347TIP3    H173532   3.268   3.803   3.903  0.4505  1.0897  0.3133
17347TIP3    H273533   3.234   3.673   3.972 -0.2305  0.5873 -0.9341
17348TIP3   OH273534   4.760   1.435  16.324  1.0965 -0.2965  0.2035
17348TIP3    H173535   4.699   1.409  16.393  0.3683  0.4303 -0.1583
17348TIP3    H273536   4.824   1.491  16.369  0.5891  0.2262  0.2848
17349TIP3   OH273537   6.567   1.447   2.941  0.1533 -0.1376  0.2847
17349TIP3    H173538   6.556   1.387   2.867 -1.6406  0.8008 -0.2564
17349TIP3    H273539   6.628   1.513   2.909 -0.8908  0.4632 -0.5088
17350TIP3   OH273540   0.110   1.446   3.990  0.2369  0.2875 -0.2534
17350TIP3    H173541   0.202   1.473   3.991  0.4103 -0.2944 -0.1375
17350TIP3    H273542   0.111   1.359   3.950 -0.4965  1.0807 -2.1138
17351TIP3   OH273543   4.250   2.313  15.585  0.8040  0.1133  0.2785
17351TIP3    H173544   4.270   2.325  15.678  1.0954  0.4439  0.1745
17351TIP3    H273545   4.159   2.285  15.584  0.3304  1.5412  0.5918
17352TIP3   OH273546   4.420   2.495   3.229 -0.0805 -0.4626 -0.4242
17352TIP3    H173547   4.427   2.501   3.133  0.6209  1.0190 -0.3203
17352TIP3    H273548   4.344   2.550   3.250 -0.5260 -1.1769 -0.1595
17353TIP3   OH273549   0.128   4.129   6.111 -0.3663  0.6243  0.0093
17353TIP3    H173550   0.204   4.186   6.095 -0.6063  0.3001 -2.9113
17353TIP3    H273551   0.056   4.189   6.127 -0.1843  1.1193 -0.9078
17354TIP3   OH273552   4.046   3.230   0.109 -0.0601  0.1543 -0.2088
17354TIP3    H173553   4.110   3.236   0.038 -0.0182  0.0108 -0.1839
17354TIP3    H273554   3.961   3.229   0.066 -0.1262  1.8906 -0.1791
17355TIP3   OH273555   1.711   5.552   4.626 -0.1876  0.2462  0.3872
17355TIP3    H173556   1.642   5.618   4.635  0.1661  0.4296  1.9774
17355TIP3    H273557   1.667   5.476   4.589 -1.4498  0.0772  2.1294
17356TIP3   OH273558   4.656   2.171  14.099 -0.0448 -0.4042  0.1096
17356TIP3    H173559   4.570   2.197  14.131 -0.2092 -0.7548 -0.0405
17356TIP3    H273560   4.644   2.081  14.071  0.1980 -0.2391 -0.5428
17357TIP3   OH273561   1.532   0.333  10.468 -0.1068 -0.1218  0.5116
17357TIP3    H173562   1.555   0.425  10.486 -1.3348  0.2827  0.0835
17357TIP3    H273563   1.526   0.328  10.373  0.4709 -0.7893  0.5041
17358TIP3   OH273564   2.265   4.025  16.026 -0.1787 -0.1662 -0.0345
17358TIP3    H173565   2.259   3.967  15.951 -0.7211  1.0089 -0.9425
17358TIP3    H273566   2.248   4.112  15.990 -0.9672  0.3742  1.5292
17359TIP3   OH273567   3.776   3.552   3.633 -0.0438 -0.8610  0.2768
17359TIP3    H173568   3.853   3.608   3.641  1.3514 -2.4472 -1.0696
17359TIP3    H273569   3.706   3.610   3.604  0.7941  0.5268  0.9551
17360TIP3   OH273570   6.308   1.312   6.320 -0.2576  0.1872 -0.1076
17360TIP3    H173571   6.249   1.360   6.379 -0.4108  1.0114 -0.9081
17360TIP3    H273572   6.329   1.232   6.367 -0.4216  0.7981  1.0468
17361TIP3   OH273573   4.207   1.152   1.377 -0.6341  0.5365 -0.4169
17361TIP3    H173574   4.296   1.183   1.398 -1.2033  1.0393  1.4541
17361TIP3    H273575   4.220   1.065   1.340  0.5875  0.2404  0.6506
17362TIP3   OH273576   3.913   5.548   0.390 -0.2122  0.1981 -0.1118
17362TIP3    H173577   3.925   5.621   0.329  1.1244 -0.1217 -0.2574
17362TIP3    H273578   3.904   5.471   0.333  2.2831 -0.2834  0.0548
17363TIP3   OH273579   0.956   6.784  16.812  0.3597 -0.0580 -0.8112
17363TIP3    H173580   0.888   6.830  16.862  0.3267 -0.8505 -0.0876
17363TIP3    H273581   0.987   6.717  16.873  2.1870  0.6492 -0.9256
17364TIP3   OH273582   3.262   0.189   2.679 -0.2296 -0.2936 -0.4911
17364TIP3    H173583   3.232   0.250   2.612 -1.3041  0.8590  0.9441
17364TIP3    H273584   3.261   0.240   2.760  1.7385 -1.4184  0.3114
17365TIP3   OH273585   0.517   5.794   1.470  0.0715 -0.4623 -0.4805
17365TIP3    H173586   0.492   5.770   1.381  0.3737 -0.6258 -0.5215
17365TIP3    H273587   0.565   5.719   1.503  2.7600  0.7872 -1.3091
17366TIP3   OH273588   1.166   0.430   5.603 -0.6564 -0.0148 -0.2400
17366TIP3    H173589   1.105   0.367   5.642 -0.8282  0.9530  1.1440
17366TIP3    H273590   1.250   0.386   5.604 -0.4413  0.3214  2.2783
17367TIP3   OH273591   2.414   4.583  11.590  0.2839  0.0190 -0.4330
17367TIP3    H173592   2.483   4.518  11.576 -0.4404 -0.6243 -1.1219
17367TIP3    H273593   2.429   4.616  11.678  0.9858 -0.6964 -0.2762
17368TIP3   OH273594   6.519   5.945   1.518  0.1327  0.1294 -0.2812
17368TIP3    H173595   6.607   5.913   1.539 -0.3841 -0.6709  0.7593
17368TIP3    H273596   6.503   5.916   1.429  0.5188 -0.6444 -0.1028
17369TIP3   OH273597   0.015   0.468  12.410  0.8726  0.2068  0.0926
17369TIP3    H173598  -0.056   0.422  12.452 -1.2006  1.8150 -1.4168
17369TIP3    H273599   0.038   0.539  12.471 -0.3181  0.9528 -0.2966
17370TIP3   OH273600   0.235   3.848  16.291 -0.2138 -0.7814  0.0449
17370TIP3    H173601   0.182   3.922  16.261 -1.0032 -1.0969  0.6164
17370TIP3    H273602   0.171   3.778  16.306  0.4294 -1.3181  0.3016
17371TIP3   OH273603   2.423   4.869   4.890  0.5019  0.0523 -0.1762
17371TIP3    H173604   2.384   4.839   4.972  0.7489  0.2787  0.0293
17371TIP3    H273605   2.514   4.888   4.913  0.1660  1.7082 -0.0950
17372TIP3   OH273606   4.498   0.674   3.943 -0.6764 -0.0661 -0.2973
17372TIP3    H173607   4.410   0.645   3.919 -0.4141  0.2666 -1.7949
17372TIP3    H273608   4.556   0.621   3.889  0.1767 -1.3967  1.8001
17373TIP3   OH273609   5.603   0.669   2.006  0.3566  0.2584  0.0284
17373TIP3    H173610   5.681   0.619   1.984 -0.3611 -0.6393 -0.5379
17373TIP3    H273611   5.572   0.631   2.088 -0.6638 -0.8268 -0.8325
17374TIP3   OH273612   3.300   6.328  13.963 -0.0595 -0.3720  0.1235
17374TIP3    H173613   3.295   6.353  14.056 -0.8789 -0.0989  0.0185
17374TIP3    H273614   3.286   6.234  13.963 -1.4798 -0.1845  0.1824
17375TIP3   OH273615   6.533   1.890  15.159 -0.1141 -0.0094 -0.5015
17375TIP3    H173616   6.457   1.937  15.124 -0.2456  1.9843  2.1302
17375TIP3    H273617   6.504   1.857  15.244  1.9524  0.9612  0.6583
17376TIP3   OH273618   6.834   2.623   5.449 -0.0135 -0.4032 -0.0076
17376TIP3    H173619   6.757   2.568   5.433 -0.8679  0.6037  0.4965
17376TIP3    H273620   6.811   2.674   5.527  0.8174  0.5345 -0.3592
17377TIP3   OH273621   3.924   3.722   0.119  0.1791  0.0289  0.0769
17377TIP3    H173622   3.869   3.648   0.145  0.7283 -0.9873 -1.4741
17377TIP3    H273623   3.990   3.728   0.188 -0.2639 -0.5158  0.5525
17378TIP3   OH273624   3.724   5.951  16.871 -0.0550 -0.3191 -0.1992
17378TIP3    H173625   3.631   5.958  16.890  0.2112  2.7350  0.4307
17378TIP3    H273626   3.729   5.948  16.775 -0.7684  0.0357 -0.2498
17379TIP3   OH273627   4.317   2.460   3.955  0.1731  0.1702 -0.5872
17379TIP3    H173628   4.374   2.406   3.901 -0.2323 -0.0725 -0.7716
17379TIP3    H273629   4.359   2.546   3.954  0.2095  0.1495 -1.2259
17380TIP3   OH273630   6.105   1.593  13.933  0.1654  0.5225  0.3745
17380TIP3    H173631   6.150   1.676  13.948 -1.1088  1.0223  1.6252
17380TIP3    H273632   6.119   1.543  14.014 -0.3044  0.0950  0.1949
17381TIP3   OH273633   5.689   1.554  16.334 -0.0407 -0.3358  0.7689
17381TIP3    H173634   5.645   1.604  16.265  0.8300 -2.3765 -1.4359
17381TIP3    H273635   5.618   1.517  16.386 -1.0039 -1.8120 -1.4169
17382TIP3   OH273636   2.793   3.726   1.993  0.0820  0.0007  0.4525
17382TIP3    H173637   2.837   3.644   2.011  0.9796  0.7328  1.7949
17382TIP3    H273638   2.784   3.729   1.898 -0.3045 -1.7871  0.4028
17383TIP3   OH273639   5.966   3.501  15.693 -0.3590  0.4600  0.1471
17383TIP3    H173640   5.918   3.553  15.758 -2.7817 -1.1200 -0.2635
17383TIP3    H273641   5.941   3.539  15.609 -0.6284 -0.1668 -0.0582
17384TIP3   OH273642   5.757   5.728  16.572  0.0583  0.5712 -0.0905
17384TIP3    H173643   5.799   5.805  16.533 -0.3148  0.3573 -0.9273
17384TIP3    H273644   5.813   5.655  16.547  1.1451  0.6961  1.8027
17385TIP3   OH273645   6.121   4.314  16.755 -0.1339  0.2651  0.3058
17385TIP3    H173646   6.105   4.406  16.771 -0.2892  0.5138 -1.0928
17385TIP3    H273647   6.217   4.306  16.752 -0.0911  0.8969 -1.9740
17386TIP3   OH273648   5.682   0.497  16.153 -0.2092  0.4773 -0.1838
17386TIP3    H173649   5.707   0.494  16.061  0.2217 -2.0802 -0.0582
17386TIP3    H273650   5.604   0.442  16.158 -0.9245  1.5226  0.8327
17387TIP3   OH273651   1.915   3.537   5.673  0.2445 -0.8065  0.2102
17387TIP3    H173652   1.892   3.542   5.765  1.3730 -0.9551  0.5210
17387TIP3    H273653   1.996   3.588   5.666 -0.1870 -0.2447 -0.8232
17388TIP3   OH273654   3.687   0.052   4.183 -0.0168 -0.3422  0.6588
17388TIP3    H173655   3.734   0.015   4.258  1.7069 -0.6177 -0.5088
17388TIP3    H273656   3.750   0.111   4.142 -0.4119 -1.2153 -1.3436
17389TIP3   OH273657   3.326   4.452  10.508  0.0472 -0.3458  0.8686
17389TIP3    H173658   3.334   4.358  10.519 -1.2405 -0.9848 -2.5740
17389TIP3    H273659   3.341   4.467  10.415 -1.7378  2.5857  0.9210
17390TIP3   OH273660   4.892   3.889   1.454  0.3764  0.0835 -0.2726
17390TIP3    H173661   4.837   3.941   1.512  0.4688 -1.2590  1.0708
17390TIP3    H273662   4.963   3.858   1.509  2.1768  1.2311 -1.8301
17391TIP3   OH273663   4.167   5.829   4.124 -0.2263 -0.0062 -0.4154
17391TIP3    H173664   4.196   5.738   4.115  1.2319  0.2683  0.9758
17391TIP3    H273665   4.108   5.843   4.050 -2.8001 -2.9190  0.8787
17392TIP3   OH273666   5.095   2.636  10.984  0.2478  0.5671  0.1197
17392TIP3    H173667   5.095   2.702  10.916  0.4292 -0.5507 -1.0015
17392TIP3    H273668   5.020   2.579  10.963 -0.9756  1.3535  2.0460
17393TIP3   OH273669   1.325   3.858  11.342  0.3774 -0.0154  0.2434
17393TIP3    H173670   1.300   3.951  11.346  0.2240 -0.0704  0.7124
17393TIP3    H273671   1.375   3.844  11.423  2.5602  0.2676 -0.9706
17394TIP3   OH273672   5.378   6.022   2.550  1.4093 -0.0460 -0.8497
17394TIP3    H173673   5.447   5.957   2.566  0.4383 -0.8513  0.2586
17394TIP3    H273674   5.296   5.974   2.563  0.6183  1.8386  2.2760
17395TIP3   OH273675   6.555   5.944  14.906  0.3206  0.8883  0.5254
17395TIP3    H173676   6.641   5.933  14.947 -0.2630  1.5702  1.9705
17395TIP3    H273677   6.502   5.875  14.944  0.2489  0.3559 -0.5017
17396TIP3   OH273678   2.385   0.690  11.373 -0.2467  0.9009  0.2837
17396TIP3    H173679   2.449   0.676  11.303  0.0278 -0.6371  0.8226
17396TIP3    H273680   2.345   0.604  11.387 -1.2696  1.4827  1.1040
17397TIP3   OH273681   5.979   0.876   3.798 -0.7373 -0.5364  0.1114
17397TIP3    H173682   5.939   0.815   3.859  1.0875 -0.3831  1.5553
17397TIP3    H273683   5.930   0.958   3.811 -1.1470 -0.8372  0.4924
17398TIP3   OH273684   5.847   2.310   1.305  0.2927  0.4321  0.0639
17398TIP3    H173685   5.792   2.359   1.366 -1.6884 -0.0680 -1.2050
17398TIP3    H273686   5.809   2.329   1.219  1.5652 -0.6830 -0.7811
17399TIP3   OH273687   3.132   0.481  14.657  0.0847  0.5288  0.4138
17399TIP3    H173688   3.133   0.502  14.750  0.1772  2.0589  0.0857
17399TIP3    H273689   3.224   0.474  14.633  0.0575 -0.4061  0.5319
17400TIP3   OH273690   2.931   4.084  14.361 -0.2614  0.3004 -0.1037
17400TIP3    H173691   2.843   4.094  14.396  0.0047  1.2905  0.3144
17400TIP3    H273692   2.979   4.039  14.431 -0.1924  0.6282  0.0602
17401TIP3   OH273693   0.911   4.073  10.976  0.4799  0.1530 -0.0590
17401TIP3    H173694   0.862   4.024  10.911  0.8584  2.3008 -2.0623
17401TIP3    H273695   1.001   4.075  10.942  0.8669  0.6285  0.9493
17402TIP3   OH273696   2.644   6.595   0.808 -0.0085 -0.1672 -0.4320
17402TIP3    H173697   2.551   6.609   0.788 -0.0474 -1.1079 -0.9691
17402TIP3    H273698   2.669   6.672   0.859 -0.5677  1.1390 -2.0070
17403TIP3   OH273699   1.357   0.583  16.573 -0.1075  0.4749  0.1933
17403TIP3    H173700   1.339   0.511  16.513  0.2577 -1.1718  1.9558
17403TIP3    H273701   1.337   0.547  16.660 -5.1267  4.0502  0.9571
17404TIP3   OH273702   0.404   5.485   5.316 -0.4649 -0.1636  0.1697
17404TIP3    H173703   0.496   5.457   5.313 -0.2878 -0.2692  3.1029
17404TIP3    H273704   0.407   5.577   5.292  0.5724  0.0246  0.9050
17405TIP3   OH273705   0.375   5.229  10.827  0.7164  0.6964  0.2594
17405TIP3    H173706   0.361   5.163  10.894  1.9465 -0.3043 -0.4091
17405TIP3    H273707   0.468   5.252  10.835  0.8593  0.6345 -1.0050
17406TIP3   OH273708   1.516   2.269   4.673  0.6747  0.0679  0.1032
17406TIP3    H173709   1.483   2.182   4.696  1.0823 -0.3041 -0.6803
17406TIP3    H273710   1.450   2.304   4.614  0.8128  0.0406 -0.0670
17407TIP3   OH273711   1.058   3.720   2.689 -0.0325 -0.2511 -0.1619
17407TIP3    H173712   1.070   3.713   2.595  1.0002 -0.3695 -0.0258
17407TIP3    H273713   1.135   3.678   2.727  0.0502  0.6618  0.7286
17408TIP3   OH273714   5.570   5.400  12.158  0.0840  0.5424 -0.2485
17408TIP3    H173715   5.566   5.353  12.075 -1.6506  1.0211 -0.4841
17408TIP3    H273716   5.486   5.381  12.200  0.0645  1.9922  0.4410
17409TIP3   OH273717   4.620   3.543  17.110 -1.0178  0.0048  0.1146
17409TIP3    H173718   4.586   3.477  17.050 -2.3086  1.4365 -0.8136
17409TIP3    H273719   4.715   3.533  17.105 -1.1802 -1.7575  0.0161
17410TIP3   OH273720   6.489   5.513  13.067  0.4637  0.8517  0.3021
17410TIP3    H173721   6.437   5.517  12.987 -0.9381 -1.0520  1.0476
17410TIP3    H273722   6.485   5.421  13.094  0.5577  1.4952  2.7745
17411TIP3   OH273723   0.314   4.786   5.208  0.0604  0.3277  0.0280
17411TIP3    H173724   0.224   4.807   5.184  0.0695  0.0928 -0.2085
17411TIP3    H273725   0.365   4.808   5.130  0.0372 -0.8503 -0.3338
17412TIP3   OH273726   2.081   6.064  14.305  0.2763  0.2984  0.2398
17412TIP3    H173727   1.990   6.090  14.316  0.3405  0.0083  1.6601
17412TIP3    H273728   2.086   5.977  14.345  0.9362 -0.1946 -0.8647
17413TIP3   OH273729   5.260   3.931  15.052 -0.4508 -0.1199 -0.4359
17413TIP3    H173730   5.246   4.026  15.051  1.0773  0.1624  0.8232
17413TIP3    H273731   5.355   3.920  15.052 -0.5989 -1.6651 -0.6825
17414TIP3   OH273732   5.553   5.210   5.676 -0.3247  0.0559 -0.1884
17414TIP3    H173733   5.573   5.246   5.590 -1.5065  0.6744 -0.2291
17414TIP3    H273734   5.582   5.119   5.672 -1.4259 -0.2602 -1.6580
17415TIP3   OH273735   3.641   6.288  14.133 -0.5848  0.3328  0.7340
17415TIP3    H173736   3.579   6.281  14.206 -1.3449 -3.3022 -0.0327
17415TIP3    H273737   3.720   6.242  14.165  0.7737  2.5429  0.7359
17416TIP3   OH273738   5.544   5.544   0.159  0.2217 -0.1011  0.3733
17416TIP3    H173739   5.540   5.519   0.252 -1.9994  1.3841  0.7587
17416TIP3    H273740   5.457   5.524   0.125  0.4550  0.9975 -0.9379
17417TIP3   OH273741   2.913   3.574   1.047  0.2698 -0.0169  0.4980
17417TIP3    H173742   2.840   3.618   1.003 -0.8257 -1.0598  1.1915
17417TIP3    H273743   2.991   3.603   1.000 -0.6416  0.7147 -0.6092
17418TIP3   OH273744   5.541   4.037  13.557 -0.3402 -0.0331  0.0737
17418TIP3    H173745   5.474   3.973  13.535 -0.5808  0.7106 -1.5447
17418TIP3    H273746   5.624   3.997  13.531 -0.4569  0.1502 -0.6054
17419TIP3   OH273747   6.653   1.698   4.490  0.2693  0.2839  0.0493
17419TIP3    H173748   6.561   1.682   4.508  0.1804 -1.7602 -1.7256
17419TIP3    H273749   6.653   1.757   4.415  0.4615  1.2484  0.7880
17420TIP3   OH273750   2.989   0.894   5.803  0.7959  0.5585 -0.1050
17420TIP3    H173751   3.028   0.835   5.738  0.4744 -0.0896  0.2760
17420TIP3    H273752   3.062   0.917   5.860  0.9530  0.6429 -0.3365
17421TIP3   OH273753   5.277   6.534   3.566 -0.0267 -0.4482  0.0724
17421TIP3    H173754   5.282   6.479   3.644  0.6601 -0.5426 -0.0337
17421TIP3    H273755   5.227   6.482   3.503  2.5531 -1.9679 -0.8329
17422TIP3   OH273756   4.089   1.490   3.263  0.4965  0.0405 -0.3835
17422TIP3    H173757   4.099   1.494   3.358 -0.3119  0.9456 -0.3259
17422TIP3    H273758   4.081   1.581   3.235 -0.9806 -0.2887 -1.1175
17423TIP3   OH273759   6.168   4.883   0.905 -0.1020 -0.0946 -0.3843
17423TIP3    H173760   6.112   4.871   0.828 -0.9569  1.0974  0.0233
17423TIP3    H273761   6.172   4.796   0.945 -1.3998 -0.2823 -0.6228
17424TIP3   OH273762   6.088   5.671  12.878  0.1524 -0.3789 -0.4504
17424TIP3    H173763   6.050   5.754  12.908  0.1398 -0.4440 -0.2823
17424TIP3    H273764   6.021   5.633  12.821 -0.1894 -0.6623  0.1312
17425TIP3   OH273765   3.839   1.664   1.633  0.4848  0.2290 -0.7651
17425TIP3    H173766   3.781   1.590   1.617  2.1557 -1.0859 -1.0605
17425TIP3    H273767   3.783   1.732   1.670 -0.6343 -2.2622  2.5740
17426TIP3   OH273768   1.669   1.841   4.556 -0.0348  0.0462  0.2274
17426TIP3    H173769   1.600   1.905   4.538 -0.0659 -0.2956 -0.9700
17426TIP3    H273770   1.627   1.775   4.612  0.0171  1.0827  1.5368
17427TIP3   OH273771   6.006   2.285  15.660 -0.8745 -0.5261  0.0344
17427TIP3    H173772   5.963   2.231  15.726 -1.5010  0.6875  0.6466
17427TIP3    H273773   5.943   2.355  15.641  0.2182  0.4467 -0.1487
17428TIP3   OH273774   0.875   0.062  10.180  0.3798  0.5183  0.0642
17428TIP3    H173775   0.789   0.058  10.137  0.2202  1.1226  0.3078
17428TIP3    H273776   0.858   0.033  10.270  0.5094  0.2530  0.0029
17429TIP3   OH273777   1.841   5.428  10.768 -0.2016  0.7283 -0.4246
17429TIP3    H173778   1.777   5.398  10.703  1.6234  1.1434 -2.5098
17429TIP3    H273779   1.877   5.509  10.731  0.7557  1.0933  1.2213
17430TIP3   OH273780   0.210   6.528   5.301  0.3357  0.3558  0.2978
17430TIP3    H173781   0.288   6.578   5.322  0.1213  1.5778 -1.5780
17430TIP3    H273782   0.231   6.483   5.219  0.0919 -1.7653  1.3145
17431TIP3   OH273783   3.001   0.340   5.385 -0.2417  0.5695 -0.3800
17431TIP3    H173784   2.949   0.269   5.347  0.4848 -0.6175  0.7656
17431TIP3    H273785   2.937   0.400   5.422 -0.8447  0.1004 -0.6516
17432TIP3   OH273786   4.257   6.066   1.290  0.0041 -0.1198 -0.0955
17432TIP3    H173787   4.234   6.012   1.365 -0.2887 -1.7807 -1.3223
17432TIP3    H273788   4.329   6.121   1.321  0.3769 -1.2683  1.1807
17433TIP3   OH273789   2.963   5.618   3.152  0.3286 -0.5140 -0.0787
17433TIP3    H173790   2.957   5.618   3.056  2.7347 -0.5826 -0.2752
17433TIP3    H273791   3.030   5.683   3.172  0.2845 -0.9296  1.5417
17434TIP3   OH273792   0.482   4.413  13.120 -0.1605  0.0285 -0.3273
17434TIP3    H173793   0.471   4.322  13.147  2.4409 -0.3981 -0.4296
17434TIP3    H273794   0.571   4.417  13.086 -0.5651  2.3995 -1.3221
17435TIP3   OH273795   2.102   1.856  12.863  0.1558  0.1552 -0.4591
17435TIP3    H173796   2.172   1.917  12.837  0.0018  0.3557 -0.4066
17435TIP3    H273797   2.139   1.769  12.848 -0.3112  0.2528 -2.3612
17436TIP3   OH273798   3.638   1.515  12.437  0.4040 -0.1665  0.5864
17436TIP3    H173799   3.627   1.610  12.439  1.0866 -0.0361 -0.8279
17436TIP3    H273800   3.691   1.496  12.514  3.2199  1.0721 -0.8734
17437TIP3   OH273801   3.488   2.556  15.746 -0.2384 -0.6045  0.3889
17437TIP3    H173802   3.540   2.627  15.784  0.9256 -1.0931 -0.2269
17437TIP3    H273803   3.543   2.478  15.756  0.4228 -0.6901 -2.7632
17438TIP3   OH273804   0.133   4.031   3.900  0.2789  0.4238  0.1239
17438TIP3    H173805   0.161   4.071   3.818 -1.6741  1.2303 -0.2129
17438TIP3    H273806   0.184   4.075   3.967 -1.0674  2.8312 -0.3264
17439TIP3   OH273807   0.424   6.837   5.697 -1.0835  0.4251 -0.5600
17439TIP3    H173808   0.337   6.854   5.661 -2.8188 -0.8427  2.6621
17439TIP3    H273809   0.419   6.864   5.788  2.5064  1.8356 -0.6104
17440TIP3   OH273810   2.187   6.333   1.098 -0.0972  0.0920 -0.1732
17440TIP3    H173811   2.277   6.357   1.079 -0.4679  0.2622 -1.9263
17440TIP3    H273812   2.151   6.409   1.145  0.8546 -0.3084  1.2656
17441TIP3   OH273813   5.113   5.202   1.661  0.1023  0.3201 -0.3717
17441TIP3    H173814   5.196   5.158   1.646 -0.1615 -0.6054  0.7709
17441TIP3    H273815   5.069   5.149   1.727 -1.6704  0.4306 -1.3981
17442TIP3   OH273816   4.846   0.425   1.439 -0.4945  0.3921 -0.1619
17442TIP3    H173817   4.765   0.467   1.410  1.0501  4.4972  0.8238
17442TIP3    H273818   4.836   0.416   1.533  0.1615  0.7904 -0.0547
17443TIP3   OH273819   5.637   5.499  16.246  0.5253 -0.2007 -0.1466
17443TIP3    H173820   5.568   5.564  16.260 -0.6747 -0.6946 -3.0091
17443TIP3    H273821   5.600   5.418  16.283 -0.8843 -0.6444 -2.3513
17444TIP3   OH273822   0.204   5.336  14.150 -0.1500  0.6420  0.4987
17444TIP3    H173823   0.186   5.306  14.239 -2.1328 -2.0286 -0.6846
17444TIP3    H273824   0.129   5.391  14.127  0.5819  1.7131  0.5816
17445TIP3   OH273825   2.933   4.751  14.465 -0.4322 -0.1779  0.2044
17445TIP3    H173826   2.876   4.727  14.538 -0.8399  0.0401 -0.0357
17445TIP3    H273827   2.964   4.668  14.430 -0.6470 -0.2996  0.3036
17446TIP3   OH273828   2.783   0.939   2.491  0.4125  0.3528  0.2540
17446TIP3    H173829   2.729   0.861   2.479  0.2318  0.7717 -2.0497
17446TIP3    H273830   2.847   0.914   2.557  0.4868 -1.8314 -0.5742
17447TIP3   OH273831   6.166   0.089   3.140 -0.1742  0.1989 -0.1035
17447TIP3    H173832   6.118   0.069   3.060 -0.1229  0.8293 -0.2948
17447TIP3    H273833   6.246   0.038   3.134  0.1078  0.7074 -0.7409
17448TIP3   OH273834   1.182   4.821  15.304 -0.2271 -0.0241  0.3671
17448TIP3    H173835   1.204   4.728  15.311  1.9047  0.4424  0.4784
17448TIP3    H273836   1.184   4.840  15.211 -2.7934 -0.4876  0.1275
17449TIP3   OH273837   4.056   0.905  12.443  0.1613  0.0851  0.3580
17449TIP3    H173838   4.136   0.933  12.487  0.7548 -1.3898  0.2425
17449TIP3    H273839   3.988   0.962  12.479  0.5690 -1.1220  3.3060
17450TIP3   OH273840   5.361   3.465   1.251  0.1900 -0.3691 -0.5372
17450TIP3    H173841   5.278   3.491   1.291 -1.1115 -1.2915 -2.5439
17450TIP3    H273842   5.365   3.513   1.169  0.4911 -2.1134 -1.5842
17451TIP3   OH273843   1.245   3.166  12.193  0.3147  0.3454 -0.3622
17451TIP3    H173844   1.225   3.235  12.256 -0.7815  1.3427 -1.7577
17451TIP3    H273845   1.303   3.208  12.129 -0.3669 -0.0078 -1.2249
17452TIP3   OH273846   4.555   6.010   2.598 -0.4936 -0.3452 -0.1293
17452TIP3    H173847   4.511   6.092   2.620  1.4337  1.0707 -1.1413
17452TIP3    H273848   4.611   5.991   2.674  1.5552  1.1874 -1.1498
17453TIP3   OH273849   2.064   0.638  13.891 -0.2073 -1.0289 -0.1502
17453TIP3    H173850   2.028   0.706  13.948 -0.0020 -0.8687 -0.2063
17453TIP3    H273851   1.992   0.615  13.833 -0.3603 -1.0551  0.0486
17454TIP3   OH273852   2.916   1.482   1.270 -0.1603 -0.4502  0.0711
17454TIP3    H173853   2.957   1.544   1.330  0.0414  0.1261 -0.6454
17454TIP3    H273854   2.975   1.407   1.269  1.2252  0.5876 -1.3648
17455TIP3   OH273855   2.107   1.652  12.655 -0.2566  0.4141 -0.5242
17455TIP3    H173856   2.090   1.746  12.663 -0.4896  0.3831 -0.6639
17455TIP3    H273857   2.170   1.645  12.583  0.3554  0.5275 -0.0146
17456TIP3   OH273858   0.407   0.290   1.856  0.3129 -0.1032  0.5683
17456TIP3    H173859   0.491   0.249   1.877  0.4298 -1.1851 -1.7779
17456TIP3    H273860   0.350   0.267   1.930  1.9598  0.4874  2.1187
17457TIP3   OH273861   4.195   3.394   5.835  0.4077 -0.2598 -0.5459
17457TIP3    H173862   4.195   3.312   5.784 -0.5568  0.0768 -1.1195
17457TIP3    H273863   4.143   3.373   5.913 -0.6363  0.0451 -1.1365
17458TIP3   OH273864   4.318   3.852  15.352 -0.3277  0.0204  0.3901
17458TIP3    H173865   4.410   3.878  15.339 -0.0729 -0.7453  0.5896
17458TIP3    H273866   4.269   3.934  15.344  0.2979  0.3351 -0.4425
17459TIP3   OH273867   3.406   2.785  14.592  0.3236  0.4128  1.0271
17459TIP3    H173868   3.366   2.771  14.506  0.1010 -4.2187  1.6533
17459TIP3    H273869   3.345   2.845  14.637 -1.3662  0.2204 -0.8659
17460TIP3   OH273870   6.734   2.060  12.290 -0.0463  0.3178  0.1096
17460TIP3    H173871   6.781   2.070  12.373  1.3004  0.0185 -0.5991
17460TIP3    H273872   6.713   1.967  12.285  0.2433  0.2594 -0.0676
17461TIP3   OH273873   2.095   3.564   0.937 -0.4742 -0.2210 -0.1783
17461TIP3    H173874   2.157   3.519   0.881 -0.1593  0.3434 -0.2912
17461TIP3    H273875   2.018   3.507   0.939 -0.8877  0.2159 -2.0009
17462TIP3   OH273876   0.389   4.342  10.837 -0.2389  0.7599 -0.0605
17462TIP3    H173877   0.339   4.264  10.860  2.3561 -0.9729  0.0722
17462TIP3    H273878   0.414   4.380  10.921  0.2220  0.5502 -0.1005
17463TIP3   OH273879   2.174   5.869   1.585 -0.1401  0.2233 -0.1918
17463TIP3    H173880   2.109   5.935   1.559 -2.3384 -0.8929  2.0521
17463TIP3    H273881   2.158   5.796   1.526  1.8709  1.3041 -2.2543
17464TIP3   OH273882   3.903   1.408   0.094 -0.3485  0.6054  0.1131
17464TIP3    H173883   3.841   1.475   0.065 -0.4158  1.1638  1.5090
17464TIP3    H273884   3.885   1.396   0.187  1.1790  0.2926  0.4019
17465TIP3   OH273885   4.969   1.993   2.994  0.0336  0.0950  0.0427
17465TIP3    H173886   4.917   2.024   3.068  0.2250  0.5448 -0.0037
17465TIP3    H273887   4.920   1.919   2.958  1.0483 -1.6631  2.0239
17466TIP3   OH273888   5.336   4.698  15.661 -0.3068  0.1205  0.4667
17466TIP3    H173889   5.333   4.793  15.651  0.0904  0.2545  1.5621
17466TIP3    H273890   5.247   4.673  15.685  0.3142  0.6549  3.6720
17467TIP3   OH273891   2.369   3.676   4.722  0.0281 -0.0398 -0.9592
17467TIP3    H173892   2.453   3.634   4.704 -0.1093 -0.5100 -0.5235
17467TIP3    H273893   2.315   3.654   4.645 -0.2510 -1.2320 -0.4492
17468TIP3   OH273894   0.991   0.007   0.137  0.3205  0.2148 -0.1427
17468TIP3    H173895   0.991   0.049   0.223  1.7505  1.2158 -0.5911
17468TIP3    H273896   1.068  -0.050   0.138 -0.3132 -0.6508 -0.3574
17469TIP3   OH273897   6.437   2.845   6.482 -0.3909 -0.0973  0.0953
17469TIP3    H173898   6.469   2.764   6.442 -0.4772 -0.1088  0.0485
17469TIP3    H273899   6.510   2.907   6.473 -0.6580  0.1177 -0.7379
17470TIP3   OH273900   2.438   4.993   0.611  0.0852  0.3149  0.3812
17470TIP3    H173901   2.442   4.957   0.699  0.8911 -0.1822  0.1504
17470TIP3    H273902   2.522   4.971   0.572  0.4062  1.9643  0.0471
17471TIP3   OH273903   1.980   1.384  14.859  0.2667  0.1001 -0.1979
17471TIP3    H173904   2.018   1.314  14.913 -0.9700  0.2454  0.9062
17471TIP3    H273905   1.902   1.343  14.820  0.2116  0.5076 -0.5139
17472TIP3   OH273906   5.477   1.700   0.854  0.5880 -0.2159 -0.0999
17472TIP3    H173907   5.444   1.679   0.941  1.8765 -0.4560  0.3564
17472TIP3    H273908   5.426   1.644   0.795 -2.5282  2.1895  0.0789
17473TIP3   OH273909   4.500   4.211   1.806  0.4878 -0.4220  0.3781
17473TIP3    H173910   4.567   4.237   1.744  0.5926 -0.8498  0.3071
17473TIP3    H273911   4.457   4.293   1.831  0.0356 -0.3099 -0.7146
17474TIP3   OH273912   3.386   1.968  16.805  0.0662  0.5846 -0.2494
17474TIP3    H173913   3.369   2.025  16.880 -0.9120  1.5125 -1.1419
17474TIP3    H273914   3.481   1.957  16.805 -0.0671 -1.7092  2.7173
17475TIP3   OH273915   4.900   0.614   4.574 -0.5872 -0.9676 -0.2300
17475TIP3    H173916   4.809   0.584   4.578 -0.9220 -0.2267 -1.5795
17475TIP3    H273917   4.893   0.705   4.545  0.6126 -1.0476 -0.7914
17476TIP3   OH273918   1.302   5.789  15.095 -0.5215  0.8944 -0.1492
17476TIP3    H173919   1.370   5.738  15.139  0.1363  1.0643 -0.9450
17476TIP3    H273920   1.226   5.731  15.093 -0.3061  0.5824  0.4631
17477TIP3   OH273921   3.057   3.800   5.544  0.1453  0.1434  0.1187
17477TIP3    H173922   2.980   3.771   5.496 -0.9190  0.6916  1.4482
17477TIP3    H273923   3.024   3.859   5.611  1.6649 -0.0117  1.0664
17478TIP3   OH273924   1.140   0.163   3.024  0.2508 -0.0231  0.0861
17478TIP3    H173925   1.071   0.123   2.971  2.1627  0.0356 -2.6910
17478TIP3    H273926   1.163   0.097   3.088 -1.2672 -0.6618  0.0112
17479TIP3   OH273927   6.208   0.932   5.477 -0.7198  0.4400  0.5180
17479TIP3    H173928   6.177   0.857   5.529  0.0868  0.6729  1.3530
17479TIP3    H273929   6.285   0.898   5.431 -0.2917  0.7800  0.9783
17480TIP3   OH273930   1.668   3.404   0.357 -0.3997 -0.4455 -0.0625
17480TIP3    H173931   1.733   3.456   0.310  1.1537 -1.4698  0.8548
17480TIP3    H273932   1.718   3.331   0.393 -2.0867 -1.2912  0.6634
17481TIP3   OH273933   3.172   6.490  13.369  0.4039 -0.1407 -0.2452
17481TIP3    H173934   3.242   6.471  13.432  0.0568 -0.6050  0.0111
17481TIP3    H273935   3.218   6.510  13.288  0.8378 -0.8014 -0.1757
17482TIP3   OH273936   1.920   3.551   1.779  0.1803  0.5902 -0.1361
17482TIP3    H173937   1.971   3.629   1.759  2.6219 -1.2162 -1.3944
17482TIP3    H273938   1.856   3.544   1.708 -1.8157  2.6876  1.2854
17483TIP3   OH273939   4.910   2.697  15.015 -0.3386  0.0716  0.2784
17483TIP3    H173940   4.861   2.615  15.015 -1.4051  0.5470  3.6709
17483TIP3    H273941   5.001   2.671  15.025 -0.3177 -0.7097 -1.5795
17484TIP3   OH273942   5.984   3.233  11.925 -0.2017 -0.4349 -0.1074
17484TIP3    H173943   6.013   3.235  12.017  1.9960 -0.5536 -0.7239
17484TIP3    H273944   5.965   3.325  11.904 -0.5692 -0.3865  0.4198
17485TIP3   OH273945   0.885   6.587   4.249  0.1241 -0.3264  0.0073
17485TIP3    H173946   0.904   6.506   4.296  1.3513 -0.3173 -0.4285
17485TIP3    H273947   0.969   6.632   4.245 -0.0616 -0.0703 -1.7037
17486TIP3   OH273948   0.421   0.952  15.768 -0.5890  0.0318  0.1158
17486TIP3    H173949   0.512   0.981  15.770 -0.7489  0.6564 -1.0972
17486TIP3    H273950   0.373   1.026  15.731 -1.3307 -0.9403 -0.9214
17487TIP3   OH273951   6.748   4.836  12.990 -0.2210  0.2941 -0.2611
17487TIP3    H173952   6.827   4.889  13.003  0.2511 -0.0256 -1.6826
17487TIP3    H273953   6.715   4.819  13.078 -0.4285  3.0089  0.2786
17488TIP3   OH273954   4.871   6.808   4.180  0.3708  0.0839 -0.6892
17488TIP3    H173955   4.941   6.794   4.245  1.4585 -0.5604 -1.9438
17488TIP3    H273956   4.879   6.900   4.157 -1.5766  0.9706  1.7533
17489TIP3   OH273957   2.181   3.226  16.492  0.0038  0.2926  0.7657
17489TIP3    H173958   2.187   3.249  16.399  1.5759  0.7762  0.9572
17489TIP3    H273959   2.271   3.210  16.519 -0.5302 -0.8965  1.9697
17490TIP3   OH273960   3.529   5.467  15.811  0.3205 -0.1237 -0.1839
17490TIP3    H173961   3.520   5.442  15.903 -0.1458  0.3497 -0.0981
17490TIP3    H273962   3.615   5.432  15.785 -0.4347 -2.0903 -0.1586
17491TIP3   OH273963   0.612   6.084  15.376 -0.2436 -0.2324 -0.6527
17491TIP3    H173964   0.615   6.175  15.406 -0.9407 -0.4954  0.2827
17491TIP3    H273965   0.704   6.058  15.367 -0.0155  1.0259 -2.4912
17492TIP3   OH273966   6.039   0.763   2.595  0.8109  0.3429 -1.2296
17492TIP3    H173967   6.025   0.698   2.663 -2.7421  1.5859 -0.5618
17492TIP3    H273968   6.127   0.797   2.611  1.1415 -1.3502  0.9516
17493TIP3   OH273969   2.933   6.779  12.567  0.3503  0.1487  0.2457
17493TIP3    H173970   2.876   6.718  12.614 -1.3466  0.3692 -1.3833
17493TIP3    H273971   2.937   6.743  12.478  2.9908  0.0343  0.3270
17494TIP3   OH273972   0.111   2.135  12.735  0.2364 -0.2657 -0.7837
17494TIP3    H173973   0.079   2.113  12.823  0.3319 -1.1512 -0.9616
17494TIP3    H273974   0.181   2.198  12.751  0.9204 -1.1506 -0.1466
17495TIP3   OH273975   0.239   5.335   5.494  0.1453  0.2376  0.2671
17495TIP3    H173976   0.268   5.377   5.413  1.7291 -1.5629 -0.1616
17495TIP3    H273977   0.317   5.334   5.550 -0.3742 -0.3909  1.0081
17496TIP3   OH273978   2.782   6.396   0.335  0.1184  0.0656 -0.3007
17496TIP3    H173979   2.850   6.453   0.299 -0.9180  1.8567  0.4388
17496TIP3    H273980   2.780   6.417   0.428  0.0429 -1.5966  0.1097
17497TIP3   OH273981   4.976   4.071   5.136  0.0700  0.0532  0.2700
17497TIP3    H173982   4.894   4.031   5.164  0.0780  0.6412  1.1830
17497TIP3    H273983   4.949   4.153   5.094  0.1203 -0.3661 -0.6005
17498TIP3   OH273984   0.843   5.452  12.125  0.5306  0.4441  0.3900
17498TIP3    H173985   0.934   5.430  12.104  0.9997  0.5664  2.1116
17498TIP3    H273986   0.837   5.546  12.113  1.4041  0.8603  2.7074
17499TIP3   OH273987   5.670   0.482   4.017 -0.2902  0.3720 -0.6746
17499TIP3    H173988   5.624   0.417   3.964 -1.0123 -2.0234  2.5381
17499TIP3    H273989   5.672   0.444   4.105  3.4259  2.6696  0.4904
17500TIP3   OH273990   6.093   0.829  12.553 -0.3117  0.6994 -0.4845
17500TIP3    H173991   6.077   0.849  12.646  1.4393  0.5490 -0.1223
17500TIP3    H273992   6.057   0.741  12.542 -0.9243  0.8893 -0.0726
17501TIP3   OH273993   5.591   0.445  13.071 -0.0572  0.5165 -0.1309
17501TIP3    H173994   5.648   0.519  13.050  0.3086  0.0828 -0.7342
17501TIP3    H273995   5.651   0.376  13.101 -0.3090  0.2186 -0.3014
17502TIP3   OH273996   3.941   2.133   4.779  0.5859 -0.3021  0.5136
17502TIP3    H173997   3.993   2.054   4.764 -1.2142 -1.2672 -1.0645
17502TIP3    H273998   3.889   2.113   4.856 -0.5209 -1.0641 -0.4006
17503TIP3   OH273999   6.561   2.044  13.656 -0.1687 -0.1103 -0.0292
17503TIP3    H174000   6.631   2.074  13.598 -0.9542 -2.3094 -2.3147
17503TIP3    H274001   6.497   2.115  13.656  1.0476  1.0230  0.3548
17504TIP3   OH274002   0.764   4.741  15.651 -0.0612  0.2828 -0.2209
17504TIP3    H174003   0.688   4.684  15.668 -0.7771 -0.0700 -3.8656
17504TIP3    H274004   0.831   4.682  15.618  0.1041  1.1881 -1.5637
17505TIP3   OH274005   5.352   2.072  12.587  0.0986 -0.0356  0.4155
17505TIP3    H174006   5.365   2.157  12.544 -0.2933 -0.8740 -1.4476
17505TIP3    H274007   5.259   2.068  12.606  0.0990 -0.0903  0.4072
17506TIP3   OH274008   5.011   6.453  12.915  0.0597 -0.3299  0.3880
17506TIP3    H174009   5.048   6.537  12.941  0.9445 -0.7061  0.3593
17506TIP3    H274010   4.924   6.451  12.955 -0.0544  0.6898  0.2029
17507TIP3   OH274011   1.364   5.995  11.965 -0.2925 -0.2726 -0.6792
17507TIP3    H174012   1.362   6.086  11.992 -0.1863 -0.4031 -0.2196
17507TIP3    H274013   1.282   5.958  11.999  0.4444 -0.7611  0.6639
17508TIP3   OH274014   2.920   2.349  12.000  0.0162  0.1654  0.0984
17508TIP3    H174015   3.006   2.306  12.006 -1.1955 -2.6907 -1.0035
17508TIP3    H274016   2.912   2.372  11.908 -0.8281 -0.6950 -0.0646
17509TIP3   OH274017   0.480   3.530   6.202  0.4597 -0.0209  0.3215
17509TIP3    H174018   0.460   3.449   6.249  0.4913  0.4837  1.2267
17509TIP3    H274019   0.395   3.561   6.170  0.5076 -0.6457 -0.4304
17510TIP3   OH274020   0.059   3.054  14.862  0.3381 -0.2463  0.1790
17510TIP3    H174021   0.137   3.103  14.888  1.0486 -1.1968 -0.0921
17510TIP3    H274022   0.053   3.066  14.767 -0.0079  0.0411  0.2337
17511TIP3   OH274023   5.519   4.978   3.383 -0.5607 -0.0282 -0.0660
17511TIP3    H174024   5.612   4.955   3.383 -0.2492  1.0087 -1.8713
17511TIP3    H274025   5.516   5.066   3.343 -2.3247 -0.1224 -0.2308
17512TIP3   OH274026   0.964   0.945   2.833  0.0937  0.1096 -0.2296
17512TIP3    H174027   0.985   0.923   2.743  1.8717  2.9244 -0.6229
17512TIP3    H274028   0.983   1.038   2.840 -1.3096  0.2900  2.7163
17513TIP3   OH274029   0.864   5.088   1.525  0.1762  0.2000  0.1105
17513TIP3    H174030   0.908   5.094   1.609 -0.4986 -1.5359  0.6415
17513TIP3    H274031   0.821   5.002   1.527  0.5491 -0.1054 -2.1876
17514TIP3   OH274032   2.826   4.692  10.224 -0.5481 -0.4942 -0.0381
17514TIP3    H174033   2.753   4.634  10.202  1.0989 -2.7010  0.0178
17514TIP3    H274034   2.843   4.676  10.317  1.4460 -1.8272 -0.5633
17515TIP3   OH274035   2.241   1.105   0.567 -0.0037  0.4007 -0.1911
17515TIP3    H174036   2.297   1.144   0.500  0.1358  0.5426  0.0055
17515TIP3    H274037   2.259   1.156   0.646 -0.0843  0.1647 -0.0177
17516TIP3   OH274038   2.842   2.434   0.058  0.3749  0.2563  0.3520
17516TIP3    H174039   2.806   2.355   0.097 -0.7927  0.2869 -0.6119
17516TIP3    H274040   2.929   2.409   0.028 -0.2753 -0.9313 -0.6658
17517TIP3   OH274041   4.387   2.373   5.247 -0.0549 -0.3718  0.2643
17517TIP3    H174042   4.417   2.325   5.170  0.5284  0.1874  0.1328
17517TIP3    H274043   4.463   2.376   5.305 -0.3844 -0.4717  0.7086
17518TIP3   OH274044   2.679   5.334  11.233  0.1795  0.8729  0.1290
17518TIP3    H174045   2.673   5.422  11.196 -0.2224  1.2992  1.1492
17518TIP3    H274046   2.699   5.349  11.326  2.0861 -0.1573 -0.0695
17519TIP3   OH274047   5.604   5.195  16.022  0.1368 -0.2841  0.6615
17519TIP3    H174048   5.519   5.237  16.025  0.6031  0.7162  0.2954
17519TIP3    H274049   5.598   5.132  15.950 -0.7421 -1.2744  1.5634
17520TIP3   OH274050   6.189   0.064   4.668 -0.1228 -0.6827  0.1375
17520TIP3    H174051   6.209   0.047   4.576 -0.0244  2.1324 -0.4497
17520TIP3    H274052   6.257   0.124   4.697 -2.2105  1.4618  0.9080
17521TIP3   OH274053   2.127   4.274  15.378  0.0691  0.1771 -0.4767
17521TIP3    H174054   2.038   4.256  15.349 -0.4157  0.4412  0.7786
17521TIP3    H274055   2.125   4.365  15.407  1.3883  0.9764 -2.7007
17522TIP3   OH274056   1.812   6.125  14.322  0.1121  0.1105 -0.2094
17522TIP3    H174057   1.750   6.167  14.262  0.2836  0.7126  0.0289
17522TIP3    H274058   1.761   6.106  14.400 -0.5846 -2.2879 -1.1342
17523TIP3   OH274059   2.642   6.786  12.331 -0.3821  0.1484 -0.1053
17523TIP3    H174060   2.570   6.846  12.312  0.7781  1.6265 -0.0740
17523TIP3    H274061   2.689   6.777  12.248  0.2063  0.3449  0.2008
17524TIP3   OH274062   3.736   2.255  13.201 -0.1681 -0.8979  0.7569
17524TIP3    H174063   3.703   2.311  13.271  0.7212 -0.5873  0.9439
17524TIP3    H274064   3.722   2.165  13.232 -1.6421 -0.7925  0.4331
17525TIP3   OH274065   5.119   2.988  16.222 -0.2195 -0.1057  0.7345
17525TIP3    H174066   5.197   2.933  16.231 -0.6893 -0.5605  2.4793
17525TIP3    H274067   5.058   2.953  16.287 -1.2472  1.3087  0.5736
17526TIP3   OH274068   3.603   5.041   0.742  0.7623 -0.9690 -0.0384
17526TIP3    H174069   3.572   5.068   0.829 -0.1293 -0.0433 -0.6178
17526TIP3    H274070   3.697   5.054   0.745  0.4724  1.7488 -0.0592
17527TIP3   OH274071   5.609   3.253   3.345  0.1884 -0.1968 -0.1582
17527TIP3    H174072   5.563   3.327   3.304  0.6218  1.1032  1.5782
17527TIP3    H274073   5.696   3.254   3.304 -0.2021 -0.5631 -1.0351
17528TIP3   OH274074   4.004   3.902   6.291  0.3801 -0.5142  0.1226
17528TIP3    H174075   3.988   3.938   6.379  0.5829 -0.3628  0.1004
17528TIP3    H274076   4.085   3.852   6.301  0.2419 -0.7456  0.0905
17529TIP3   OH274077   2.519   1.307   1.761 -0.0034 -0.0645  0.2538
17529TIP3    H174078   2.587   1.279   1.821 -0.2394 -0.2533  0.4340
17529TIP3    H274079   2.498   1.229   1.710  1.0849  0.3956 -0.9513
17530TIP3   OH274080   4.205   1.665   4.226  0.6454 -0.6292 -0.6961
17530TIP3    H174081   4.290   1.648   4.184  1.3062  2.7471 -1.0654
17530TIP3    H274082   4.174   1.745   4.183 -2.1095 -1.0333  0.3929
17531TIP3   OH274083   0.413   6.383   1.537 -0.1327  0.0483 -0.3788
17531TIP3    H174084   0.361   6.377   1.617  0.4795 -1.3642 -0.0617
17531TIP3    H274085   0.386   6.466   1.497 -1.8010 -0.1191  0.3385
17532TIP3   OH274086   5.672   1.294  11.468  0.2638  0.9702  0.3214
17532TIP3    H174087   5.643   1.294  11.376 -0.0634  0.5375  0.4228
17532TIP3    H274088   5.591   1.282  11.518  0.6064 -0.2654  0.6125
17533TIP3   OH274089   0.629   4.589  16.348 -0.0618  0.3608  0.0767
17533TIP3    H174090   0.544   4.629  16.370  0.2552  0.9669  0.2129
17533TIP3    H274091   0.636   4.597  16.253 -0.4759 -0.3427 -0.0222
17534TIP3   OH274092   4.341   0.131  11.213 -0.4878 -0.3013 -0.1554
17534TIP3    H174093   4.414   0.191  11.205 -0.2032 -0.7354 -0.9128
17534TIP3    H274094   4.272   0.182  11.255  0.3280  0.0323  0.8134
17535TIP3   OH274095   6.033   4.613   3.787 -0.0683 -0.1241  0.6755
17535TIP3    H174096   5.983   4.637   3.864  0.9107 -0.3602  1.4087
17535TIP3    H274097   6.104   4.558   3.820  0.4398 -0.1372 -0.3769
17536TIP3   OH274098   0.725   0.209   2.938 -0.3438 -0.1998  0.2187
17536TIP3    H174099   0.700   0.297   2.966  0.8374 -0.0142  0.7681
17536TIP3    H274100   0.768   0.222   2.854  1.3684 -0.0037  1.0821
17537TIP3   OH274101   6.000   3.203  16.531  0.3612  0.1993  0.9092
17537TIP3    H174102   6.009   3.275  16.469  1.3081  1.0809  2.0078
17537TIP3    H274103   6.043   3.235  16.611  0.1735 -1.3134  1.6572
17538TIP3   OH274104   5.524   2.117   1.760 -0.1180  0.2459 -0.1246
17538TIP3    H174105   5.565   2.089   1.842 -0.4937  2.5748  0.9440
17538TIP3    H274106   5.597   2.149   1.707 -0.1356  1.2767  0.4397
17539TIP3   OH274107   1.165   1.944  12.588  0.2900 -0.2772 -0.3963
17539TIP3    H174108   1.202   1.894  12.516 -0.2295  0.7309 -1.4015
17539TIP3    H274109   1.107   1.882  12.634  1.5599 -1.2622 -0.0725
17540TIP3   OH274110   2.971   3.122  16.754  0.3392  0.3470  0.3298
17540TIP3    H174111   2.918   3.085  16.683 -0.5249 -1.8374  1.9760
17540TIP3    H274112   3.062   3.111  16.725 -0.0234  0.1835 -0.7594
17541TIP3   OH274113   2.887   5.992  10.225 -0.5505 -0.9105 -0.1385
17541TIP3    H174114   2.813   5.952  10.178  1.0274 -1.8766 -1.9459
17541TIP3    H274115   2.874   6.086  10.215 -1.1001 -1.0793 -1.1885
17542TIP3   OH274116   4.001   0.559  11.629  0.6241  0.0139  0.5475
17542TIP3    H174117   3.914   0.592  11.651  1.0963  2.4971 -0.8232
17542TIP3    H274118   4.058   0.635  11.641  1.8391 -0.1456 -2.9054
17543TIP3   OH274119   6.483   0.511   0.493 -0.1749 -0.6226 -0.2954
17543TIP3    H174120   6.469   0.417   0.504 -2.5119 -0.3099 -0.1336
17543TIP3    H274121   6.509   0.542   0.580  2.6434 -1.3526 -0.7781
17544TIP3   OH274122   5.731   6.816   1.452  0.5359  0.2501 -0.1750
17544TIP3    H174123   5.738   6.911   1.441  0.1628  0.2812 -0.1416
17544TIP3    H274124   5.655   6.803   1.508  1.6061  0.0230  1.2961
17545TIP3   OH274125   4.354   1.112  12.750  0.0710  0.1443  0.4435
17545TIP3    H174126   4.439   1.144  12.780  0.3935 -0.3519  0.0801
17545TIP3    H274127   4.296   1.123  12.825  0.6399 -0.2223  0.9469
17546TIP3   OH274128   0.748   2.459  15.264  0.3995 -0.3275  0.0557
17546TIP3    H174129   0.725   2.400  15.336 -0.9843 -0.1590 -0.2193
17546TIP3    H274130   0.774   2.540  15.307 -0.9857 -0.0302  0.3965
17547TIP3   OH274131   5.018   2.937   1.184 -0.0118  0.0995 -0.1388
17547TIP3    H174132   5.059   3.024   1.191  0.4521 -0.1461  0.2983
17547TIP3    H274133   4.955   2.946   1.113 -1.7724  1.5012  1.4960
17548TIP3   OH274134   0.021   1.710   0.091  0.3135  0.0121  0.7059
17548TIP3    H174135   0.064   1.669   0.016 -1.6146 -1.2082  0.2079
17548TIP3    H274136   0.024   1.804   0.071  0.9802 -0.1936 -0.2512
17549TIP3   OH274137   2.266   5.874  14.715  0.0518  0.0936 -0.9764
17549TIP3    H174138   2.336   5.829  14.667 -0.8554 -3.1774  0.4581
17549TIP3    H274139   2.189   5.819  14.702 -0.6523 -0.0744  2.6942
17550TIP3   OH274140   2.913   3.603   6.204  0.4687 -0.2204 -0.1982
17550TIP3    H174141   2.921   3.550   6.125 -0.3355  0.7539 -0.9551
17550TIP3    H274142   2.847   3.669   6.183 -0.0706 -0.1911  1.4378
17551TIP3   OH274143   5.395   2.986   2.215  0.5297  0.0400 -0.1324
17551TIP3    H174144   5.454   3.036   2.270  1.3658 -1.6679  0.6064
17551TIP3    H274145   5.452   2.926   2.167 -0.5516 -1.4467  0.3675
17552TIP3   OH274146   4.219   0.470  14.420 -0.3475 -0.0912 -0.3208
17552TIP3    H174147   4.136   0.507  14.452 -0.8575  1.1112 -2.7594
17552TIP3    H274148   4.256   0.425  14.496 -1.0892  3.0189  2.1083
17553TIP3   OH274149   5.152   2.986   1.693  0.4964  0.4420 -0.1570
17553TIP3    H174150   5.120   3.025   1.775 -0.5806  0.7954 -0.7237
17553TIP3    H274151   5.147   2.892   1.708  0.4909  0.5028  0.2478
17554TIP3   OH274152   2.917   4.128   3.750  0.2643  0.2964 -0.6286
17554TIP3    H174153   2.832   4.100   3.787  0.8403  0.0991  0.6095
17554TIP3    H274154   2.958   4.177   3.821  1.6704 -0.6041 -0.7846
17555TIP3   OH274155   5.535   0.182  13.952 -0.6162  0.5644 -0.1771
17555TIP3    H174156   5.577   0.121  13.892 -2.4267 -0.3113 -0.6207
17555TIP3    H274157   5.608   0.232  13.990  0.8292 -1.0594 -0.6608
17556TIP3   OH274158   6.255   2.650   1.202 -0.1639  0.1597  0.1073
17556TIP3    H174159   6.169   2.659   1.161 -1.3321 -0.1973  2.2766
17556TIP3    H274160   6.235   2.615   1.289  2.3698 -2.3284 -0.1745
17557TIP3   OH274161   6.372   0.552   5.624 -0.0829  0.5740  0.3303
17557TIP3    H174162   6.364   0.520   5.714 -1.1992 -1.7591 -0.5329
17557TIP3    H274163   6.448   0.505   5.589 -0.8481 -0.0612 -0.5200
17558TIP3   OH274164   5.930   4.404  15.027 -0.2035 -0.5302  0.3121
17558TIP3    H174165   5.886   4.480  14.989  0.1712  0.6191  2.0479
17558TIP3    H274166   5.871   4.375  15.097  1.7327  1.1567  2.8110
17559TIP3   OH274167   3.095   6.681   2.977  0.5011 -0.5063  0.3280
17559TIP3    H174168   3.127   6.712   2.892  0.3004  0.1115  0.4702
17559TIP3    H274169   3.000   6.677   2.967  0.1016  2.6963  1.4543
17560TIP3   OH274170   1.229   5.778   3.551 -0.2006  0.1132  0.3589
17560TIP3    H174171   1.175   5.842   3.598 -0.9623  0.9984 -1.6329
17560TIP3    H274172   1.317   5.817   3.549 -0.1914  0.1285  0.9100
17561TIP3   OH274173   4.484   3.989  13.772  0.1098  0.0844 -0.3759
17561TIP3    H174174   4.459   4.003  13.863 -2.4128  1.3672 -1.1852
17561TIP3    H274175   4.579   3.975  13.775  0.1495  0.4919  2.3708
17562TIP3   OH274176   2.643   0.695  16.829  0.0962 -0.2900  0.2151
17562TIP3    H174177   2.617   0.783  16.803 -1.4829 -0.8572 -0.2564
17562TIP3    H274178   2.596   0.637  16.769  1.8088 -1.4607 -0.0942
17563TIP3   OH274179   3.491   3.028   6.575 -0.0302  0.3545 -0.5436
17563TIP3    H174180   3.583   3.004   6.568 -0.0154 -0.3544  1.4665
17563TIP3    H274181   3.446   2.967   6.517  0.5903 -0.6138 -0.0281
17564TIP3   OH274182   0.514   0.446  11.939 -0.2011  0.8425  0.5354
17564TIP3    H174183   0.605   0.419  11.957 -0.5669 -1.4075 -0.5679
17564TIP3    H274184   0.462   0.394  12.000 -0.8034  1.4893  0.5736
17565TIP3   OH274185   6.712   0.481   0.117 -0.6312 -0.3249  0.3080
17565TIP3    H174186   6.646   0.413   0.128  0.4544 -1.4123  0.3962
17565TIP3    H274187   6.772   0.468   0.191  0.3662 -0.2054 -0.4568
17566TIP3   OH274188   5.704   2.046   0.346 -0.2636 -0.2009 -0.8376
17566TIP3    H174189   5.653   2.121   0.314 -0.2978  0.1107 -0.0834
17566TIP3    H274190   5.640   1.993   0.393  0.0872  0.1808  0.0970
17567TIP3   OH274191   2.628   0.404   4.327 -0.4785  0.1414  0.7840
17567TIP3    H174192   2.622   0.316   4.290 -0.1170  0.6855 -0.6172
17567TIP3    H274193   2.549   0.449   4.298  0.9443  1.3324 -1.4935
17568TIP3   OH274194   0.739   0.763   1.804 -0.8264  0.6679  0.2268
17568TIP3    H174195   0.750   0.697   1.735  1.5713 -0.4976  1.5738
17568TIP3    H274196   0.703   0.839   1.759 -0.0861 -0.2931 -2.1699
17569TIP3   OH274197   6.430   1.945  11.667 -0.4840 -0.7653 -0.0726
17569TIP3    H174198   6.403   1.881  11.733 -2.6930 -2.3892 -2.3900
17569TIP3    H274199   6.482   1.894  11.605  1.0266  0.5993  0.0054
17570TIP3   OH274200   2.236   6.565  16.441 -0.1150  0.4996 -0.4261
17570TIP3    H174201   2.288   6.574  16.521  0.0025 -0.4136 -0.3968
17570TIP3    H274202   2.284   6.616  16.376 -0.3300  1.4416  0.1232
17571TIP3   OH274203   4.121   5.975   5.523  0.6428 -0.1449 -0.4692
17571TIP3    H174204   4.032   5.987   5.490 -0.2814 -1.3819  1.3779
17571TIP3    H274205   4.142   5.884   5.503  1.2539 -0.0428 -0.3293
17572TIP3   OH274206   2.617   4.006   1.941  0.7097  0.3600  0.2304
17572TIP3    H174207   2.558   4.034   1.871  0.9053  0.3434  0.0565
17572TIP3    H274208   2.571   4.028   2.022  0.4417  0.2929  0.0962
17573TIP3   OH274209   1.723   2.319   5.229 -0.1860 -0.4928 -0.2337
17573TIP3    H174210   1.815   2.343   5.226 -0.1378 -0.6356  0.1308
17573TIP3    H274211   1.699   2.325   5.321 -0.0197 -2.4127 -0.0443
17574TIP3   OH274212   4.695   4.480   0.646  0.2750 -0.0997  0.2147
17574TIP3    H174213   4.762   4.413   0.657  0.5669  0.2592  0.6635
17574TIP3    H274214   4.619   4.447   0.693  0.3188 -0.2547  0.1768
17575TIP3   OH274215   5.996   6.039  10.868  0.6760 -0.2412  0.0769
17575TIP3    H174216   6.083   6.075  10.884  1.4502 -2.0507  0.1491
17575TIP3    H274217   5.937   6.099  10.914  1.7976  1.3648 -0.5012
17576TIP3   OH274218   0.197   6.106   2.564 -0.3108 -0.6415  0.0357
17576TIP3    H174219   0.115   6.062   2.541 -0.2913 -1.7151  1.8692
17576TIP3    H274220   0.255   6.090   2.488 -2.1395  1.3079 -1.9196
17577TIP3   OH274221   5.112   3.605  11.222  0.0801  0.1850 -0.0241
17577TIP3    H174222   5.128   3.690  11.180 -2.0203  0.2900 -0.7204
17577TIP3    H274223   5.103   3.543  11.149 -2.4356  0.1551  0.2187
17578TIP3   OH274224   5.238   0.807   3.344  0.0079 -0.1718 -0.2162
17578TIP3    H174225   5.260   0.864   3.271 -0.3100 -0.4970 -0.5676
17578TIP3    H274226   5.286   0.726   3.327  0.2127 -0.1246  0.1199
17579TIP3   OH274227   2.378   1.368  12.602  0.1145 -0.1141 -0.0604
17579TIP3    H174228   2.426   1.426  12.543 -1.2255  0.0995 -0.9780
17579TIP3    H274229   2.407   1.280  12.578  0.7685  0.0556  0.0753
17580TIP3   OH274230   5.914   0.605   1.604 -1.2065 -0.0318  0.4875
17580TIP3    H174231   5.985   0.576   1.662 -0.3775  0.2161 -0.3701
17580TIP3    H274232   5.931   0.559   1.521 -1.6263  0.5976  0.0427
17581TIP3   OH274233   4.987   0.250   3.336 -0.4368  0.3820 -0.0846
17581TIP3    H174234   5.080   0.229   3.327 -0.2553  0.0343  2.0392
17581TIP3    H274235   4.984   0.320   3.401 -1.7228 -0.7300  1.1469
17582TIP3   OH274236   0.539   5.474   3.231 -0.0235  0.5022 -0.4147
17582TIP3    H174237   0.616   5.461   3.287 -1.2304 -0.7453  1.0341
17582TIP3    H274238   0.465   5.447   3.285 -1.3763  0.4242 -2.2123
17583TIP3   OH274239   6.079   3.954   1.126  0.3459  0.1733 -0.2235
17583TIP3    H174240   6.062   3.894   1.198  1.9503  0.0074  0.0504
17583TIP3    H274241   6.059   3.903   1.047  0.7971 -0.4184  0.0388
17584TIP3   OH274242   4.626   1.264   4.406 -0.0373  0.5728 -0.4372
17584TIP3    H174243   4.566   1.205   4.361 -0.6368  0.9407 -0.1391
17584TIP3    H274244   4.569   1.316   4.463  0.9379 -2.0382  3.2478
17585TIP3   OH274245   3.157   4.079   3.599 -0.6312  0.0196 -0.4937
17585TIP3    H174246   3.084   4.069   3.660  0.4413 -2.3469  0.4929
17585TIP3    H274247   3.143   4.166   3.561 -3.8719 -0.2573 -0.2794
17586TIP3   OH274248   0.724   6.657   2.068 -0.6206  0.1412 -0.2114
17586TIP3    H174249   0.762   6.579   2.110  1.0367  0.3818 -1.1613
17586TIP3    H274250   0.795   6.721   2.068 -1.1295  0.7435 -1.7640
17587TIP3   OH274251   2.674   1.646   3.360 -0.0793 -0.0847 -0.1362
17587TIP3    H174252   2.671   1.552   3.373  0.0233 -0.2919 -1.4414
17587TIP3    H274253   2.648   1.683   3.444  1.7014 -1.2325  0.9829
17588TIP3   OH274254   2.231   0.141   5.089 -0.2807  1.0357 -0.3795
17588TIP3    H174255   2.173   0.189   5.147  1.2602  1.3737  0.9456
17588TIP3    H274256   2.273   0.208   5.034  0.2606  0.9991 -0.0182
17589TIP3   OH274257   5.822   5.173  16.185 -0.1514 -0.2424  0.5091
17589TIP3    H174258   5.818   5.247  16.246 -1.8392  0.2566 -0.1488
17589TIP3    H274259   5.746   5.185  16.128  1.7464 -0.3024 -2.1825
17590TIP3   OH274260   3.024   6.233  12.214  0.4503  0.2349 -0.4696
17590TIP3    H174261   3.099   6.288  12.238 -0.4569  1.0765  0.6118
17590TIP3    H274262   3.040   6.150  12.257  0.6710  0.4889 -0.0553
17591TIP3   OH274263   6.258   5.871   1.701  0.1733 -0.0549  0.5776
17591TIP3    H174264   6.228   5.809   1.634  2.2379 -0.1582 -0.3455
17591TIP3    H274265   6.278   5.951   1.652 -0.1302  0.5325  1.3950
17592TIP3   OH274266   3.444   2.948  16.173  0.2251 -0.2319 -0.0500
17592TIP3    H174267   3.472   2.862  16.142 -0.0506 -0.7765  1.1665
17592TIP3    H274268   3.508   3.009  16.134  0.6071 -1.0059 -0.6724
17593TIP3   OH274269   2.377   3.702  15.514 -0.2404  0.3958  0.6917
17593TIP3    H174270   2.293   3.673  15.548 -0.5066  0.8366  0.4301
17593TIP3    H274271   2.383   3.794  15.541  0.0607  0.4256  0.5270
17594TIP3   OH274272   5.011   3.965  10.352 -0.1801 -0.7804  0.2352
17594TIP3    H174273   5.052   4.026  10.292  2.9150 -1.7183  1.2222
17594TIP3    H274274   4.926   4.004  10.372  0.7985  2.0988 -0.7630
17595TIP3   OH274275   6.618   5.500  16.133 -0.7458 -0.6233 -0.9061
17595TIP3    H174276   6.531   5.485  16.170  0.1912 -1.3140  1.1117
17595TIP3    H274277   6.601   5.524  16.042 -3.1495  1.1826 -0.0806
17596TIP3   OH274278   1.018   2.732   3.740 -0.3035  0.2849 -0.0458
17596TIP3    H174279   0.992   2.704   3.827  0.0630  0.0505 -0.0129
17596TIP3    H274280   1.056   2.655   3.699  1.6882  0.9668  0.4168
17597TIP3   OH274281   3.887   6.557   2.838 -0.0679  0.1429 -0.4080
17597TIP3    H174282   3.823   6.606   2.786  1.9530  1.4535 -1.8579
17597TIP3    H274283   3.948   6.624   2.869  2.3682 -1.2918 -1.7752
17598TIP3   OH274284   4.841   5.752  11.737  0.2880 -0.3683  0.0633
17598TIP3    H174285   4.748   5.766  11.722  0.7043  1.3253 -1.2090
17598TIP3    H274286   4.850   5.657  11.749 -1.4528 -0.6554 -0.7143
17599TIP3   OH274287   3.154   1.650   1.992 -0.0566  0.6426 -0.0711
17599TIP3    H174288   3.188   1.738   1.973  1.5427  0.0555 -0.0617
17599TIP3    H274289   3.209   1.617   2.063  1.7913 -1.6830 -2.3590
17600TIP3   OH274290   4.231   3.900  12.370 -0.0030 -0.2177 -0.0845
17600TIP3    H174291   4.223   3.830  12.434  1.2171 -0.4687 -0.1642
17600TIP3    H274292   4.255   3.854  12.289 -0.6170  0.1718 -0.4895
17601TIP3   OH274293   2.921   4.241   5.259  0.1979 -0.6638 -0.1646
17601TIP3    H174294   2.888   4.258   5.347 -1.4057 -2.7796 -0.2712
17601TIP3    H274295   3.007   4.200   5.273 -0.0153 -0.9161  0.4351
17602TIP3   OH274296   4.452   0.552   5.423 -0.3510  0.3950  0.1255
17602TIP3    H174297   4.533   0.582   5.381 -1.5030  1.9197 -1.1358
17602TIP3    H274298   4.390   0.541   5.351 -1.1446 -1.3254  0.9952
17603TIP3   OH274299   6.844   4.756   2.550  0.0340  0.3241 -0.0687
17603TIP3    H174300   6.842   4.786   2.641  1.0866  0.3133 -0.0324
17603TIP3    H274301   6.882   4.668   2.555 -0.0165  0.2778 -0.5039
17604TIP3   OH274302   0.841   0.311  12.250  0.0947 -0.4804 -0.0711
17604TIP3    H174303   0.917   0.332  12.305 -0.6348  0.5503  0.5612
17604TIP3    H274304   0.849   0.217  12.234  1.1258 -0.5158  0.5637
17605TIP3   OH274305   5.661   1.309   1.031  0.3380 -0.2324 -0.5797
17605TIP3    H174306   5.679   1.381   1.092  0.0879 -0.5491 -0.1335
17605TIP3    H274307   5.661   1.231   1.085 -2.8981 -0.2382 -0.4017
17606TIP3   OH274308   1.648   6.568  15.749  0.3528  0.4940 -0.0919
17606TIP3    H174309   1.644   6.658  15.717 -0.6856  0.7064  0.5771
17606TIP3    H274310   1.719   6.527  15.699  0.9859  1.7426 -0.2390
17607TIP3   OH274311   5.785   6.642   3.886 -0.1057  0.4505  0.4874
17607TIP3    H174312   5.707   6.586   3.895  0.7558 -0.6208  1.4820
17607TIP3    H274313   5.821   6.619   3.801 -1.3965  1.6882 -0.4535
17608TIP3   OH274314   6.510   6.451   2.888  0.2657 -0.1791  0.4058
17608TIP3    H174315   6.570   6.521   2.913  1.4624  0.0120 -2.6156
17608TIP3    H274316   6.494   6.464   2.795 -2.7435 -1.5873  0.5836
17609TIP3   OH274317   6.714   1.148   5.753 -0.6269 -0.4362 -0.0522
17609TIP3    H174318   6.762   1.231   5.753 -0.8059 -0.3242 -1.0268
17609TIP3    H274319   6.770   1.087   5.801  0.1519 -0.1140 -0.5417
17610TIP3   OH274320   1.417   2.805   0.934 -0.3165 -0.1754 -0.4405
17610TIP3    H174321   1.505   2.814   0.899 -1.0349  0.0309 -2.3660
17610TIP3    H274322   1.400   2.888   0.979  0.1015  0.2098 -0.9751
17611TIP3   OH274323   0.672   1.010  15.001  0.1883  0.5094  0.6152
17611TIP3    H174324   0.589   0.984  14.960  1.2957 -1.4280 -0.5806
17611TIP3    H274325   0.736   1.004  14.930  1.7309 -0.3324  2.0142
17612TIP3   OH274326   2.876   6.799  11.675 -0.1175  0.0392  0.9064
17612TIP3    H174327   2.816   6.767  11.607  1.3028  0.5810 -0.6904
17612TIP3    H274328   2.948   6.736  11.673  0.2386  0.4284  1.4807
17613TIP3   OH274329   4.534   4.041  15.296  0.3954  0.0222 -0.0588
17613TIP3    H174330   4.599   4.002  15.238  0.1922 -3.3566  1.7443
17613TIP3    H274331   4.546   4.135  15.285  2.3032 -0.4439 -3.3095
17614TIP3   OH274332   4.317   2.951  16.065 -0.3878  0.2450  0.1718
17614TIP3    H174333   4.274   3.035  16.048  3.0633  2.5914  1.8994
17614TIP3    H274334   4.378   2.940  15.992  0.4272  0.1893  0.8436
17615TIP3   OH274335   5.419   0.739  16.402 -0.3546  0.5664 -0.0194
17615TIP3    H174336   5.375   0.693  16.331  0.4793  0.2657 -0.3487
17615TIP3    H274337   5.451   0.669  16.459  1.7173  0.6609 -0.9923
17616TIP3   OH274338   2.647   1.185  11.111  0.0483 -0.7510 -0.4446
17616TIP3    H174339   2.632   1.110  11.054 -0.8416 -0.9192 -0.0066
17616TIP3    H274340   2.566   1.235  11.106  0.4787 -0.0383 -0.4009
17617TIP3   OH274341   4.387   5.171  14.985  0.4567  0.1156 -0.2110
17617TIP3    H174342   4.437   5.245  15.020  1.9355 -0.9967  0.1278
17617TIP3    H274343   4.398   5.102  15.051  0.2234 -0.8331 -1.1482
17618TIP3   OH274344   3.367   5.161  16.336 -0.3367  0.4168 -0.6709
17618TIP3    H174345   3.273   5.151  16.349 -0.0169 -0.3000  1.6508
17618TIP3    H274346   3.381   5.256  16.332 -1.0985  0.5484 -0.3897
17619TIP3   OH274347   4.835   6.326   6.497  0.8341  0.8792  0.2933
17619TIP3    H174348   4.898   6.282   6.439  0.5738 -1.7843  1.8516
17619TIP3    H274349   4.770   6.259   6.516 -1.4779  2.9887  0.2763
17620TIP3   OH274350   4.301   3.594  12.427 -0.2991 -0.5558 -0.1674
17620TIP3    H174351   4.222   3.614  12.376 -0.3874  0.5856  0.3958
17620TIP3    H274352   4.341   3.520  12.381 -1.1766 -0.5137 -1.0221
17621TIP3   OH274353   1.319   2.121  10.509 -0.0859 -0.5718 -0.5648
17621TIP3    H174354   1.245   2.170  10.544  0.4536  0.1138 -0.3605
17621TIP3    H274355   1.390   2.186  10.501  0.3210 -1.0811 -1.3035
17622TIP3   OH274356   0.815   5.333  15.230  0.4454 -0.1682  0.2789
17622TIP3    H174357   0.787   5.273  15.161 -1.2542  2.3659 -1.3869
17622TIP3    H274358   0.902   5.362  15.204  0.1954  0.0547 -0.3241
17623TIP3   OH274359   4.783   0.251   2.850 -0.0155  0.1716  0.2694
17623TIP3    H174360   4.840   0.227   2.923 -1.4104  2.1794  2.1473
17623TIP3    H274361   4.837   0.241   2.772  1.7857 -1.2951  1.6239
17624TIP3   OH274362   6.216   6.038  12.163 -0.2205 -0.2764  0.4739
17624TIP3    H174363   6.124   6.039  12.190 -0.2299  0.2927  0.4273
17624TIP3    H274364   6.265   6.048  12.244 -0.1560 -1.6231  0.6324
17625TIP3   OH274365   0.737   6.790  11.701  0.2923  0.4580 -0.2518
17625TIP3    H174366   0.698   6.815  11.785  0.1691 -0.3236 -0.0672
17625TIP3    H274367   0.748   6.695  11.707 -1.0351  0.1753 -1.6482
17626TIP3   OH274368   6.492   1.845   2.226  0.1413 -0.1635 -0.0616
17626TIP3    H174369   6.576   1.801   2.212  0.7397  0.3928  1.5609
17626TIP3    H274370   6.515   1.937   2.240 -0.6717 -0.1053  0.9978
17627TIP3   OH274371   5.593   0.724  13.695  0.2492 -0.4155  0.2324
17627TIP3    H174372   5.587   0.629  13.709 -2.3472 -0.0887  2.1416
17627TIP3    H274373   5.554   0.738  13.609 -1.1524 -0.9889  0.7367
17628TIP3   OH274374   0.298   0.814  14.180 -0.3410 -0.4279  0.0047
17628TIP3    H174375   0.309   0.861  14.263 -0.5895  0.2481 -0.3426
17628TIP3    H274376   0.363   0.853  14.121 -0.2390 -0.8319 -0.1548
17629TIP3   OH274377   0.503   3.403  11.307 -0.5903  0.6995  0.3502
17629TIP3    H174378   0.415   3.436  11.325  0.0116  3.4324 -1.2369
17629TIP3    H274379   0.550   3.478  11.271  2.1625 -0.9085  0.3413
17630TIP3   OH274380   3.437   3.257   2.274 -0.0246  0.0888 -0.6431
17630TIP3    H174381   3.466   3.188   2.333  0.5501 -0.3835 -1.4648
17630TIP3    H274382   3.363   3.297   2.319  1.1716  0.5910  1.0040
17631TIP3   OH274383   6.850   1.141  15.132  0.0365 -0.7947 -0.3834
17631TIP3    H174384   6.849   1.234  15.112 -0.4285 -0.4518  1.1518
17631TIP3    H274385   6.930   1.108  15.091  0.3499  0.3287 -0.6910
17632TIP3   OH274386   4.014   4.914  14.243  0.1357 -0.0808 -0.2814
17632TIP3    H174387   3.977   4.999  14.219  1.7400  2.0468  3.8433
17632TIP3    H274388   4.089   4.902  14.184  0.1037  1.5321 -0.6751
17633TIP3   OH274389   6.768   5.732   3.630  0.0113 -0.1937  0.3543
17633TIP3    H174390   6.742   5.721   3.721 -1.6882 -0.5282 -0.1450
17633TIP3    H274391   6.844   5.674   3.620  2.0391  1.9016  2.2159
17634TIP3   OH274392   1.774   2.858  13.218 -0.4200 -0.1067 -0.3454
17634TIP3    H174393   1.745   2.886  13.304  0.7998  1.4415 -0.3966
17634TIP3    H274394   1.785   2.939  13.168  1.4670 -0.7597 -1.0926
17635TIP3   OH274395   0.950   4.630  12.981 -0.2783  0.3701  0.3783
17635TIP3    H174396   0.910   4.561  12.928  0.1308 -0.3179  0.9486
17635TIP3    H274397   1.044   4.616  12.973 -0.1963  0.6622  0.7590
17636TIP3   OH274398   4.727   5.031  16.949 -0.3816 -0.1898 -0.2693
17636TIP3    H174399   4.816   5.067  16.939 -0.5535  0.4211  0.3695
17636TIP3    H274400   4.670   5.095  16.906 -0.7603  0.6866  1.4603
17637TIP3   OH274401   5.400   5.075   0.851 -0.3892  0.1751  0.9599
17637TIP3    H174402   5.424   5.167   0.851  0.4886 -0.0466  0.7081
17637TIP3    H274403   5.342   5.064   0.775 -0.0109  0.3957  0.6400
17638TIP3   OH274404   3.992   2.550  16.084 -0.3890  0.0022 -0.2381
17638TIP3    H174405   3.923   2.527  16.146 -0.3424  0.8458  0.1453
17638TIP3    H274406   4.030   2.631  16.119 -0.3905  0.5255 -1.3881
17639TIP3   OH274407   4.310   4.847  11.408 -0.0611  0.3962  0.1886
17639TIP3    H174408   4.315   4.905  11.332 -0.4977  0.8905  0.5280
17639TIP3    H274409   4.284   4.763  11.372 -0.5833  0.7061 -0.1789
17640TIP3   OH274410   4.313   0.470  16.471  0.0190  0.0328  0.2315
17640TIP3    H174411   4.274   0.392  16.432  1.1557 -1.3396  1.7367
17640TIP3    H274412   4.389   0.489  16.417 -1.5323  1.5969 -1.5690
17641TIP3   OH274413   3.417   6.731  10.867  0.2618  0.4051 -0.1617
17641TIP3    H174414   3.389   6.821  10.850  0.3026  0.4429 -0.0294
17641TIP3    H274415   3.451   6.700  10.783 -1.3461 -0.0732 -0.6768
17642TIP3   OH274416   5.293   0.526   2.949  0.0587 -0.0367  0.5945
17642TIP3    H174417   5.338   0.468   3.010 -1.2716 -1.2363  0.5006
17642TIP3    H274418   5.204   0.533   2.984 -0.2720  0.5836 -0.3180
17643TIP3   OH274419   3.732   6.648   5.454 -0.0438 -0.0253 -0.5204
17643TIP3    H174420   3.701   6.737   5.433 -1.9955 -0.4480  0.3586
17643TIP3    H274421   3.665   6.590   5.417  0.8740 -1.1093 -0.5174
17644TIP3   OH274422   1.452   6.265   0.861 -0.5832  0.1493 -0.0174
17644TIP3    H174423   1.423   6.185   0.906  2.3937 -0.0760  1.7831
17644TIP3    H274424   1.374   6.297   0.817 -2.8833 -1.6293  2.4026
17645TIP3   OH274425   6.192   4.436   5.844 -0.0352 -0.4348 -0.3674
17645TIP3    H174426   6.188   4.478   5.930 -3.2271  1.2070 -1.1684
17645TIP3    H274427   6.232   4.501   5.787  0.0677 -0.6727 -0.5720
17646TIP3   OH274428   4.874   5.606  14.641  0.0880 -0.3318  0.0102
17646TIP3    H174429   4.935   5.541  14.676  0.8724  1.5694  2.4921
17646TIP3    H274430   4.812   5.622  14.712  0.8658  2.6808  0.1663
17647TIP3   OH274431   0.937   5.673   3.774 -0.1214  0.2901  0.6158
17647TIP3    H174432   0.966   5.582   3.772 -0.6025 -0.1237  4.4182
17647TIP3    H274433   0.989   5.713   3.844 -0.5306  2.7232 -0.3921
17648TIP3   OH274434   0.451   5.970  16.261  0.3348  0.0430  0.1076
17648TIP3    H174435   0.443   6.054  16.215 -0.5277 -0.4034 -0.5815
17648TIP3    H274436   0.363   5.933  16.258  1.0987 -1.8167 -1.3995
17649TIP3   OH274437   0.266   6.792   2.650  0.3579  0.7718 -0.2385
17649TIP3    H174438   0.294   6.866   2.596  0.5418  0.4150 -0.6400
17649TIP3    H274439   0.246   6.723   2.587  1.7445 -0.0538  0.1708
17650TIP3   OH274440   6.739   4.824   2.147  0.1055  0.5818  0.1488
17650TIP3    H174441   6.720   4.886   2.218  1.1057  1.0718  0.0124
17650TIP3    H274442   6.718   4.739   2.183  1.2466  0.7535  1.3138
17651TIP3   OH274443   2.818   3.050  15.682 -0.1165 -0.1931 -0.7698
17651TIP3    H174444   2.814   3.067  15.588 -1.4583  0.2668 -0.6426
17651TIP3    H274445   2.885   2.982  15.690 -1.8951 -2.2678 -2.3603
17652TIP3   OH274446   6.065   1.640   1.434  0.1117 -0.1998 -0.9533
17652TIP3    H174447   5.980   1.601   1.456  0.3493 -0.3536 -0.2870
17652TIP3    H274448   6.042   1.725   1.395 -0.3741 -0.6383 -1.6552
17653TIP3   OH274449   0.590   2.054   3.708 -0.1915 -0.0395  0.4012
17653TIP3    H174450   0.520   2.105   3.666 -1.6914 -1.6183  0.8751
17653TIP3    H274451   0.566   2.053   3.801  0.8286 -0.0822  0.6747
17654TIP3   OH274452   5.005   5.961  16.905  0.1060  0.5789 -0.2982
17654TIP3    H174453   4.927   5.905  16.896 -0.1164  0.4187  1.9980
17654TIP3    H274454   4.982   6.042  16.860 -3.1864  2.1617  3.5510
17655TIP3   OH274455   6.466   1.364  12.726  0.1937 -0.2329  0.5957
17655TIP3    H174456   6.481   1.458  12.718 -0.3380 -0.1369  0.6929
17655TIP3    H274457   6.494   1.328  12.642  1.9846 -0.2065  1.1562
17656TIP3   OH274458   5.367   2.365  13.815  0.4339  0.4250  0.5717
17656TIP3    H174459   5.389   2.316  13.895 -0.1057  0.6231  0.8425
17656TIP3    H274460   5.419   2.322  13.747 -0.0063 -0.5311  0.8078
17657TIP3   OH274461   2.808   6.080  16.328  0.4047  0.2863  0.2182
17657TIP3    H174462   2.717   6.109  16.330  0.4921  0.6554 -0.5618
17657TIP3    H274463   2.804   5.992  16.290  0.3930  0.4139 -0.0804
17658TIP3   OH274464   1.142   5.558  16.525  0.1965  0.1759 -0.0863
17658TIP3    H174465   1.198   5.482  16.538  0.1285  0.3988  1.7605
17658TIP3    H274466   1.187   5.610  16.458  2.0269  0.1601  1.0614
17659TIP3   OH274467   1.871   4.282  16.467  0.4634  0.0828 -0.2845
17659TIP3    H174468   1.876   4.374  16.444 -2.4647 -0.0231 -1.8471
17659TIP3    H274469   1.906   4.236  16.391  0.2092 -0.1008 -0.2945
17660TIP3   OH274470   2.013   6.791  13.096 -0.3606  0.1755  0.7036
17660TIP3    H174471   2.100   6.754  13.082  0.5551  2.3444  0.3286
17660TIP3    H274472   1.956   6.714  13.103  1.8003 -1.3730  2.9128
17661TIP3   OH274473   4.157   2.848   5.261  0.4559 -0.3542  0.3012
17661TIP3    H174474   4.200   2.763   5.253  1.6327  0.3453 -1.4994
17661TIP3    H274475   4.123   2.866   5.173  1.8664  1.8319  0.1414
17662TIP3   OH274476   0.761   1.711  16.553 -0.2567  0.0027 -0.4135
17662TIP3    H174477   0.796   1.694  16.641  1.5730  1.8212 -0.7072
17662TIP3    H274478   0.727   1.800  16.558 -0.6459 -0.0843 -1.4086
17663TIP3   OH274479   1.391   5.078  13.974 -0.4389  0.4168  0.2806
17663TIP3    H174480   1.300   5.061  13.999 -0.3981  0.8538  0.7513
17663TIP3    H274481   1.400   5.173  13.983 -0.0310  0.4146 -0.0978
17664TIP3   OH274482   5.274   1.074   4.641  0.4075  0.2292 -0.1920
17664TIP3    H174483   5.181   1.073   4.620  0.3497  0.2693  0.0696
17664TIP3    H274484   5.282   1.022   4.721  0.5823  0.4042 -0.0943
17665TIP3   OH274485   5.169   5.669  13.715 -0.2086  0.0419 -0.1089
17665TIP3    H174486   5.232   5.602  13.744  0.4961  0.7354 -0.0079
17665TIP3    H274487   5.199   5.693  13.627  0.6787  1.5540  0.5739
17666TIP3   OH274488   1.572   3.346  13.813 -0.0719 -0.2993 -0.0891
17666TIP3    H174489   1.489   3.365  13.769 -0.9799 -1.8723  0.8884
17666TIP3    H274490   1.600   3.262  13.778  2.0408  0.9343 -1.6571
17667TIP3   OH274491   0.005   3.662  17.005 -0.2050 -0.6411 -0.0887
17667TIP3    H174492   0.066   3.724  16.966  0.0079 -0.1501  0.9859
17667TIP3    H274493   0.049   3.577  16.995  1.1038 -0.2034  1.4241
17668TIP3   OH274494   0.644   1.384  10.477 -0.1051 -0.2405 -0.0994
17668TIP3    H174495   0.621   1.471  10.445  0.3805 -0.5282 -1.2912
17668TIP3    H274496   0.708   1.351  10.413 -0.4406 -1.5589  0.2130
17669TIP3   OH274497   3.208   6.125  11.249  0.2524  0.6773  0.1379
17669TIP3    H174498   3.175   6.039  11.223  0.7418  0.4927  0.1219
17669TIP3    H274499   3.141   6.187  11.218  0.0506  0.3284 -0.1247
17670TIP3   OH274500   2.871   4.436  12.006 -0.6846 -0.4104 -0.0149
17670TIP3    H174501   2.842   4.496  11.937  1.6803 -1.3544 -1.9793
17670TIP3    H274502   2.966   4.431  11.994 -0.2580 -1.1271  2.9688
17671TIP3   OH274503   3.672   0.704   0.884 -0.8370  0.2628 -0.6588
17671TIP3    H174504   3.736   0.666   0.945 -2.4556 -2.0606 -0.2613
17671TIP3    H274505   3.599   0.731   0.940 -1.1876  0.7028 -1.3155
17672TIP3   OH274506   5.930   0.306   3.431 -0.2544 -0.4327  0.3226
17672TIP3    H174507   5.928   0.273   3.521  0.1566  0.0017  0.4950
17672TIP3    H274508   5.880   0.242   3.381  1.8278 -2.1745  0.3586
17673TIP3   OH274509   5.325   4.182  14.684 -0.5504  0.1882  0.1953
17673TIP3    H174510   5.414   4.215  14.699 -0.9599  0.6803  1.6763
17673TIP3    H274511   5.329   4.090  14.711  0.0020 -0.4204 -1.7485
17674TIP3   OH274512   3.959   5.510   3.667  0.6743  0.4533 -0.2147
17674TIP3    H174513   4.014   5.572   3.716 -1.3591  0.9120  1.6532
17674TIP3    H274514   3.880   5.560   3.647  0.2039 -0.6955 -1.2769
17675TIP3   OH274515   1.782   6.010   3.990  0.3118  0.3110  0.1454
17675TIP3    H174516   1.764   6.090   3.939  0.6369  0.2309 -0.0973
17675TIP3    H274517   1.750   5.939   3.934 -3.8079  0.4272  2.0020
17676TIP3   OH274518   6.678   3.971  13.690 -0.2385 -0.6432  0.5609
17676TIP3    H174519   6.650   4.058  13.663  2.2429  0.8893  2.3959
17676TIP3    H274520   6.660   3.915  13.615 -0.7278  1.7250 -1.2105
17677TIP3   OH274521   3.749   1.153   1.802  0.0299  0.1387 -0.2527
17677TIP3    H174522   3.800   1.075   1.825  0.5610  0.8258  1.0263
17677TIP3    H274523   3.658   1.128   1.819 -0.0804 -0.9861 -2.2232
17678TIP3   OH274524   3.910   6.628   2.407 -0.3659  0.0798 -0.2641
17678TIP3    H174525   3.869   6.714   2.412 -0.6315  0.0109 -1.1457
17678TIP3    H274526   3.997   6.641   2.444 -1.6505 -0.1331  3.2556
17679TIP3   OH274527   2.136   2.883   4.212 -0.0959 -0.2010 -0.0331
17679TIP3    H174528   2.046   2.862   4.236 -1.3800  2.5789 -1.9207
17679TIP3    H274529   2.170   2.933   4.286  0.1640 -1.6795  0.9024
17680TIP3   OH274530   2.974   2.250   0.721  0.1157 -0.1400  0.0449
17680TIP3    H174531   2.932   2.325   0.763 -0.3759 -0.3597 -0.0560
17680TIP3    H274532   2.904   2.186   0.710  0.4340 -0.4320 -0.2988
17681TIP3   OH274533   3.519   0.179  16.788 -0.8276  0.5699  0.0805
17681TIP3    H174534   3.521   0.228  16.706 -2.5874  0.1954 -0.2171
17681TIP3    H274535   3.601   0.129  16.788 -0.2038  1.5559 -0.8158
17682TIP3   OH274536   3.009   0.683  13.326 -0.1073  0.1506  0.1822
17682TIP3    H174537   2.928   0.666  13.373 -1.6692  2.1060 -1.5904
17682TIP3    H274538   3.037   0.769  13.358  0.2853  0.2781 -0.4897
17683TIP3   OH274539   0.993   2.007   3.447 -0.1622  0.0391 -0.1008
17683TIP3    H174540   0.909   1.970   3.475  0.4288 -0.7734  0.6782
17683TIP3    H274541   1.015   2.070   3.516  0.8868 -1.3386  0.8750
17684TIP3   OH274542   6.071   2.729  12.270 -0.1748  0.2348  0.4800
17684TIP3    H174543   5.994   2.675  12.258  0.8437 -0.8892 -1.5381
17684TIP3    H274544   6.131   2.675  12.322  0.2609  0.0070 -0.2439
17685TIP3   OH274545   4.560   1.705  11.748  0.4517  0.1830  0.1712
17685TIP3    H174546   4.620   1.636  11.720 -2.2779 -2.5056  0.4198
17685TIP3    H274547   4.498   1.714  11.676 -1.6478 -0.6937  1.7546
17686TIP3   OH274548   0.803   4.267  15.962  0.0827  0.2200 -0.3808
17686TIP3    H174549   0.859   4.232  15.893  1.3445  0.4215  0.5041
17686TIP3    H274550   0.773   4.351  15.929 -0.5296 -0.3427 -1.2813
17687TIP3   OH274551   5.534   1.269  11.932 -0.2037 -0.4723  0.2373
17687TIP3    H174552   5.523   1.312  12.017 -0.3287  0.5889 -0.2876
17687TIP3    H274553   5.619   1.301  11.900 -0.1686 -0.8413 -0.0416
17688TIP3   OH274554   0.295   0.605   1.018 -0.5471 -0.4247 -0.1200
17688TIP3    H174555   0.357   0.556   0.964  0.1000  0.7133 -0.4580
17688TIP3    H274556   0.304   0.568   1.105  1.5495  0.5137  0.1170
17689TIP3   OH274557   3.845   4.156   5.092  0.1144 -0.3224  0.4682
17689TIP3    H174558   3.767   4.201   5.125 -0.3229 -1.0309  0.4236
17689TIP3    H274559   3.852   4.185   5.001  1.7426  2.2034  1.3069
17690TIP3   OH274560   3.216   5.626  11.735 -0.3351  0.3244 -0.1739
17690TIP3    H174561   3.146   5.655  11.793 -0.0350  1.1379 -0.1963
17690TIP3    H274562   3.268   5.565  11.789  0.4239  1.7065  0.7302
17691TIP3   OH274563   0.024   6.789   1.460  0.7752  0.0163 -0.2804
17691TIP3    H174564   0.074   6.856   1.508 -0.0215  0.0585  0.5202
17691TIP3    H274565  -0.043   6.838   1.413 -0.7440 -0.2734  1.4544
17692TIP3   OH274566   2.533   0.214   2.110  0.1767  1.4749 -0.2610
17692TIP3    H174567   2.624   0.206   2.136 -0.6915 -1.7316  2.5288
17692TIP3    H274568   2.536   0.235   2.017  3.6952  1.8951 -0.1695
17693TIP3   OH274569   0.843   1.997  15.284 -0.6911 -0.2878 -0.1746
17693TIP3    H174570   0.799   2.017  15.201  0.2028  0.9400 -0.3683
17693TIP3    H274571   0.771   1.991  15.348 -1.2090  1.2296 -0.5676
17694TIP3   OH274572   2.377   4.491  15.152  0.1921  0.5031 -0.0982
17694TIP3    H174573   2.283   4.509  15.142  0.5536  1.8642 -1.4307
17694TIP3    H274574   2.401   4.445  15.072  1.0307  1.9339 -0.7050
17695TIP3   OH274575   3.449   2.407  13.352  0.2186  0.1261 -0.3733
17695TIP3    H174576   3.361   2.382  13.323 -0.2573  0.0884  1.0019
17695TIP3    H274577   3.463   2.493  13.313  0.3421 -0.6437 -2.1048
17696TIP3   OH274578   3.011   5.656   4.060  0.2703 -0.2429 -0.4779
17696TIP3    H174579   3.065   5.730   4.033  1.3170 -0.5394  0.7195
17696TIP3    H274580   3.036   5.585   4.001 -0.0397  0.0829 -1.0061
17697TIP3   OH274581   5.757   2.577   2.525 -0.2184  0.5808 -0.0780
17697TIP3    H174582   5.702   2.576   2.447 -0.3011 -0.1134 -0.0171
17697TIP3    H274583   5.847   2.575   2.492 -0.2522  0.3677 -0.1550
17698TIP3   OH274584   1.118   0.624   2.723  0.4969  0.0921 -0.1940
17698TIP3    H174585   1.138   0.628   2.630  1.4323  0.2830  0.0139
17698TIP3    H274586   1.196   0.586   2.763 -0.0543 -0.3699  0.4706
17699TIP3   OH274587   3.906   3.913   5.300 -0.0417 -0.2932  0.1093
17699TIP3    H174588   3.923   3.996   5.256  1.5067  1.0979  3.0563
17699TIP3    H274589   3.992   3.871   5.306 -0.0962 -0.2146  2.0813
17700TIP3   OH274590   5.598   5.119  11.078  0.3474  0.0296 -0.0029
17700TIP3    H174591   5.580   5.213  11.072  2.2611  0.4142 -0.2387
17700TIP3    H274592   5.609   5.103  11.172  0.9812  0.2571 -0.0315
17701TIP3   OH274593   3.121   4.318   0.377 -0.2093 -0.3625  0.6445
17701TIP3    H174594   3.032   4.283   0.382 -0.0292 -1.1542 -0.9389
17701TIP3    H274595   3.175   4.253   0.424 -0.2814 -0.6452  0.3408
17702TIP3   OH274596   2.207   3.472   5.239 -0.3939  0.6432 -0.1326
17702TIP3    H174597   2.129   3.525   5.256 -0.4120  0.8007 -0.6772
17702TIP3    H274598   2.225   3.429   5.322 -2.9623 -1.9141 -0.7266
17703TIP3   OH274599   0.611   5.010  17.112 -0.2501 -0.1284 -0.6285
17703TIP3    H174600   0.678   5.070  17.146  0.2023 -1.1144  0.2679
17703TIP3    H274601   0.553   4.994  17.187 -1.0451  0.0864 -1.1814
17704TIP3   OH274602   0.831   0.724   3.937 -0.4345 -0.0455 -0.4173
17704TIP3    H174603   0.824   0.710   3.842  1.4290 -1.2592 -0.4305
17704TIP3    H274604   0.874   0.809   3.944 -0.4990  0.0109 -0.6710
17705TIP3   OH274605   4.204   1.155   1.037  0.5080 -0.2518 -0.2972
17705TIP3    H174606   4.130   1.117   1.085  0.4840 -0.4369 -0.4758
17705TIP3    H274607   4.213   1.243   1.072  1.9452 -1.1123  1.7151
17706TIP3   OH274608   3.024   3.514  12.377 -0.3985 -0.4293 -0.5422
17706TIP3    H174609   3.032   3.426  12.340 -0.4673 -0.3970 -0.6343
17706TIP3    H274610   3.096   3.563  12.338 -0.2396 -0.4993 -0.3356
17707TIP3   OH274611   4.719   2.103  10.984 -0.0920 -0.1044  0.3140
17707TIP3    H174612   4.776   2.172  11.018 -1.2645  0.8581  0.3802
17707TIP3    H274613   4.756   2.081  10.899  1.8281 -1.2809  1.3596
17708TIP3   OH274614   0.572   1.131   0.051 -0.6352 -0.5142 -0.7071
17708TIP3    H174615   0.489   1.089   0.031 -1.1987 -0.4378  1.2423
17708TIP3    H274616   0.549   1.202   0.111  0.5423  1.2509 -2.2650
17709TIP3   OH274617   1.333   1.297   1.073  0.4907 -0.1235  0.2533
17709TIP3    H174618   1.370   1.214   1.100  1.1963  0.5201  1.3102
17709TIP3    H274619   1.286   1.277   0.992 -0.3272 -1.7696  1.0971
17710TIP3   OH274620   3.746   1.402   1.667 -0.1094 -0.2477 -0.0029
17710TIP3    H174621   3.739   1.323   1.719 -3.4842 -0.2020 -0.1402
17710TIP3    H274622   3.819   1.386   1.606 -0.2200 -2.8980  0.4867
17711TIP3   OH274623   6.072   6.452   3.954  0.2331 -0.3287  0.0871
17711TIP3    H174624   6.110   6.458   4.041  0.1585  1.9661  0.0149
17711TIP3    H274625   6.125   6.512   3.901 -0.5176 -0.7218 -1.1495
17712TIP3   OH274626   2.112   0.495  14.768 -0.5212  0.2853  1.1679
17712TIP3    H174627   2.201   0.464  14.755  0.0188  1.4958  1.7671
17712TIP3    H274628   2.074   0.497  14.680  0.1233 -0.0194  0.8773
17713TIP3   OH274629   5.314   3.046  13.096 -0.2145  0.4092  0.0850
17713TIP3    H174630   5.327   2.973  13.156 -1.3176  0.5898  0.5822
17713TIP3    H274631   5.350   3.122  13.143 -1.4498  0.6232  0.7305
17714TIP3   OH274632   4.342   4.191  16.859 -0.0594 -0.2946  0.6680
17714TIP3    H174633   4.390   4.116  16.895  0.2047 -0.0418  0.8459
17714TIP3    H274634   4.254   4.182  16.893 -0.5989 -1.6552 -0.9063
17715TIP3   OH274635   2.571   1.651   2.946 -0.3579 -0.8948  0.1828
17715TIP3    H174636   2.577   1.743   2.971 -0.1898 -1.0918  0.8902
17715TIP3    H274637   2.546   1.652   2.853  0.1494 -0.1322  0.0511
17716TIP3   OH274638   4.239   2.555  13.709 -0.3973 -0.2966  0.2916
17716TIP3    H174639   4.251   2.644  13.742 -1.5827 -0.7034  1.9352
17716TIP3    H274640   4.249   2.563  13.614  2.4153  1.0788  0.5732
17717TIP3   OH274641   0.745   2.659   2.622  0.3020  0.0997 -0.0068
17717TIP3    H174642   0.655   2.673   2.589  0.6479 -0.1677 -1.1230
17717TIP3    H274643   0.792   2.737   2.595  1.0039 -0.8588 -1.7183
17718TIP3   OH274644   2.954   0.315  15.562  0.3238 -0.4919  0.2160
17718TIP3    H174645   2.876   0.370  15.559 -1.3508 -2.7940 -1.0472
17718TIP3    H274646   2.943   0.261  15.640  0.3436 -1.2562 -0.3045
17719TIP3   OH274647   4.021   3.714  12.479 -0.2594 -0.0135 -0.1693
17719TIP3    H174648   4.007   3.739  12.388  0.1475  0.6133 -0.0651
17719TIP3    H274649   3.991   3.789  12.530  1.1200  0.3517  0.1444
17720TIP3   OH274650   0.318   3.276  15.379  0.0342  0.1925 -0.2434
17720TIP3    H174651   0.226   3.284  15.405  0.3752  0.0963  1.0392
17720TIP3    H274652   0.366   3.269  15.461  1.2639  0.8593 -0.8801
17721TIP3   OH274653   1.572   0.177   3.892 -0.7254 -0.2098  0.0197
17721TIP3    H174654   1.485   0.151   3.922 -1.2209  1.8704  0.5580
17721TIP3    H274655   1.581   0.268   3.920  1.9555 -0.5796  0.6473
17722TIP3   OH274656   1.033   2.752   1.241 -0.3745 -0.2749 -0.5571
17722TIP3    H174657   0.953   2.725   1.196 -0.3903 -0.8616 -0.1854
17722TIP3    H274658   1.103   2.703   1.198 -0.3923 -0.8489  0.0667
17723TIP3   OH274659   2.636   2.359  15.253  0.1617 -0.1180  0.0172
17723TIP3    H174660   2.694   2.398  15.187 -0.5734  0.1559 -0.4758
17723TIP3    H274661   2.625   2.268  15.225  0.4909 -0.2198  0.2113
17724TIP3   OH274662   6.111   6.019  14.151  0.4983  0.3105  0.0365
17724TIP3    H174663   6.061   6.055  14.078  1.0281 -0.2074 -0.5861
17724TIP3    H274664   6.057   5.947  14.185  0.8718 -0.3368 -0.7208
17725TIP3   OH274665   0.134   3.301  13.347 -0.4962 -0.1935  0.1223
17725TIP3    H174666   0.135   3.214  13.307 -0.4586  0.2676 -0.9223
17725TIP3    H274667   0.212   3.302  13.402 -0.1986 -0.6416 -0.2731
17726TIP3   OH274668   1.738   6.807   0.451 -0.5334 -0.2417 -0.2784
17726TIP3    H174669   1.702   6.848   0.373  0.4457  0.0264 -0.6143
17726TIP3    H274670   1.822   6.770   0.423 -0.1216 -0.0675  0.6526
17727TIP3   OH274671   4.208   2.911   3.457 -0.6928  0.2207  0.3871
17727TIP3    H174672   4.303   2.920   3.454 -0.6932  0.6978  1.4065
17727TIP3    H274673   4.188   2.893   3.549 -1.6543  0.9502  0.3423
17728TIP3   OH274674   6.333   6.524   1.976  0.0005 -0.6259  0.9365
17728TIP3    H174675   6.244   6.522   2.012 -0.0844  0.5125  0.8049
17728TIP3    H274676   6.321   6.522   1.881  0.0821  0.2768  0.9025
17729TIP3   OH274677   0.704   3.766  16.244  0.2709  0.3387 -0.3357
17729TIP3    H174678   0.701   3.696  16.177  0.1765 -0.5205  0.5435
17729TIP3    H274679   0.614   3.772  16.276  0.0874  1.5016 -1.0178
17730TIP3   OH274680   4.366   3.373   0.420  0.4250  0.1284  0.1786
17730TIP3    H174681   4.450   3.344   0.385  1.1329  0.6678  1.4073
17730TIP3    H274682   4.381   3.463   0.450 -0.7548  0.4613 -0.1434
17731TIP3   OH274683   0.284   5.408   2.419  0.5538  0.0791  0.1149
17731TIP3    H174684   0.294   5.437   2.510 -0.0609 -0.2331  0.2939
17731TIP3    H274685   0.197   5.440   2.394  0.2330 -0.8308  0.0305
17732TIP3   OH274686   6.752   6.303   5.673 -0.2531  0.3034 -0.2428
17732TIP3    H174687   6.809   6.343   5.739 -0.6812  3.1395 -1.4405
17732TIP3    H274688   6.801   6.313   5.591 -1.2039  0.0492 -0.8527
17733TIP3   OH274689   0.981   2.086  16.929 -0.2802 -0.1430  0.4045
17733TIP3    H174690   0.950   1.997  16.945 -2.4521  0.2814 -1.0491
17733TIP3    H274691   0.991   2.124  17.016 -1.8251 -1.0128  1.0059
17734TIP3   OH274692   0.468   3.709  11.854 -0.4825 -0.4486 -0.1577
17734TIP3    H174693   0.531   3.642  11.828 -1.3881 -0.6832 -1.9041
17734TIP3    H274694   0.491   3.785  11.800 -1.1345 -0.2438 -0.1575
17735TIP3   OH274695   5.561   0.215   2.490  0.0359 -0.3769 -0.1240
17735TIP3    H174696   5.567   0.132   2.538 -0.9266 -0.3907 -0.0109
17735TIP3    H274697   5.595   0.194   2.403 -1.0041 -1.1288 -0.3684
17736TIP3   OH274698   1.810   1.918  13.995  0.5996  0.1634  0.8635
17736TIP3    H174699   1.737   1.856  13.990  0.6039  0.2647 -1.1475
17736TIP3    H274700   1.885   1.863  14.019  1.0484 -1.1329 -2.9041
17737TIP3   OH274701   4.683   6.246   2.350  0.0027 -0.5355 -0.1720
17737TIP3    H174702   4.666   6.153   2.335 -2.1780 -0.0365 -1.2344
17737TIP3    H274703   4.690   6.253   2.445  1.3869 -1.9257 -0.1273
17738TIP3   OH274704   5.598   4.907   5.642  0.1081 -0.5017 -0.2092
17738TIP3    H174705   5.631   4.856   5.716  1.1615  1.3732  0.7134
17738TIP3    H274706   5.653   4.882   5.568  0.4733 -0.8559  0.1790
17739TIP3   OH274707   2.909   2.204  13.790  0.6284 -0.5043  0.0092
17739TIP3    H174708   2.854   2.145  13.841 -1.4725  1.2503 -0.0963
17739TIP3    H274709   2.957   2.255  13.856 -0.0991 -0.0416  0.1863
17740TIP3   OH274710   4.856   1.246   5.593 -0.8652  0.3450 -0.0134
17740TIP3    H174711   4.855   1.326   5.540 -0.2247  0.0142 -0.5395
17740TIP3    H274712   4.780   1.197   5.564 -0.7526  0.3558 -0.3287
17741TIP3   OH274713   1.631   3.996  16.652 -0.4751  0.6204 -0.3053
17741TIP3    H174714   1.590   3.975  16.736  0.9313  1.4728  0.6407
17741TIP3    H274715   1.638   4.092  16.653  0.2114  0.5887 -1.0686
17742TIP3   OH274716   4.313   5.645  12.911 -0.1306  0.5443 -0.2777
17742TIP3    H174717   4.318   5.639  12.816  1.3645 -1.6454 -0.1367
17742TIP3    H274718   4.345   5.733  12.931  0.0455  0.8383 -1.7726
17743TIP3   OH274719   6.373   1.219  13.536  0.5277 -0.0675  0.2023
17743TIP3    H174720   6.291   1.266  13.523  0.4657  0.2078  1.4683
17743TIP3    H274721   6.352   1.128  13.518  0.6837  0.3323 -2.4389
17744TIP3   OH274722   2.222   5.467   1.105 -0.2162 -0.0740  0.6087
17744TIP3    H174723   2.176   5.550   1.118 -0.3883 -0.1204  0.3014
17744TIP3    H274724   2.248   5.467   1.013  1.4085  0.4623  1.0275
17745TIP3   OH274725   2.956   3.577  11.696 -0.2717 -0.6389 -0.6895
17745TIP3    H174726   3.009   3.595  11.619  0.6114  0.6680  0.1874
17745TIP3    H274727   2.885   3.521  11.663 -0.2870  0.3931 -2.5743
17746TIP3   OH274728   4.885   3.214  15.891 -0.1102 -0.3095  0.0743
17746TIP3    H174729   4.873   3.187  15.800 -1.7505  1.1328 -0.1933
17746TIP3    H274730   4.800   3.250  15.916 -0.3230 -2.4597  2.8267
17747TIP3   OH274731   5.211   2.859   5.094  0.6236 -0.2217  0.2004
17747TIP3    H174732   5.296   2.902   5.083  1.3729 -1.1267  2.0975
17747TIP3    H274733   5.230   2.766   5.092 -0.4374 -0.4505 -0.0199
17748TIP3   OH274734   5.537   1.618  11.802 -0.1752 -0.0865 -0.0620
17748TIP3    H174735   5.611   1.635  11.744  0.2892 -0.6338  0.3604
17748TIP3    H274736   5.564   1.655  11.886  0.5748 -2.2347  0.6988
17749TIP3   OH274737   1.050   4.395  15.020 -0.2995 -0.5275  0.1870
17749TIP3    H174738   0.987   4.351  15.077 -0.8162  1.6007  1.3599
17749TIP3    H274739   1.006   4.475  14.992  0.9012 -0.3006 -1.1643
17750TIP3   OH274740   0.593   3.372  16.750  0.2993 -0.2905 -0.4792
17750TIP3    H174741   0.610   3.463  16.771 -0.2539  0.0635 -1.5099
17750TIP3    H274742   0.634   3.323  16.821 -0.4540  0.7970  0.7521
17751TIP3   OH274743   3.339   2.136  16.488  0.4935 -0.1332 -0.5702
17751TIP3    H174744   3.428   2.104  16.473  1.1525  1.1081  0.4547
17751TIP3    H274745   3.343   2.179  16.573 -0.9779  0.3424 -0.7116
17752TIP3   OH274746   5.395   5.772   5.402  0.1329  0.9505 -0.2040
17752TIP3    H174747   5.405   5.677   5.408  2.1818  1.0834 -0.9035
17752TIP3    H274748   5.366   5.788   5.313 -0.3150  0.9941 -0.0550
17753TIP3   OH274749   1.860   3.754  11.946 -0.5196  0.0691  0.5099
17753TIP3    H174750   1.905   3.837  11.934  1.9928 -0.4509  4.2893
17753TIP3    H274751   1.811   3.765  12.028 -3.1758 -1.1266 -0.7859
17754TIP3   OH274752   0.426   2.192  17.007  0.2764 -0.3964 -0.2190
17754TIP3    H174753   0.403   2.104  17.037  0.8719 -0.9326 -1.3061
17754TIP3    H274754   0.350   2.222  16.958 -0.3039  0.0943  0.9250
17755TIP3   OH274755   3.649   0.644  11.323 -0.0265  0.6422  0.0039
17755TIP3    H174756   3.638   0.583  11.396  1.6709  1.3597  0.9150
17755TIP3    H274757   3.587   0.613  11.257 -1.4807 -0.1577  1.6486
17756TIP3   OH274758   4.588   2.665   4.204  0.2885  0.0573 -0.5324
17756TIP3    H174759   4.568   2.726   4.133  1.1956  0.8524 -0.1318
17756TIP3    H274760   4.571   2.715   4.284  2.7069  0.4369 -0.1729
17757TIP3   OH274761   3.225   1.193  11.206 -0.5185  0.0211  1.0715
17757TIP3    H174762   3.201   1.166  11.295 -1.5737 -0.1231  0.7603
17757TIP3    H274763   3.298   1.136  11.182 -1.5318 -1.3421  1.1007
17758TIP3   OH274764   3.913   0.818  13.822 -0.0784  0.1695  0.4095
17758TIP3    H174765   3.879   0.729  13.806 -2.9530  1.5723 -2.6856
17758TIP3    H274766   3.946   0.846  13.737 -1.0617  2.6892  0.7638
17759TIP3   OH274767   2.939   2.118  14.936 -0.4687 -0.2402 -0.2872
17759TIP3    H174768   2.913   2.193  14.990  0.0711  0.3253 -0.8013
17759TIP3    H274769   2.868   2.055  14.948 -0.0602 -0.4086  1.6146
17760TIP3   OH274770   2.438   5.293   5.259 -0.3970  1.2049  0.4250
17760TIP3    H174771   2.477   5.212   5.227  1.6222  2.3508 -0.2428
17760TIP3    H274772   2.431   5.281   5.353 -1.8770 -0.4120  0.1416
17761TIP3   OH274773   6.260   0.990  11.845 -0.2246 -0.5227  0.3731
17761TIP3    H174774   6.320   1.028  11.909 -0.8105 -0.0389  0.6452
17761TIP3    H274775   6.218   1.066  11.803 -1.8424 -0.8451  1.3325
17762TIP3   OH274776   6.601   5.075  12.581 -0.1220  0.6041  0.1397
17762TIP3    H174777   6.555   5.148  12.622  0.1574  1.7971 -1.5764
17762TIP3    H274778   6.621   5.105  12.492  1.3287 -1.0049 -0.1450
17763TIP3   OH274779   5.792   4.688  10.223  0.5617 -0.3330  0.2432
17763TIP3    H174780   5.789   4.773  10.266  1.7155 -0.1267 -0.0449
17763TIP3    H274781   5.706   4.678  10.183 -0.1570 -0.0415  1.6538
17764TIP3   OH274782   0.565   6.710   3.327  0.5114 -0.3193  0.5517
17764TIP3    H174783   0.542   6.733   3.417  0.0427 -2.6888  1.1317
17764TIP3    H274784   0.482   6.712   3.280  0.2084 -2.0064  0.9460
17765TIP3   OH274785   6.781   2.909   1.230  0.1978  0.5903  0.1387
17765TIP3    H174786   6.794   2.955   1.147  0.5293  2.1187  1.0040
17765TIP3    H274787   6.844   2.837   1.227 -0.5936 -0.0845 -1.4052
17766TIP3   OH274788   2.366   2.441  13.423  0.0704 -0.1683  0.1264
17766TIP3    H174789   2.447   2.473  13.463  0.6910 -3.3869  1.8437
17766TIP3    H274790   2.390   2.420  13.333  0.2216  1.8831 -0.3434
17767TIP3   OH274791   2.174   2.063   5.388 -0.6571 -0.1532 -0.1276
17767TIP3    H174792   2.157   2.074   5.482 -2.1616 -2.8821  0.0145
17767TIP3    H274793   2.175   2.153   5.354  3.4989  1.2673  2.9098
17768TIP3   OH274794   4.977   6.279  10.619 -0.7796  0.6257 -0.3534
17768TIP3    H174795   5.022   6.239  10.694  0.0776  0.0238 -1.1719
17768TIP3    H274796   5.040   6.343  10.585 -1.0109  0.6094 -0.8054
17769TIP3   OH274797   4.463   4.207   0.150  0.0758  0.2567  0.0497
17769TIP3    H174798   4.519   4.170   0.220  0.6891  1.0192 -0.0261
17769TIP3    H274799   4.506   4.289   0.127  0.0893 -0.1611 -1.4975
17770TIP3   OH274800   5.021   5.103   0.761 -0.0602  0.0705 -0.7476
17770TIP3    H174801   5.014   5.021   0.811 -1.2340  0.1932 -0.6864
17770TIP3    H274802   5.105   5.096   0.716  0.4589 -0.5991  0.2636
17771TIP3   OH274803   0.098   0.556  15.556  0.0304  0.5483  0.0726
17771TIP3    H174804   0.026   0.559  15.618 -0.4135 -1.8758 -0.2219
17771TIP3    H274805   0.077   0.623  15.491 -0.7661  1.4149  1.1871
17772TIP3   OH274806   2.940   5.654   0.591  0.0113 -0.6818  0.0252
17772TIP3    H174807   3.027   5.694   0.592  0.3738 -1.3527 -1.3927
17772TIP3    H274808   2.919   5.647   0.498 -1.5812 -0.5082  0.3540
17773TIP3   OH274809   3.653   3.973   5.367  0.4728 -0.5818  0.8303
17773TIP3    H174810   3.622   3.969   5.276 -0.8788 -1.0415  1.2938
17773TIP3    H274811   3.745   3.945   5.362  0.6932  0.3166 -0.5152
17774TIP3   OH274812   3.017   6.638  14.051  0.2808 -0.5111  0.0963
17774TIP3    H174813   3.085   6.704  14.033 -2.3714  2.1538 -1.1761
17774TIP3    H274814   2.979   6.620  13.965 -1.2556 -1.1193  0.8722
17775TIP3   OH274815   4.924   2.323   0.805  0.4945  0.0628 -0.8513
17775TIP3    H174816   4.843   2.340   0.853  0.0227  0.9497 -1.9275
17775TIP3    H274817   4.966   2.408   0.797  0.7263 -0.1144 -1.7001
17776TIP3   OH274818   4.050   5.391  15.782  0.6746 -0.0216  0.3919
17776TIP3    H174819   4.071   5.345  15.864  0.3580  1.5293  1.3888
17776TIP3    H274820   3.958   5.370  15.767  0.4624  0.4379  0.9760
17777TIP3   OH274821   3.002   5.961   1.178  0.3980 -0.4293 -0.3071
17777TIP3    H174822   3.090   5.941   1.146  0.5389 -0.3458  0.0203
17777TIP3    H274823   2.969   5.878   1.214  1.0802 -0.0517  1.2788
17778TIP3   OH274824   1.858   2.889   4.035 -0.4423  0.3507 -0.5672
17778TIP3    H174825   1.886   2.964   4.088  3.4778 -1.3520  0.1301
17778TIP3    H274826   1.803   2.837   4.094 -0.6747  1.1916 -0.0356
17779TIP3   OH274827   4.149   3.444   2.267 -0.2135  0.0414 -0.1617
17779TIP3    H174828   4.145   3.394   2.349 -2.4175  0.3223 -0.0475
17779TIP3    H274829   4.135   3.380   2.198  0.3089  0.0119 -0.2466
17780TIP3   OH274830   0.570   2.169  15.862  0.7087  0.1301 -0.0129
17780TIP3    H174831   0.637   2.102  15.875  0.8393 -0.1591 -1.8661
17780TIP3    H274832   0.515   2.134  15.792  0.1077  1.4600 -0.2374
17781TIP3   OH274833   1.617   4.778  13.570  0.0273 -0.0301  0.4292
17781TIP3    H174834   1.675   4.823  13.630  2.9386 -0.8081 -1.5835
17781TIP3    H274835   1.531   4.779  13.613  0.6164  4.3819  1.9368
17782TIP3   OH274836   0.378   5.522   2.672 -0.0747  0.0328 -0.6182
17782TIP3    H174837   0.412   5.608   2.648 -1.2660  0.7506  0.1740
17782TIP3    H274838   0.344   5.533   2.761 -0.5289 -1.1727 -0.6165
17783TIP3   OH274839   2.554   5.117   1.192 -0.2047 -0.1665  0.1080
17783TIP3    H174840   2.483   5.146   1.135 -0.5922  0.6421  0.9839
17783TIP3    H274841   2.628   5.104   1.133 -1.2358 -1.6431 -0.9083
17784TIP3   OH274842   5.512   0.823   0.366 -0.1836 -0.3652 -0.2643
17784TIP3    H174843   5.587   0.864   0.324  1.0776 -0.4211  1.7992
17784TIP3    H274844   5.514   0.732   0.335 -0.7666  0.1767 -1.9540
17785TIP3   OH274845   5.781   5.912   4.651  0.8087 -0.7853  0.0076
17785TIP3    H174846   5.686   5.905   4.657  0.6744  0.2462 -0.5812
17785TIP3    H274847   5.801   5.895   4.559  0.7222  2.9317 -0.8623
17786TIP3   OH274848   2.626   1.132  13.081  0.5939 -0.4322 -0.1998
17786TIP3    H174849   2.575   1.178  13.013  0.4902 -2.0840 -1.3062
17786TIP3    H274850   2.694   1.086  13.032  0.7967 -1.3054  0.8822
17787TIP3   OH274851   4.740   5.795  12.001 -0.2940 -0.1943 -0.0843
17787TIP3    H174852   4.822   5.835  12.028 -1.3467  1.4859  0.8275
17787TIP3    H274853   4.765   5.713  11.960  1.8872  0.6932 -0.6542
17788TIP3   OH274854   3.532   1.319   6.085  0.6660  0.4261  0.0635
17788TIP3    H174855   3.566   1.283   6.167  1.4379  0.7541 -0.1040
17788TIP3    H274856   3.455   1.369   6.111  0.9675  0.6179  0.6094
17789TIP3   OH274857   4.438   1.712   5.473 -0.1263  0.1088  0.0419
17789TIP3    H174858   4.357   1.673   5.505 -0.1140  0.2664  0.2661
17789TIP3    H274859   4.450   1.674   5.386  0.4242 -1.1591  0.6561
17790TIP3   OH274860   2.913   4.239  11.314 -0.0578 -0.4164 -0.0109
17790TIP3    H174861   2.917   4.167  11.377 -0.5956 -0.8745 -0.4893
17790TIP3    H274862   2.826   4.232  11.275 -0.0197  0.3389 -0.2494
17791TIP3   OH274863   5.136   2.561  14.694  0.0884 -0.2474  0.8790
17791TIP3    H174864   5.102   2.646  14.666 -0.0113  0.7182  3.6262
17791TIP3    H274865   5.058   2.511  14.717  0.0782 -1.5198 -1.5768
17792TIP3   OH274866   2.036   1.856   5.241  0.0307  0.2049  0.0613
17792TIP3    H174867   2.023   1.825   5.330 -2.0044  0.9700  0.0789
17792TIP3    H274868   2.098   1.929   5.251 -0.4717  0.5350  0.9148
17793TIP3   OH274869   6.661   3.331  13.639 -0.3159  0.8170 -0.8028
17793TIP3    H174870   6.641   3.422  13.618  1.1753  1.3052 -0.2360
17793TIP3    H274871   6.683   3.332  13.732  1.7348  0.2824 -1.2270
17794TIP3   OH274872   5.175   2.333  11.544  0.0244  0.1628  0.0936
17794TIP3    H174873   5.234   2.284  11.602  0.3840  0.1623 -0.2721
17794TIP3    H274874   5.187   2.293  11.458  0.1515  0.7482 -0.1615
17795TIP3   OH274875   5.582   4.942  14.475 -0.1814 -0.6028  0.1787
17795TIP3    H174876   5.579   5.037  14.470 -0.8838 -0.6405 -0.3208
17795TIP3    H274877   5.564   4.922  14.567 -4.5893 -0.3603 -0.4374
17796TIP3   OH274878   4.711   1.140  11.496  0.7656 -0.2069  0.1322
17796TIP3    H174879   4.640   1.099  11.545 -1.4697  2.2420 -0.8462
17796TIP3    H274880   4.700   1.108  11.407  1.2942 -0.3011  0.0990
17797TIP3   OH274881   0.941   3.784  14.342 -0.1794 -0.7766 -0.4263
17797TIP3    H174882   0.991   3.835  14.407  1.5559 -3.0909  0.1826
17797TIP3    H274883   0.889   3.723  14.395 -2.1287  0.1689 -1.1483
17798TIP3   OH274884   1.682   5.592  12.539  0.7377  0.1806  0.3501
17798TIP3    H174885   1.768   5.614  12.503  0.8822 -0.8156  0.0584
17798TIP3    H274886   1.656   5.512  12.493 -1.6096  1.9237 -1.5603
17799TIP3   OH274887   2.943   3.473   0.608 -0.1817 -0.0528 -0.0188
17799TIP3    H174888   3.037   3.460   0.591 -0.2619 -0.1473 -0.3929
17799TIP3    H274889   2.935   3.567   0.626 -0.2324  0.2433 -1.4456
17800TIP3   OH274890   1.023   2.180   3.652 -0.6074  0.0513  0.1038
17800TIP3    H174891   0.976   2.256   3.619 -1.2213  0.1394  1.1303
17800TIP3    H274892   1.115   2.197   3.629 -0.9398  0.3263 -1.0861
17801TIP3   OH274893   4.363   5.019   1.467  0.0673  0.8938  0.4346
17801TIP3    H174894   4.309   5.089   1.430  1.1421  1.4500 -0.1475
17801TIP3    H274895   4.329   5.006   1.555 -1.5323  0.6479 -0.1901
17802TIP3   OH274896   5.997   0.896   4.144 -0.3425  0.1442 -0.0410
17802TIP3    H174897   6.075   0.885   4.089 -0.1681  0.1776  0.1993
17802TIP3    H274898   5.928   0.850   4.096 -0.0928 -0.2021 -0.0740
17803TIP3   OH274899   4.859   3.257   1.451 -0.4618  0.2118 -0.1782
17803TIP3    H174900   4.874   3.351   1.451  0.2104  0.1199  0.6902
17803TIP3    H274901   4.946   3.219   1.467 -0.9849 -0.4874  1.1876
17804TIP3   OH274902   3.261   5.075   0.719 -0.4947 -0.8706 -0.3798
17804TIP3    H174903   3.249   5.159   0.762 -3.8164 -0.5502 -1.6754
17804TIP3    H274904   3.323   5.093   0.648 -0.0820  0.1117  0.2071
17805TIP3   OH274905   0.220   1.751  14.409  0.4276 -0.4738  0.3691
17805TIP3    H174906   0.266   1.768  14.491  2.0619  0.1238 -0.6281
17805TIP3    H274907   0.159   1.680  14.430  0.2028  0.2334  2.2947
17806TIP3   OH274908   4.390   1.461   0.067 -0.5425 -0.5344 -0.5941
17806TIP3    H174909   4.416   1.372   0.043 -2.1143 -1.4542  0.8948
17806TIP3    H274910   4.447   1.517   0.015  1.6282 -2.3947 -0.3900
17807TIP3   OH274911   0.387   5.907   3.292 -0.8870 -0.1401 -0.3256
17807TIP3    H174912   0.295   5.924   3.313 -0.8184 -1.1196  0.9083
17807TIP3    H274913   0.384   5.841   3.224 -1.0954  0.0910 -0.5438
17808TIP3   OH274914   2.559   4.733   2.534  0.4038  0.3690 -0.2589
17808TIP3    H174915   2.596   4.686   2.610 -2.1877 -1.1062  0.2330
17808TIP3    H274916   2.537   4.663   2.472  0.6273  1.3883 -1.5054
17809TIP3   OH274917   2.415   2.816  16.192  0.2221  0.8315  0.3435
17809TIP3    H174918   2.507   2.840  16.204  0.6409  0.3302 -1.6070
17809TIP3    H274919   2.388   2.863  16.113 -0.4675 -0.9476 -0.5197
17810TIP3   OH274920   5.299   2.743  15.325 -0.2068 -0.5732 -0.6216
17810TIP3    H174921   5.307   2.759  15.419 -1.7786 -0.3836 -0.4838
17810TIP3    H274922   5.209   2.770  15.305  0.6163  0.9827 -2.5092
17811TIP3   OH274923   0.507   1.061   2.306  0.3968 -0.3124  0.1048
17811TIP3    H174924   0.430   1.010   2.279  0.4825 -0.9413  1.0084
17811TIP3    H274925   0.551   1.006   2.371  1.1413  0.4176  0.2386
17812TIP3   OH274926   5.431   3.388  12.587 -0.0004 -0.6705 -0.0386
17812TIP3    H174927   5.388   3.326  12.528  0.0639 -0.2797 -0.5061
17812TIP3    H274928   5.521   3.356  12.594  0.4055  0.0835 -1.3423
17813TIP3   OH274929   0.339   0.193   5.242 -0.4019 -0.3847 -0.0061
17813TIP3    H174930   0.412   0.236   5.197 -1.9844 -0.1582 -2.5931
17813TIP3    H274931   0.320   0.116   5.187 -0.4516 -1.9643  2.0967
17814TIP3   OH274932   5.505   6.230   1.287 -0.4824  0.2047 -0.3243
17814TIP3    H174933   5.424   6.228   1.338 -0.2621 -0.0581  0.0184
17814TIP3    H274934   5.494   6.161   1.222 -0.9027  0.7616 -0.8550
17815TIP3   OH274935   6.635   6.514   0.513 -0.5755  0.7832  0.3943
17815TIP3    H174936   6.552   6.475   0.486 -1.0936  1.8456  0.3973
17815TIP3    H274937   6.685   6.520   0.431  0.5071 -2.0446  0.7201
17816TIP3   OH274938   3.343   0.733   2.562 -0.5131  0.6713  0.4135
17816TIP3    H174939   3.289   0.755   2.638  0.3180  2.2575  0.5876
17816TIP3    H274940   3.423   0.696   2.599 -0.7042  0.0595  0.2306
17817TIP3   OH274941   6.199   1.461  11.201 -0.1794  0.3559  0.1519
17817TIP3    H174942   6.233   1.498  11.282 -0.8236  1.5691 -0.1057
17817TIP3    H274943   6.107   1.489  11.199  0.0269  1.0376 -1.3645
17818TIP3   OH274944   1.636   6.066  11.258 -0.2771 -0.3113 -0.6439
17818TIP3    H174945   1.633   6.054  11.163 -1.5310 -0.0278 -0.6508
17818TIP3    H274946   1.712   6.123  11.272 -0.3850  0.0695 -1.5318
17819TIP3   OH274947   2.317   1.938  17.067 -0.4246 -0.5752 -0.4160
17819TIP3    H174948   2.366   1.879  17.010 -0.0265 -1.9572  1.2724
17819TIP3    H274949   2.228   1.903  17.067 -0.3377 -0.8042  0.0817
17820TIP3   OH274950   3.236   3.906  15.903 -0.2800 -0.7343 -0.1013
17820TIP3    H174951   3.250   3.897  15.809  1.1839  0.3636 -0.0253
17820TIP3    H274952   3.307   3.855  15.943  0.1525  0.2101  0.3739
17821TIP3   OH274953   0.146   3.167  10.518  0.5701  0.1628  0.4551
17821TIP3    H174954   0.053   3.153  10.501  0.4055  0.4516  1.0929
17821TIP3    H274955   0.156   3.262  10.516  0.3707  0.2920  2.7112
17822TIP3   OH274956   0.500   3.004   0.351 -0.3972 -0.1434  0.1173
17822TIP3    H174957   0.461   2.976   0.268  0.4788 -0.5645 -0.1615
17822TIP3    H274958   0.591   3.024   0.329 -1.2555  4.9012 -0.1956
17823TIP3   OH274959   2.031   3.037   6.351 -0.0740  0.6669 -0.1694
17823TIP3    H174960   2.088   3.091   6.295  0.6196 -1.1317 -1.2656
17823TIP3    H274961   1.943   3.049   6.314  0.1403  0.6937 -0.6820
17824TIP3   OH274962   2.985   2.352   1.273  0.2096  0.0750 -0.5306
17824TIP3    H174963   3.014   2.416   1.209 -1.2304 -0.6890 -2.0063
17824TIP3    H274964   2.892   2.338   1.253  0.1901 -1.5637  0.5255
17825TIP3   OH274965   2.594   5.468   2.410 -0.7106  0.1592  0.4610
17825TIP3    H174966   2.501   5.458   2.394 -0.9542  1.2244  1.0995
17825TIP3    H274967   2.629   5.499   2.326 -0.8380 -0.6715  0.0898
17826TIP3   OH274968   6.510   0.226  11.729 -0.1836  0.0089 -0.0411
17826TIP3    H174969   6.565   0.286  11.678  1.2523 -1.7488 -0.6840
17826TIP3    H274970   6.537   0.139  11.700 -1.1484 -1.0021  1.9002
17827TIP3   OH274971   6.261   5.450   4.898  0.2074  0.0963  0.0258
17827TIP3    H174972   6.245   5.465   4.805  1.1459  0.6905 -0.0528
17827TIP3    H274973   6.173   5.449   4.937 -0.1241  2.0547 -0.5412
17828TIP3   OH274974   5.446   1.815  13.434  0.0152  0.1258  0.0709
17828TIP3    H174975   5.443   1.778  13.346  0.3834  0.2434  0.0071
17828TIP3    H274976   5.479   1.904  13.422  0.2650  0.0732  0.3476
17829TIP3   OH274977   4.125   1.246  12.229 -0.7346  0.2133 -0.2610
17829TIP3    H174978   4.125   1.152  12.212  0.6097  0.1778 -0.1756
17829TIP3    H274979   4.198   1.280  12.177  0.5665  0.7714  1.8167
17830TIP3   OH274980   2.955   5.689  14.989  0.2972 -0.6782 -0.1852
17830TIP3    H174981   2.965   5.781  15.016  0.2020 -0.4110 -1.0282
17830TIP3    H274982   2.995   5.685  14.903  3.5319 -2.2275  1.2146
17831TIP3   OH274983   6.624   2.139   4.197 -0.2309  0.2766 -0.0763
17831TIP3    H174984   6.715   2.149   4.223 -0.3771 -0.0985  0.5872
17831TIP3    H274985   6.623   2.161   4.104  0.6149 -0.1637 -0.1962
17832TIP3   OH274986   6.306   6.155  16.872  0.1772  0.1680 -0.1913
17832TIP3    H174987   6.234   6.094  16.889 -0.2682  0.1164 -2.0523
17832TIP3    H274988   6.329   6.190  16.959 -0.5402 -1.5248  0.7183
17833TIP3   OH274989   0.025   3.136   5.221  0.6996 -0.1002 -0.1363
17833TIP3    H174990   0.097   3.134   5.283  0.1683  2.2667  0.6543
17833TIP3    H274991   0.034   3.220   5.175 -2.2639  0.9818  0.9781
17834TIP3   OH274992   2.106   4.935   1.235 -0.0777  0.3630 -0.0238
17834TIP3    H174993   2.091   4.864   1.172  1.5836  0.0635 -0.1206
17834TIP3    H274994   2.067   5.012   1.194 -1.5257 -0.3858 -0.1084
17835TIP3   OH274995   5.186   4.778   0.998  0.1898 -0.0041 -0.2165
17835TIP3    H174996   5.127   4.846   1.028  1.4565  2.1560 -2.2527
17835TIP3    H274997   5.142   4.738   0.923  1.0810  1.4266 -1.5681
17836TIP3   OH274998   5.541   6.416   4.141 -0.4090 -0.6732 -0.7662
17836TIP3    H174999   5.549   6.340   4.084  1.0924 -2.0420  1.1336
17836TIP3    H275000   5.631   6.434   4.170 -1.1055 -0.2483  1.3612
17837TIP3   OH275001   0.267   1.916  13.349  0.0997 -0.1086 -0.0361
17837TIP3    H175002   0.182   1.877  13.370 -0.3864  1.4070  0.9666
17837TIP3    H275003   0.271   1.995  13.404  2.8808 -1.0260  1.2074
17838TIP3   OH275004   6.587   2.976  13.674  0.1307 -0.3297  0.1794
17838TIP3    H175005   6.585   2.972  13.579 -0.0576  0.6830  0.1260
17838TIP3    H275006   6.680   2.985  13.696  0.4595 -3.1970  0.2607
17839TIP3   OH275007   1.024   1.229  16.155  0.1639 -0.0944 -0.5354
17839TIP3    H175008   1.112   1.268  16.157  0.4651 -0.7824 -0.0593
17839TIP3    H275009   1.029   1.154  16.214 -0.8836  0.1265 -0.1436
17840TIP3   OH275010   3.339   0.862   5.040  0.0987  0.5343  0.2562
17840TIP3    H175011   3.337   0.827   5.129 -1.9453  1.2107  0.5215
17840TIP3    H275012   3.353   0.956   5.051 -1.5235  0.8308 -0.0331
17841TIP3   OH275013   1.224   4.863   3.040  0.1762 -0.3081 -0.5121
17841TIP3    H175014   1.195   4.788   3.091  0.5930 -0.9224 -1.1463
17841TIP3    H275015   1.170   4.936   3.070  0.2380 -0.7112  0.5979
17842TIP3   OH275016   1.822   4.708  16.866 -0.1580  0.7317 -0.3436
17842TIP3    H175017   1.765   4.756  16.926  1.7429  3.2999 -0.4022
17842TIP3    H275018   1.839   4.769  16.794  1.6681 -0.3496 -0.9112
17843TIP3   OH275019   3.264   2.144   0.187 -0.9307 -0.1004  0.5807
17843TIP3    H175020   3.343   2.197   0.189 -1.2071  0.3128  2.7142
17843TIP3    H275021   3.281   2.072   0.248 -1.5846 -0.9671 -0.2151
17844TIP3   OH275022   2.649   5.555   2.130  0.4833 -0.8507  0.4438
17844TIP3    H175023   2.569   5.562   2.077  0.9908  0.3379 -0.2164
17844TIP3    H275024   2.666   5.645   2.159  2.5615 -0.7289 -0.9507
17845TIP3   OH275025   4.943   1.623   4.965  0.4194 -0.4170 -0.4950
17845TIP3    H175026   5.027   1.575   4.965  0.0002 -1.1758 -0.1147
17845TIP3    H275027   4.880   1.558   4.933  0.0403  0.2848 -1.1946
17846TIP3   OH275028   1.644   4.188   0.273  0.6345 -0.0073  0.1570
17846TIP3    H175029   1.665   4.124   0.205  1.7657  0.5995 -0.0829
17846TIP3    H275030   1.567   4.152   0.316  0.4030 -0.8193 -0.8970
17847TIP3   OH275031   5.934   4.311   5.929 -0.2624 -0.1800  0.0207
17847TIP3    H175032   5.893   4.225   5.920  0.4947 -0.8330  2.2712
17847TIP3    H275033   6.023   4.299   5.896 -0.7523  0.3334 -1.5968
17848TIP3   OH275034   4.963   5.584   0.204  0.0556  0.2755  0.0833
17848TIP3    H175035   4.947   5.650   0.136 -1.4350  0.0424  0.1760
17848TIP3    H275036   4.910   5.614   0.278 -0.3592 -0.8281  0.2478
17849TIP3   OH275037   2.941   0.852   2.696 -0.0205 -0.8423  0.3898
17849TIP3    H175038   2.889   0.865   2.775 -0.7265  1.9102 -0.4083
17849TIP3    H275039   3.025   0.893   2.716  0.0370 -0.7532 -0.0315
17850TIP3   OH275040   5.646   2.555   2.279  0.3192  0.1117 -0.4046
17850TIP3    H175041   5.637   2.608   2.200  2.8085 -0.3483 -1.0952
17850TIP3    H275042   5.613   2.469   2.253  0.1177  0.2494 -0.6056
17851TIP3   OH275043   5.645   5.362  16.624 -0.2900 -0.4838 -0.1617
17851TIP3    H175044   5.565   5.319  16.595 -0.1297 -2.6189  2.2641
17851TIP3    H275045   5.618   5.414  16.700  0.3003  0.3796 -0.5295
17852TIP3   OH275046   3.857   2.474  15.175 -0.0703 -0.0766 -0.4895
17852TIP3    H175047   3.926   2.525  15.218 -0.0782  0.5062 -1.1437
17852TIP3    H275048   3.842   2.520  15.092 -0.6261 -0.7087 -0.7455
17853TIP3   OH275049   2.507   4.322  16.572  0.3841  0.3137 -0.5709
17853TIP3    H175050   2.587   4.368  16.598  1.0452 -1.0131 -0.1713
17853TIP3    H275051   2.535   4.233  16.556 -1.0501 -0.2173 -0.2888
17854TIP3   OH275052   3.088   1.353   0.659 -0.5826  0.4417 -0.9723
17854TIP3    H175053   3.098   1.445   0.636  0.6957  0.3916 -0.6666
17854TIP3    H275054   3.149   1.339   0.731 -0.1479 -0.8415 -1.5550
17855TIP3   OH275055   5.399   1.967   0.837  0.2359  0.6709 -0.1175
17855TIP3    H175056   5.324   1.958   0.778  0.2863  2.1429 -0.4451
17855TIP3    H275057   5.430   1.877   0.850 -0.2237  0.2363 -1.7565
17856TIP3   OH275058   4.407   3.711   4.155 -0.2329  0.1181 -0.1532
17856TIP3    H175059   4.322   3.674   4.132 -0.6205  0.7475  0.2644
17856TIP3    H275060   4.455   3.639   4.195  0.2361 -0.8585 -2.3238
17857TIP3   OH275061   2.774   6.138   0.391  0.0721 -0.2831 -0.0504
17857TIP3    H175062   2.792   6.225   0.357  0.8851  0.2227  1.5545
17857TIP3    H275063   2.679   6.128   0.383  0.0008  0.6371 -0.4899
17858TIP3   OH275064   3.941   6.059   3.115  0.2921 -0.4678 -0.1723
17858TIP3    H175065   3.923   6.153   3.107 -2.5982 -0.5348  3.2634
17858TIP3    H275066   3.884   6.018   3.050 -0.1672  0.0797 -0.1237
17859TIP3   OH275067   6.003   5.734  11.722  0.3743 -0.3138  0.4768
17859TIP3    H175068   5.963   5.820  11.736  1.4311  0.5984 -1.5990
17859TIP3    H275069   5.931   5.678  11.694  0.1717  0.8490 -1.5380
17860TIP3   OH275070   0.616   6.644   4.388  0.2969  0.0309  0.0060
17860TIP3    H175071   0.563   6.589   4.330  0.9662  1.4989 -2.1094
17860TIP3    H275072   0.697   6.658   4.340  1.7409 -0.3165  2.2113
17861TIP3   OH275073   5.928   2.350   4.229 -0.0790  0.4593  0.3177
17861TIP3    H175074   5.856   2.366   4.168 -0.4125 -3.4158 -0.5430
17861TIP3    H275075   6.007   2.374   4.180 -0.5419  0.3841 -0.4824
17862TIP3   OH275076   5.131   1.166  16.940  0.1768  0.1260 -0.2602
17862TIP3    H175077   5.079   1.233  16.895 -0.0691  0.2623  0.2247
17862TIP3    H275078   5.200   1.144  16.878 -1.3193 -1.1680 -1.5837
17863TIP3   OH275079   5.210   0.001  13.406  0.1965  0.1441  0.8766
17863TIP3    H175080   5.130  -0.051  13.417  0.1082  0.3719  1.3302
17863TIP3    H275081   5.179   0.088  13.381  0.2132  0.6367  2.4465
17864TIP3   OH275082   0.672   6.229   4.278  0.9102  0.2316  0.0570
17864TIP3    H175083   0.747   6.236   4.219 -0.7153  1.2472 -2.0466
17864TIP3    H275084   0.643   6.319   4.290  0.5475 -0.0704  1.5618
17865TIP3   OH275085   6.492   6.142   2.074 -0.1944  0.7077  0.0538
17865TIP3    H175086   6.399   6.166   2.073 -1.3107 -2.7775  1.9445
17865TIP3    H275087   6.502   6.084   1.999  1.0127  2.5102 -1.2394
17866TIP3   OH275088   3.617   0.737  11.919  0.0749 -0.2945  0.4550
17866TIP3    H175089   3.627   0.794  11.996  2.1487  1.1561 -0.8071
17866TIP3    H275090   3.654   0.653  11.946 -1.4002 -0.5725  1.7650
17867TIP3   OH275091   2.971   3.521   1.434 -0.4641  0.1209 -0.0297
17867TIP3    H175092   2.876   3.518   1.444 -0.4339 -0.2219  0.1775
17867TIP3    H275093   2.989   3.609   1.401 -0.9561 -0.1765 -1.1469
17868TIP3   OH275094   6.776   1.183   0.214  0.0148  0.3183 -0.2132
17868TIP3    H175095   6.796   1.276   0.228  1.2443 -0.1202  1.0875
17868TIP3    H275096   6.854   1.137   0.245 -1.2337 -1.2364  0.7155
17869TIP3   OH275097   6.363   4.643  11.235  0.0413  0.6093  0.0012
17869TIP3    H175098   6.332   4.578  11.298  1.9390 -1.0399 -0.6105
17869TIP3    H275099   6.433   4.690  11.281 -0.9066  1.8241  0.2332
17870TIP3   OH275100   0.794   5.801   4.031  0.0093  0.8961 -0.1872
17870TIP3    H175101   0.859   5.731   4.019  0.8665  1.4612  0.8975
17870TIP3    H275102   0.731   5.788   3.961 -0.6067 -1.8013  0.7255
17871TIP3   OH275103   1.038   6.450  14.595  0.0724  0.1526 -0.1989
17871TIP3    H175104   1.033   6.465  14.689 -0.0823  0.1499 -0.2053
17871TIP3    H275105   0.980   6.516  14.557 -0.4915 -0.3559 -0.2410
17872TIP3   OH275106   4.543   1.995   5.441  0.3738  0.5582  0.3495
17872TIP3    H175107   4.525   2.026   5.353  2.6111 -1.8999 -1.1230
17872TIP3    H275108   4.500   1.911   5.447  1.6425 -0.0852  0.9216
17873TIP3   OH275109   2.822   0.076  14.364 -0.6297 -0.3022  0.0062
17873TIP3    H175110   2.861   0.138  14.303 -1.0518 -1.3725 -1.4012
17873TIP3    H275111   2.889   0.062  14.431  0.7241 -0.7667 -1.3984
17874TIP3   OH275112   0.772   0.918   0.798 -0.0594  0.2427 -0.1799
17874TIP3    H175113   0.778   1.007   0.764  1.6194  0.3150  0.2395
17874TIP3    H275114   0.772   0.862   0.720  4.2996  0.3681 -0.5212
17875TIP3   OH275115   4.711   3.146   1.674 -0.0388 -0.5162  0.1212
17875TIP3    H175116   4.724   3.193   1.592 -0.1365 -1.0537 -0.2078
17875TIP3    H275117   4.757   3.198   1.740 -0.9581  0.5456 -0.0575
17876TIP3   OH275118   4.835   2.097  15.864 -0.9453 -0.0018  0.2006
17876TIP3    H175119   4.825   2.182  15.908 -0.5227  0.7282 -1.0467
17876TIP3    H275120   4.900   2.050  15.917 -1.3832  0.3327  1.0569
17877TIP3   OH275121   4.888   5.160  14.612  0.4475 -0.5259  0.5721
17877TIP3    H175122   4.916   5.120  14.530  0.9985  0.1530  0.4264
17877TIP3    H275123   4.853   5.087  14.663  1.2980 -1.1820  0.2480
17878TIP3   OH275124   1.136   1.248  12.836 -0.3603 -0.5897 -0.5571
17878TIP3    H175125   1.213   1.217  12.883 -1.1430 -0.2953  0.9782
17878TIP3    H275126   1.130   1.341  12.857  0.1138 -0.0782 -2.4816
17879TIP3   OH275127   3.640   6.017  12.879  0.6971  0.1748 -0.1898
17879TIP3    H175128   3.705   6.085  12.894  0.5250  0.1926  0.4799
17879TIP3    H275129   3.559   6.051  12.918  0.4394 -0.1151 -0.4644
17880TIP3   OH275130   1.585   2.788   4.709 -0.5843  0.6339 -0.1790
17880TIP3    H175131   1.579   2.801   4.804  0.7646  3.4162 -0.3616
17880TIP3    H275132   1.599   2.694   4.699  0.1749  0.3708  2.4424
17881TIP3   OH275133   6.748   3.181   2.125 -0.1205  0.1076  0.3620
17881TIP3    H175134   6.662   3.188   2.168 -0.8457  1.2605 -1.1832
17881TIP3    H275135   6.789   3.266   2.139  0.1378  0.0733 -0.1537
17882TIP3   OH275136   5.237   5.093   1.211 -0.3632  0.3379  0.3512
17882TIP3    H175137   5.310   5.128   1.263 -0.0760  0.5713 -0.2015
17882TIP3    H275138   5.279   5.040   1.144 -0.6846  0.7012 -0.1430
17883TIP3   OH275139   4.452   2.485  14.970  0.0312  0.0667  0.5302
17883TIP3    H175140   4.359   2.472  14.950 -0.0518  1.1226  0.1822
17883TIP3    H275141   4.458   2.474  15.065 -0.3402 -0.6221  0.4792
17884TIP3   OH275142   0.396   5.590   4.356 -0.2783 -0.7020 -0.1614
17884TIP3    H175143   0.467   5.586   4.293 -1.3102 -0.0981 -1.4182
17884TIP3    H275144   0.316   5.583   4.303 -1.2162  0.9647  0.9281
17885TIP3   OH275145   3.254   3.195   6.361 -0.2470  0.1064  0.0407
17885TIP3    H175146   3.346   3.216   6.380  0.0413 -0.4136 -0.7293
17885TIP3    H275147   3.206   3.229   6.436  0.5624  0.5145  0.3892
17886TIP3   OH275148   6.307   3.299  15.486  0.1021 -0.0223 -0.5550
17886TIP3    H175149   6.324   3.363  15.555  1.4803  0.2259 -1.0890
17886TIP3    H275150   6.369   3.321  15.416  0.0338 -1.4135 -1.0970
17887TIP3   OH275151   1.164   2.951   2.914  0.6353 -0.2814 -0.0424
17887TIP3    H175152   1.228   2.919   2.977  0.6666  0.4731  0.3208
17887TIP3    H275153   1.082   2.952   2.962  0.9072  1.6506  0.4715
17888TIP3   OH275154   4.833   5.706   3.706  0.5411  0.0167 -0.2441
17888TIP3    H175155   4.758   5.743   3.658  1.0525 -0.7584 -1.6868
17888TIP3    H275156   4.871   5.781   3.752 -1.4066  0.3520  0.9858
17889TIP3   OH275157   4.394   4.175   4.027  0.3732 -0.2678  0.3415
17889TIP3    H175158   4.405   4.123   4.107  0.0582  0.7061  1.0392
17889TIP3    H275159   4.442   4.257   4.046  0.8722 -0.3013 -0.7317
17890TIP3   OH275160   5.318   1.535  15.320 -0.3914  0.2984  0.0848
17890TIP3    H175161   5.351   1.620  15.348 -0.6549  0.5331 -0.3125
17890TIP3    H275162   5.336   1.531  15.226 -0.9018  0.1666 -0.0136
17891TIP3   OH275163   2.124   3.821  11.613 -0.2675  0.4049 -0.4385
17891TIP3    H175164   2.107   3.908  11.649  2.5027  0.3787  1.1927
17891TIP3    H275165   2.052   3.768  11.646  0.3590  1.1453  2.4486
17892TIP3   OH275166   2.541   1.704  16.319 -0.8061  0.7482 -0.0121
17892TIP3    H175167   2.514   1.762  16.249 -0.8547  1.4787  0.5942
17892TIP3    H275168   2.627   1.737  16.345 -1.0234  0.8407  0.6267
17893TIP3   OH275169   5.999   0.116   0.346 -0.5270  0.2549  0.9757
17893TIP3    H175170   5.953   0.033   0.359  0.7428 -0.8051 -0.9641
17893TIP3    H275171   6.066   0.117   0.414  1.6691 -2.0027 -0.9998
17894TIP3   OH275172   2.346   3.771  16.243  0.1075  0.2921 -0.0311
17894TIP3    H175173   2.397   3.717  16.183  2.1806 -0.0120  1.8236
17894TIP3    H275174   2.256   3.740  16.234  0.7441 -1.3562 -1.2203
17895TIP3   OH275175   0.138   4.539   5.233  0.2690  0.1135 -0.1420
17895TIP3    H175176   0.171   4.626   5.211 -0.6556  0.5164 -0.0127
17895TIP3    H275177   0.204   4.479   5.200  0.5056  0.8379 -1.0315
17896TIP3   OH275178   4.104   2.392  12.604  0.5834 -0.9418  0.2026
17896TIP3    H175179   4.159   2.410  12.680 -0.3702 -2.4517  1.2956
17896TIP3    H275180   4.163   2.350  12.542  1.1969 -0.3953  0.4022
17897TIP3   OH275181   4.141   6.738  11.738  0.3239  0.3905  0.4660
17897TIP3    H175182   4.127   6.831  11.757  1.2922  1.1691 -2.0909
17897TIP3    H275183   4.230   6.735  11.701 -1.0980 -0.7844 -3.3524
17898TIP3   OH275184   5.244   4.081   5.900  0.4114  0.2174  0.0529
17898TIP3    H175185   5.278   3.998   5.932  1.4523  0.6519  0.1174
17898TIP3    H275186   5.200   4.059   5.818  0.0064 -0.5014  0.4515
17899TIP3   OH275187   6.585   4.993  15.934 -0.3669 -0.4972  0.0072
17899TIP3    H175188   6.645   5.043  15.879 -0.5350  0.3693  0.5892
17899TIP3    H275189   6.501   5.000  15.890 -0.8017  1.3483  1.0254
17900TIP3   OH275190   5.100   0.889  14.195 -0.0721  0.5054 -0.5941
17900TIP3    H175191   5.057   0.864  14.113  1.9879 -3.0521 -0.8059
17900TIP3    H275192   5.032   0.880  14.261 -1.0991  0.7896 -1.5764
17901TIP3   OH275193   2.618   0.751   3.720  0.2854 -0.0166 -0.4440
17901TIP3    H175194   2.536   0.791   3.747  0.9126  0.3451  1.0180
17901TIP3    H275195   2.595   0.661   3.695 -0.3859 -0.3037  1.1136
17902TIP3   OH275196   0.317   5.788  12.559  0.2754 -0.0026 -0.3263
17902TIP3    H175197   0.406   5.819  12.575  0.3938  0.2060 -1.3285
17902TIP3    H275198   0.323   5.735  12.479 -0.0227 -2.2019  1.0275
17903TIP3   OH275199   3.819   0.027   1.208 -0.2987 -0.3616  0.1948
17903TIP3    H175200   3.732  -0.008   1.185 -0.3381 -0.4864  0.5345
17903TIP3    H275201   3.869  -0.050   1.235  0.3060 -0.4793 -1.1647
17904TIP3   OH275202   4.162   1.224   2.281  0.4531 -0.3358 -0.5306
17904TIP3    H175203   4.145   1.131   2.263 -0.1011 -0.3386  0.0060
17904TIP3    H275204   4.105   1.271   2.220 -0.3255 -0.3463  0.1902
17905TIP3   OH275205   4.695   3.667  12.099  0.8990  0.6164  0.7538
17905TIP3    H175206   4.760   3.693  12.035  1.8990 -0.0139  1.4761
17905TIP3    H275207   4.746   3.634  12.173 -0.2320 -1.0392  0.8612
17906TIP3   OH275208   4.329   2.446  11.493 -0.0631  0.5076 -0.7775
17906TIP3    H175209   4.392   2.419  11.560 -1.6172 -1.7389 -0.0967
17906TIP3    H275210   4.365   2.411  11.411 -0.4494 -0.9121 -0.3700
17907TIP3   OH275211   6.615   5.750   4.650 -0.0668 -0.0016 -0.6407
17907TIP3    H175212   6.600   5.718   4.739  0.0915 -0.6078 -0.8263
17907TIP3    H275213   6.527   5.761   4.613 -0.3257  3.2485  0.5786
17908TIP3   OH275214   2.331   6.074  12.026  0.4187 -0.0586  0.4193
17908TIP3    H175215   2.410   6.038  11.986 -0.6810 -0.4637 -1.5007
17908TIP3    H275216   2.268   6.002  12.022 -0.1731  0.3700  1.6067
17909TIP3   OH275217   1.425   6.619  11.672  0.0842  0.5502  0.3171
17909TIP3    H175218   1.501   6.593  11.724  1.5493  1.0265 -1.4632
17909TIP3    H275219   1.441   6.582  11.585 -0.9813  1.8985 -0.5083
17910TIP3   OH275220   1.214   5.116   5.310 -0.4201  0.0705  0.7528
17910TIP3    H175221   1.137   5.160   5.345 -0.2949  2.3491 -1.5445
17910TIP3    H275222   1.190   5.094   5.220  1.4937  0.6478  0.0542
17911TIP3   OH275223   5.751   4.689  11.365  0.3919  0.2523  0.2611
17911TIP3    H175224   5.660   4.678  11.394  0.2765  0.8242  0.1361
17911TIP3    H275225   5.766   4.615  11.306 -0.5104  0.9775 -0.9431
17912TIP3   OH275226   4.759   3.646   5.636  0.4925  0.8199  0.4473
17912TIP3    H175227   4.831   3.699   5.602  0.6349 -0.0561 -0.6693
17912TIP3    H275228   4.794   3.557   5.641 -0.8890  0.1109 -1.4418
17913TIP3   OH275229   4.480   6.744   3.304  0.4111 -0.3553 -0.0512
17913TIP3    H175230   4.488   6.651   3.326 -0.7404 -0.4136  0.1798
17913TIP3    H275231   4.435   6.782   3.379  2.7414  0.8322  0.8431
17914TIP3   OH275232   3.279   1.257   3.881 -0.0849  0.3098 -0.2623
17914TIP3    H175233   3.262   1.335   3.828  0.0698 -1.1576 -2.5908
17914TIP3    H275234   3.363   1.273   3.922  0.3616  1.0246 -1.4232
17915TIP3   OH275235   5.300   2.306  14.477 -0.1152  0.0137 -0.0969
17915TIP3    H175236   5.252   2.358  14.542  1.2543  0.8538  0.2740
17915TIP3    H275237   5.255   2.324  14.395 -0.3830  0.8704  0.2246
17916TIP3   OH275238   6.434   1.222  13.830  0.3194 -0.4316  0.5003
17916TIP3    H175239   6.408   1.264  13.748  0.0101  1.1240  1.3524
17916TIP3    H275240   6.381   1.142  13.834 -1.4474  0.6714  0.3037
17917TIP3   OH275241   3.522   3.327  15.939  0.1627  0.0854  0.2644
17917TIP3    H175242   3.445   3.323  15.995 -0.0099 -0.8049 -0.0168
17917TIP3    H275243   3.582   3.261  15.976  0.8099  0.7972  0.5063
17918TIP3   OH275244   2.484   6.781  11.172 -0.8189 -0.1961  0.0035
17918TIP3    H175245   2.430   6.858  11.190  1.7519  1.4643  1.2033
17918TIP3    H275246   2.534   6.805  11.094  1.4979  0.3009  1.5528
17919TIP3   OH275247   3.061   4.728  14.913  0.3127  0.2137  0.2983
17919TIP3    H175248   3.127   4.678  14.864  0.3738 -0.3444  0.9220
17919TIP3    H275249   3.104   4.811  14.932  1.2706 -0.5108  1.5706
17920TIP3   OH275250   4.478   2.732  15.441  0.0015 -0.1121 -0.1195
17920TIP3    H175251   4.384   2.714  15.428 -0.2369  2.3280 -2.7899
17920TIP3    H275252   4.487   2.741  15.536 -1.8987 -2.7933  0.4423
17921TIP3   OH275253   1.069   6.624  14.089  0.0226  0.4710  0.4868
17921TIP3    H175254   1.137   6.625  14.157 -0.3740  0.5599  0.8894
17921TIP3    H275255   1.028   6.710  14.095 -0.2107  0.3723  0.3355
17922TIP3   OH275256   2.315   0.674  16.650  0.2088 -0.1139 -0.4847
17922TIP3    H175257   2.312   0.711  16.562  0.2166  1.1022 -0.0045
17922TIP3    H275258   2.382   0.606  16.645  2.1225  1.6631 -0.8450
17923TIP3   OH275259   2.684   3.158  13.445 -0.3817  0.4115 -0.1921
17923TIP3    H175260   2.765   3.203  13.421 -0.1222  0.3071  0.4643
17923TIP3    H275261   2.679   3.085  13.384 -0.1255  0.5782 -0.4182
17924TIP3   OH275262   0.747   1.989  15.533  0.2405 -0.2271 -0.3822
17924TIP3    H175263   0.818   2.047  15.560  0.3505 -1.0079  1.0904
17924TIP3    H275264   0.779   1.901  15.554 -0.1374 -0.8014 -2.0874
17925TIP3   OH275265   5.770   1.061  12.319  0.1499  0.3098 -0.3079
17925TIP3    H175266   5.675   1.049  12.326 -0.0222  1.9289  0.6132
17925TIP3    H275267   5.779   1.143  12.270  1.0305  1.1024  1.1534
17926TIP3   OH275268   1.100   4.286  11.144  0.5888 -0.5605 -0.2138
17926TIP3    H175269   1.024   4.266  11.090 -0.9390  1.4174  1.0571
17926TIP3    H275270   1.132   4.370  11.110  0.1359  0.2645  1.3073
17927TIP3   OH275271   6.816   3.528  15.305 -0.1899  0.6197  0.0195
17927TIP3    H175272   6.897   3.576  15.325  0.0999  1.0357 -1.9659
17927TIP3    H275273   6.837   3.476  15.228 -1.5870  0.0991 -0.0422
17928TIP3   OH275274   1.279   4.657   2.135  0.5594 -0.2890 -0.2185
17928TIP3    H175275   1.356   4.633   2.084  0.5129 -0.6933 -0.1030
17928TIP3    H275276   1.236   4.725   2.084 -0.2150 -1.6094 -1.4011
17929TIP3   OH275277   2.512   2.597  15.982  0.1222 -0.3218 -0.1393
17929TIP3    H175278   2.583   2.597  16.047  1.4010  0.7022 -1.4707
17929TIP3    H275279   2.481   2.687  15.980 -1.3716 -0.8037  0.5578
17930TIP3   OH275280   2.469   4.948   1.411  0.1531 -0.1554  0.0127
17930TIP3    H175281   2.509   4.996   1.339  1.3324 -2.0219 -0.6454
17930TIP3    H275282   2.401   5.007   1.444  1.5616  1.9528 -0.6802
17931TIP3   OH275283   1.085   0.602  16.278 -0.2643 -0.6212 -0.3592
17931TIP3    H175284   1.074   0.690  16.243  3.5193  0.6636  1.1985
17931TIP3    H275285   1.040   0.604  16.362  2.7507  1.2348  1.3992
17932TIP3   OH275286   4.926   0.075  12.145  0.0416 -0.6600 -0.8043
17932TIP3    H175287   4.995   0.010  12.161  1.2526  0.5624 -0.9053
17932TIP3    H275288   4.965   0.158  12.171 -1.9074 -0.0931  0.5337
17933TIP3   OH275289   6.546   6.620   2.662  0.0044 -0.1046 -0.5874
17933TIP3    H175290   6.549   6.543   2.606  0.3832  0.6780 -1.6860
17933TIP3    H275291   6.620   6.673   2.633 -1.9907  2.1156 -2.0591
17934TIP3   OH275292   5.817   0.736  14.281 -0.2023  0.5210  0.3252
17934TIP3    H175293   5.860   0.807  14.330 -1.4173  0.9683  0.7908
17934TIP3    H275294   5.818   0.766  14.190  1.7169 -0.1336  0.0849
17935TIP3   OH275295   5.649   2.770  14.463  0.0621 -0.2168  0.3095
17935TIP3    H175296   5.555   2.775  14.481 -0.1624 -1.8579 -0.1908
17935TIP3    H275297   5.684   2.715  14.532  0.7706  0.8237  0.7977
17936TIP3   OH275298   1.161   4.661   4.601  0.4626  0.0754 -0.2385
17936TIP3    H175299   1.222   4.600   4.561 -2.1861 -2.3809 -0.9051
17936TIP3    H275300   1.110   4.696   4.528 -0.7382 -0.1045  0.4773
17937TIP3   OH275301   6.610   1.955   5.740  0.4670 -0.2327 -0.5144
17937TIP3    H175302   6.522   1.922   5.724  0.1390 -0.1410  0.8911
17937TIP3    H275303   6.605   1.993   5.828  2.2092 -1.3346  0.1090
17938TIP3   OH275304   4.070   5.012   2.658 -0.4260  0.7442 -0.0549
17938TIP3    H175305   4.130   5.086   2.643  0.0567  0.3853  0.0642
17938TIP3    H275306   3.991   5.052   2.694  0.1739  1.1212  0.9041
17939TIP3   OH275307   0.576   1.659   2.796  0.1904 -0.0907  0.1436
17939TIP3    H175308   0.557   1.626   2.883 -1.2537 -1.4577 -0.6354
17939TIP3    H275309   0.530   1.599   2.737  1.4808  0.5272 -1.5833
17940TIP3   OH275310   0.501   2.315  10.902 -0.0552  0.0716  0.0343
17940TIP3    H175311   0.417   2.335  10.861  1.3723  0.2163 -3.1460
17940TIP3    H275312   0.509   2.379  10.972 -1.9050  1.1221 -0.6313
17941TIP3   OH275313   4.339   3.714  11.079  0.1367  0.4861  0.3488
17941TIP3    H175314   4.349   3.799  11.035 -1.5482  0.5761  0.0544
17941TIP3    H275315   4.339   3.735  11.172  2.3267  0.4594  0.4138
17942TIP3   OH275316   6.533   0.654   0.017  0.4243  0.0906 -0.4104
17942TIP3    H175317   6.534   0.749   0.033 -2.2666 -0.1869  2.4973
17942TIP3    H275318   6.605   0.620   0.070  0.4839  0.3888 -0.2973
17943TIP3   OH275319   3.791   3.140   1.899  0.2088 -0.4340  0.0093
17943TIP3    H175320   3.734   3.120   1.973  1.3229  0.0663  1.0488
17943TIP3    H275321   3.750   3.097   1.824 -1.9362  0.5624  0.5370
17944TIP3   OH275322   5.764   0.588  13.376 -0.4240 -0.3769  0.4324
17944TIP3    H175323   5.681   0.635  13.363  0.3101  0.7881 -0.1957
17944TIP3    H275324   5.765   0.523  13.305 -1.7854 -1.9262  1.7439
17945TIP3   OH275325   6.202   5.726   0.135 -0.1613  0.2972  0.1780
17945TIP3    H175326   6.261   5.653   0.156  0.5450  0.4984 -0.9974
17945TIP3    H275327   6.131   5.686   0.085 -0.2853  0.2661  0.3802
17946TIP3   OH275328   1.668   5.777  13.512 -0.1035 -0.2735  0.1569
17946TIP3    H175329   1.683   5.769  13.418 -1.5175  1.3174 -0.2611
17946TIP3    H275330   1.599   5.713  13.531 -0.8209  0.3725 -0.2018
17947TIP3   OH275331   5.951   1.664   6.122 -0.1841  0.0185 -0.6449
17947TIP3    H175332   5.972   1.650   6.214 -2.1656 -1.6892 -0.3923
17947TIP3    H275333   5.858   1.686   6.120 -0.1758  0.0843 -2.2290
17948TIP3   OH275334   5.893   4.111   5.023 -0.9959  0.2872  0.2797
17948TIP3    H175335   5.988   4.102   5.025 -0.8950  0.2300 -1.9086
17948TIP3    H275336   5.877   4.179   4.957 -2.4721  0.3849  0.6959
17949TIP3   OH275337   4.905   4.673  12.796  0.6013  0.6378 -0.3272
17949TIP3    H175338   4.973   4.609  12.820  1.7662  1.8296 -0.3237
17949TIP3    H275339   4.951   4.738  12.743 -0.5700  1.4308 -0.4067
17950TIP3   OH275340   0.482   5.795   3.955  0.3898 -0.3824  0.7549
17950TIP3    H175341   0.420   5.728   3.929 -1.0683  0.8240  0.9606
17950TIP3    H275342   0.428   5.866   3.989  1.8687  0.8590  0.6537
17951TIP3   OH275343   5.418   5.512   2.032  0.0156  0.4505  0.1435
17951TIP3    H175344   5.499   5.468   2.058  0.9945  1.5907 -0.8626
17951TIP3    H275345   5.351   5.473   2.088  0.9236 -1.8433 -0.2329
17952TIP3   OH275346   3.884   0.756   3.373  0.2728  0.0001  0.1483
17952TIP3    H175347   3.908   0.730   3.284 -0.6040  0.1856 -0.1516
17952TIP3    H275348   3.909   0.848   3.379 -1.1159  0.4497 -0.4666
17953TIP3   OH275349   0.226   5.016  15.725 -0.4533  0.1429 -0.3504
17953TIP3    H175350   0.221   5.106  15.757 -2.0962 -0.7001  2.0865
17953TIP3    H275351   0.186   5.019  15.638  1.9472  2.1372 -1.5325
17954TIP3   OH275352   0.836   0.183   2.683 -0.1547  0.1173 -0.3666
17954TIP3    H175353   0.911   0.126   2.668 -2.1273 -2.9564  0.4292
17954TIP3    H275354   0.785   0.177   2.603 -0.0658  1.3788 -0.5344
17955TIP3   OH275355   2.252   0.276   6.627 -0.6467 -0.2481 -0.7577
17955TIP3    H175356   2.214   0.189   6.618 -0.0161 -0.7987  1.3419
17955TIP3    H275357   2.177   0.335   6.624 -1.1207 -0.8703 -1.7697
17956TIP3   OH275358   4.083   0.047   4.332 -0.0137 -0.0884  0.1433
17956TIP3    H175359   4.151   0.097   4.378  0.5975 -0.7605 -0.0082
17956TIP3    H275360   4.113  -0.044   4.337 -1.3984 -0.5315  0.9181
17957TIP3   OH275361   3.138   3.284   4.379  0.3169 -0.1750 -0.1827
17957TIP3    H175362   3.210   3.344   4.356 -0.4317  0.8424  0.0412
17957TIP3    H275363   3.074   3.340   4.422 -0.6881 -1.0358 -0.5225
17958TIP3   OH275364   1.981   4.549  16.663 -0.0867  0.3850 -0.2500
17958TIP3    H175365   2.019   4.636  16.648  1.4674 -0.3913 -1.0826
17958TIP3    H275366   1.918   4.538  16.592 -0.2550  0.8165 -0.1686
17959TIP3   OH275367   1.927   4.823  11.993 -0.2764 -0.5283 -0.0760
17959TIP3    H175368   1.837   4.851  11.975 -0.1393  2.9636  3.2874
17959TIP3    H275369   1.981   4.900  11.971  1.1632 -0.6144  2.7344
17960TIP3   OH275370   3.033   3.680  14.579  0.5105 -0.1077 -0.5915
17960TIP3    H175371   2.986   3.596  14.577  0.3768 -0.1384  1.4618
17960TIP3    H275372   3.125   3.656  14.576  0.5525 -0.5371  1.9961
17961TIP3   OH275373   3.366   2.116  11.608  0.1979  0.5859  0.4081
17961TIP3    H175374   3.382   2.191  11.666 -0.0912  1.5414 -0.7068
17961TIP3    H275375   3.276   2.128  11.578 -0.3415 -1.0146  1.3318
17962TIP3   OH275376   3.074   1.683   5.927  0.3629  0.2845 -0.3045
17962TIP3    H175377   3.128   1.632   5.865  0.9531 -2.0631  1.9559
17962TIP3    H275378   3.132   1.754   5.956  0.7684  0.2404 -0.9810
17963TIP3   OH275379   2.181   5.447   2.029  0.2907 -0.2286 -0.2632
17963TIP3    H175380   2.125   5.489   2.095 -2.1090  1.5398 -3.1574
17963TIP3    H275381   2.119   5.415   1.963  2.5183 -2.5015 -1.3948
17964TIP3   OH275382   4.103   1.059  11.631  0.8119 -0.3497  0.1206
17964TIP3    H175383   4.071   1.131  11.685  0.8253 -1.5079  1.7466
17964TIP3    H275384   4.077   1.082  11.541  0.1851  1.3007  0.6918
17965TIP3   OH275385   5.245   3.042  14.845  0.2938 -0.0963  0.3187
17965TIP3    H175386   5.187   3.014  14.916  0.5686 -1.1740  0.1323
17965TIP3    H275387   5.294   3.116  14.882 -0.2114 -0.0614  0.9360
17966TIP3   OH275388   1.296   1.906   2.919  0.3851  0.4264 -0.4744
17966TIP3    H175389   1.221   1.964   2.906 -0.1707 -0.6416 -2.4520
17966TIP3    H275390   1.257   1.819   2.930  1.2902  0.0763  0.0981
17967TIP3   OH275391   1.037   3.478   3.944 -0.5230  0.3816  0.7413
17967TIP3    H175392   0.960   3.478   4.001 -0.5975 -3.1296  0.8575
17967TIP3    H275393   1.111   3.489   4.004 -0.7768  0.2197  1.0896
17968TIP3   OH275394   3.014   2.323   2.882 -0.0527 -0.1766  0.8770
17968TIP3    H175395   2.942   2.270   2.848 -0.8399 -0.9824  3.5242
17968TIP3    H275396   2.972   2.393   2.932  1.0225  1.2536 -0.1228
17969TIP3   OH275397   5.558   2.835   5.702  1.0956 -0.2510 -0.7581
17969TIP3    H175398   5.563   2.803   5.612 -0.0719  1.0882 -1.3350
17969TIP3    H275399   5.493   2.778   5.744 -0.9850  1.2053 -1.7847
17970TIP3   OH275400   3.270   3.175   2.816 -0.4699  0.0483  0.4075
17970TIP3    H175401   3.322   3.098   2.791 -0.4115  0.0686  0.4660
17970TIP3    H275402   3.253   3.162   2.910 -0.3507  0.1716  0.4464
17971TIP3   OH275403   5.292   3.699   0.101  0.6186  0.3677  0.0735
17971TIP3    H175404   5.339   3.638   0.157  0.7589 -0.2929 -0.7374
17971TIP3    H275405   5.313   3.670   0.012  0.7010  1.5989 -0.3329
17972TIP3   OH275406   6.650   5.778   0.195 -0.7435 -0.4372 -0.4387
17972TIP3    H175407   6.646   5.699   0.249 -0.0148 -1.0563 -1.2590
17972TIP3    H275408   6.732   5.770   0.146 -1.0111  0.4734 -1.0738
17973TIP3   OH275409   1.694   0.056   2.860  0.5777 -0.0428 -0.2262
17973TIP3    H175410   1.617   0.000   2.871 -0.0832  0.7862 -0.4863
17973TIP3    H275411   1.686   0.089   2.770 -0.6696  2.7603  0.7873
17974TIP3   OH275412   3.659   4.345   6.443 -0.3047 -0.5225  0.1477
17974TIP3    H175413   3.719   4.321   6.373 -1.3847 -1.4730 -0.4853
17974TIP3    H275414   3.663   4.273   6.505  2.4537  1.3489  2.4005
17975TIP3   OH275415   6.312   0.378   4.072 -0.2922  0.4549 -0.5408
17975TIP3    H175416   6.340   0.386   3.980 -2.9621 -2.7720 -1.8227
17975TIP3    H275417   6.283   0.466   4.096  2.3193  1.8571 -2.0108
17976TIP3   OH275418   3.577   6.314   0.439  0.1683 -0.2332 -0.3073
17976TIP3    H175419   3.563   6.223   0.415  0.4951  0.2541 -2.6108
17976TIP3    H275420   3.495   6.358   0.419  0.8053  0.3896 -1.7125
17977TIP3   OH275421   1.826   1.820   3.710  0.2281  0.0952 -0.0582
17977TIP3    H175422   1.820   1.743   3.766 -0.6866  0.8607  0.9396
17977TIP3    H275423   1.917   1.821   3.680  0.5522 -0.7151  0.8581
17978TIP3   OH275424   5.177   3.288  14.189  0.1972  0.0162  0.7150
17978TIP3    H175425   5.142   3.207  14.151  1.7817  0.2901 -1.5423
17978TIP3    H275426   5.264   3.264  14.220  0.8891  0.9266 -0.4453
17979TIP3   OH275427   5.150   5.362   4.041  0.7658  0.0389 -0.0039
17979TIP3    H175428   5.132   5.275   4.075  2.0893 -0.1798  0.2010
17979TIP3    H275429   5.156   5.350   3.946 -0.5350  0.2043 -0.1265
17980TIP3   OH275430   4.469   1.712  10.659 -0.2792  0.5964 -0.7676
17980TIP3    H175431   4.460   1.619  10.681  1.9824  0.4323 -0.2324
17980TIP3    H275432   4.387   1.751  10.687  0.0184 -0.6823  2.3171
17981TIP3   OH275433   5.345   0.501  16.266 -0.0235  0.1278  0.1597
17981TIP3    H175434   5.260   0.502  16.221 -0.4941  0.9963  1.0160
17981TIP3    H275435   5.384   0.417  16.242 -1.0447 -0.2061 -0.4005
17982TIP3   OH275436   1.235   1.707   2.683 -0.7785  0.3122  0.1369
17982TIP3    H175437   1.317   1.754   2.668 -1.8684  2.4596  0.5771
17982TIP3    H275438   1.204   1.684   2.595 -0.0596  0.0920 -0.0647
17983TIP3   OH275439   3.676   0.549   3.487 -0.0313  0.0438 -0.7054
17983TIP3    H175440   3.742   0.618   3.488  0.8628 -0.7494  0.9952
17983TIP3    H275441   3.604   0.584   3.435  0.6355  2.0096 -0.3811
17984TIP3   OH275442   2.172   5.430   4.147  0.0709 -0.0978  0.0319
17984TIP3    H175443   2.138   5.456   4.061 -1.4047 -0.7934  0.3771
17984TIP3    H275444   2.119   5.355   4.172  0.6746 -0.0852  1.4389
17985TIP3   OH275445   0.952   6.234   3.380  0.3679  0.3964  0.3861
17985TIP3    H175446   0.909   6.231   3.294 -0.6822 -1.3997  0.9056
17985TIP3    H275447   0.892   6.285   3.434  0.0794 -0.0735  0.5133
17986TIP3   OH275448   3.640   4.589   5.973 -0.9016 -0.0046  0.0242
17986TIP3    H175449   3.699   4.572   5.899 -2.5113 -2.0212 -0.8881
17986TIP3    H275450   3.677   4.667   6.015  1.2370  0.0037 -1.6753
17987TIP3   OH275451   4.302   1.718   0.441  0.2263  0.1585 -0.6425
17987TIP3    H175452   4.368   1.659   0.404  0.3480 -0.2688  0.2502
17987TIP3    H275453   4.229   1.712   0.379  1.0456  0.7458 -1.7213
17988TIP3   OH275454   1.368   6.568   1.076 -0.4978 -0.3526 -0.8099
17988TIP3    H175455   1.429   6.524   1.135 -1.5697 -0.3474  0.3566
17988TIP3    H275456   1.403   6.657   1.067 -0.1392 -0.4519 -0.4454
17989TIP3   OH275457   1.471   4.416   0.280 -0.2616 -0.6720 -0.5910
17989TIP3    H175458   1.557   4.374   0.289  0.2783  0.4416 -0.4430
17989TIP3    H275459   1.413   4.363   0.334  0.7329 -0.3302  0.8710
17990TIP3   OH275460   6.398   1.702   5.116 -0.3806 -0.0720 -0.2186
17990TIP3    H175461   6.351   1.732   5.194 -0.2515  1.5210 -0.7303
17990TIP3    H275462   6.394   1.606   5.121 -0.5120  0.0017  1.6531
17991TIP3   OH275463   1.528   4.106  14.433 -0.7017  0.8239 -0.0384
17991TIP3    H175464   1.540   4.056  14.514  0.0649  1.5653  0.3275
17991TIP3    H275465   1.468   4.054  14.381 -2.1710  0.8966  1.5008
17992TIP3   OH275466   0.366   3.543   5.671  0.1148  0.0925 -0.5411
17992TIP3    H175467   0.411   3.606   5.728 -0.2719 -0.0255 -0.1017
17992TIP3    H275468   0.274   3.568   5.677 -0.0249 -0.4403 -0.4622
17993TIP3   OH275469   1.778   3.897   3.127  0.3953  0.1099 -0.0951
17993TIP3    H175470   1.856   3.849   3.155  1.3664  1.3354 -0.5925
17993TIP3    H275471   1.801   3.930   3.040 -1.3564 -0.9576 -1.0001
17994TIP3   OH275472   5.268   2.689   2.506  0.4279 -0.1670  0.4886
17994TIP3    H175473   5.299   2.758   2.565 -2.3966  2.4542 -0.8321
17994TIP3    H275474   5.192   2.652   2.550  0.7930 -1.1682  0.3057
17995TIP3   OH275475   3.172   0.610  15.992 -0.4473 -0.2523  0.0326
17995TIP3    H175476   3.203   0.685  15.941 -0.3667 -0.3523 -0.0698
17995TIP3    H275477   3.182   0.636  16.083 -1.0207  0.0989 -0.0037
17996TIP3   OH275478   2.922   1.624  11.945  0.1148  0.4005  0.6903
17996TIP3    H175479   2.988   1.650  11.881  1.0031 -1.1971  0.9101
17996TIP3    H275480   2.948   1.536  11.972 -3.8191 -1.6761 -1.5174
17997TIP3   OH275481   3.889   2.373  14.780  0.4683  0.1244  0.4524
17997TIP3    H175482   3.962   2.319  14.750 -0.2708 -0.8434  0.3376
17997TIP3    H275483   3.867   2.428  14.704 -1.6718 -2.6035 -1.1234
17998TIP3   OH275484   6.709   3.755   0.103  0.8937  0.4905 -0.0284
17998TIP3    H175485   6.762   3.803   0.167  2.0525  0.3910 -0.8781
17998TIP3    H275486   6.763   3.754   0.024 -0.1308 -0.1651 -0.7382
17999TIP3   OH275487   1.240   2.263   2.601 -0.0397  0.0637  0.2245
17999TIP3    H175488   1.314   2.207   2.581 -0.0597  0.3732 -0.7458
17999TIP3    H275489   1.163   2.214   2.573 -0.0645  0.5246 -0.5276
18000TIP3   OH275490   5.827   1.739   1.002 -0.1372  0.2958 -0.0607
18000TIP3    H175491   5.923   1.737   1.006 -0.1657  0.2452  0.6746
18000TIP3    H275492   5.805   1.691   0.922  0.4887  1.1739 -0.7798
18001TIP3   OH275493   1.932   2.162  10.954 -0.4738 -0.2244 -0.5176
18001TIP3    H175494   1.843   2.189  10.932  0.3030  1.2704 -2.1128
18001TIP3    H275495   1.955   2.099  10.885 -0.5894 -1.2962  0.4052
18002TIP3   OH275496   2.680   4.403  16.012  0.3305  0.4210 -0.1953
18002TIP3    H175497   2.678   4.397  16.107 -1.1129  0.5555 -0.2001
18002TIP3    H275498   2.770   4.428  15.991  0.4112  1.3635  1.1958
18003TIP3   OH275499   5.207   3.177   3.886  0.1476 -0.1011 -0.2073
18003TIP3    H175500   5.199   3.131   3.969 -0.6944  0.2811 -0.0666
18003TIP3    H275501   5.140   3.139   3.830  0.6177 -0.2600 -0.6717
18004TIP3   OH275502   3.858   1.151   4.167 -0.1507  0.0940  0.5657
18004TIP3    H175503   3.851   1.133   4.261 -2.5687  0.2819  0.4873
18004TIP3    H275504   3.806   1.083   4.125 -0.2548  0.8227 -0.5346
18005TIP3   OH275505   5.450   4.937  12.693  0.2406  0.3683 -0.3662
18005TIP3    H175506   5.482   5.022  12.720  0.6222 -0.0767  0.6102
18005TIP3    H275507   5.370   4.924  12.745  1.8224 -1.1803  1.8796
18006TIP3   OH275508   0.177   4.991   2.909 -0.0874 -0.2182  0.0145
18006TIP3    H175509   0.118   5.023   2.841  3.5715  1.6418 -2.6329
18006TIP3    H275510   0.214   4.911   2.874  1.4326  0.4654 -0.0365
18007TIP3   OH275511   6.250   6.809  14.503 -0.7016  0.1575 -0.5344
18007TIP3    H175512   6.286   6.721  14.514  0.3505  0.4331 -1.5529
18007TIP3    H275513   6.296   6.863  14.568 -0.6058  0.1467 -0.5926
18008TIP3   OH275514   3.038   2.463  11.235  0.0026  0.1440 -0.6365
18008TIP3    H175515   3.070   2.373  11.234  1.1954  0.5542 -0.9036
18008TIP3    H275516   2.949   2.458  11.199 -1.9496 -1.5923  3.7211
18009TIP3   OH275517   2.211   5.639  13.044  0.1494  0.1979 -0.6557
18009TIP3    H175518   2.249   5.605  12.964  0.4064 -0.9737 -0.0599
18009TIP3    H275519   2.123   5.669  13.018 -0.6014 -2.1002 -1.0059
18010TIP3   OH275520   2.108   6.096   4.455  0.3345  0.2097 -0.0669
18010TIP3    H175521   2.143   6.035   4.520 -0.0341  0.5609  0.4642
18010TIP3    H275522   2.069   6.167   4.506 -1.0738 -0.1118 -0.6349
18011TIP3   OH275523   2.390   5.274   0.036  0.4905  0.0184 -0.5336
18011TIP3    H175524   2.296   5.270   0.019  0.2532  3.1318 -0.5008
18011TIP3    H275525   2.431   5.256  -0.049 -0.0871 -1.4881 -0.5171
18012TIP3   OH275526   0.925   4.063   2.225  0.0020  0.3278  0.1885
18012TIP3    H175527   0.843   4.093   2.187  1.0375  1.9232 -0.8988
18012TIP3    H275528   0.973   4.143   2.246 -0.0417 -0.4214  3.9924
18013TIP3   OH275529   2.364   2.067   3.661 -0.3326 -0.7971  0.2007
18013TIP3    H175530   2.419   2.071   3.740 -1.0112  0.6458  0.6263
18013TIP3    H275531   2.421   2.098   3.591 -0.2612 -0.4055  0.4311
18014TIP3   OH275532   5.186   6.723   3.080 -0.2731 -0.5936  0.0470
18014TIP3    H175533   5.120   6.738   3.148 -1.8860  1.2345 -1.7860
18014TIP3    H275534   5.139   6.675   3.011  0.5723 -0.1452 -0.8628
18015TIP3   OH275535   0.072   1.089  15.797 -1.1361  0.0320  0.1183
18015TIP3    H175536   0.131   1.067  15.869 -1.2401 -1.6226 -0.2817
18015TIP3    H275537   0.130   1.104  15.723 -1.1783 -1.4378 -0.2345
18016TIP3   OH275538   3.372   4.454  15.698  0.2122  0.2284 -0.1170
18016TIP3    H175539   3.301   4.513  15.722 -1.3149 -1.3989 -0.4547
18016TIP3    H275540   3.406   4.422  15.782 -0.1469  0.2308  0.0291
18017TIP3   OH275541   6.466   6.478  16.563 -0.0317 -0.1887  0.3867
18017TIP3    H175542   6.386   6.435  16.533 -0.3791  0.2890  0.6180
18017TIP3    H275543   6.518   6.408  16.601 -0.1660 -0.5706 -0.1292
18018TIP3   OH275544   2.850   4.673   5.701 -0.2588  0.5826  0.0305
18018TIP3    H175545   2.912   4.622   5.649 -0.2603  0.4325  0.1762
18018TIP3    H275546   2.849   4.631   5.786 -0.1338  0.9279  0.2034
18019TIP3   OH275547   5.529   1.408  13.856 -0.4456 -0.0008  0.1971
18019TIP3    H175548   5.481   1.425  13.775 -1.4553  0.8820  0.9410
18019TIP3    H275549   5.533   1.493  13.899  0.1864 -0.4363  1.0227
18020TIP3   OH275550   6.546   3.482  10.567 -0.0594 -0.0601  0.0366
18020TIP3    H175551   6.544   3.447  10.656 -1.3234  0.4394  0.2160
18020TIP3    H275552   6.456   3.508  10.549 -0.4507 -2.6668 -2.4110
18021TIP3   OH275553   0.243   3.504   1.973 -0.1149 -0.2286  0.0180
18021TIP3    H175554   0.325   3.551   1.988  0.6054 -1.5750  0.5368
18021TIP3    H275555   0.205   3.545   1.895  0.7977  0.7490  0.0671
18022TIP3   OH275556   1.078   4.471   5.667  0.0654  0.4323  0.6267
18022TIP3    H175557   1.147   4.460   5.602  0.0031 -0.4947  0.7088
18022TIP3    H275558   1.076   4.565   5.684  1.4085  0.4645  0.7247
18023TIP3   OH275559   4.891   0.225  15.897  0.2020 -0.7202  0.4488
18023TIP3    H175560   4.880   0.320  15.898  1.5732 -0.4639 -1.5497
18023TIP3    H275561   4.960   0.209  15.961  0.9795 -0.1533 -0.2126
18024TIP3   OH275562   5.953   3.484  16.374  0.5377 -0.4450  0.6860
18024TIP3    H175563   5.954   3.547  16.301  0.0072 -0.7052  0.4552
18024TIP3    H275564   5.868   3.442  16.368  0.5135 -0.4988  1.4395
18025TIP3   OH275565   1.064   6.651   6.127 -0.3902 -0.1664  0.0245
18025TIP3    H175566   1.120   6.573   6.130 -0.7302 -0.4787 -1.1003
18025TIP3    H275567   1.126   6.724   6.125 -0.0624 -0.4030  0.8295
18026TIP3   OH275568   2.887   2.653  11.773  0.0816 -0.1407 -0.0780
18026TIP3    H175569   2.957   2.692  11.722 -0.0321 -0.4611 -0.4845
18026TIP3    H275570   2.915   2.662  11.864 -2.1394  5.4203  0.4238
18027TIP3   OH275571   5.822   4.570  14.854 -0.1098 -0.0649 -0.5268
18027TIP3    H175572   5.849   4.660  14.837  0.6162 -0.1756 -0.0119
18027TIP3    H275573   5.844   4.522  14.774  0.3598  0.0313 -0.4528
18028TIP3   OH275574   5.173   1.338  12.549 -0.5375 -0.0333 -0.4937
18028TIP3    H175575   5.161   1.361  12.641  2.3408 -0.4880  0.0852
18028TIP3    H275576   5.149   1.245  12.544 -2.2715  0.3770 -0.6269
18029TIP3   OH275577   2.346   4.800  11.951  0.0298 -0.5447  0.0430
18029TIP3    H175578   2.309   4.768  12.034 -0.5658  1.1760  0.4878
18029TIP3    H275579   2.415   4.737  11.930 -0.1508 -1.3108  1.5798
18030TIP3   OH275580   6.031   0.489  15.130 -0.7848  0.7052  0.2829
18030TIP3    H175581   6.062   0.560  15.074 -2.2787 -0.1358 -1.7596
18030TIP3    H275582   6.107   0.432  15.141 -0.3505  1.0849 -0.6343
18031TIP3   OH275583   6.340   4.741  14.693  0.0106 -0.4483 -0.0207
18031TIP3    H175584   6.266   4.765  14.748  0.0743  0.7978 -0.4449
18031TIP3    H275585   6.371   4.824  14.658  0.9363 -1.0687 -0.7031
18032TIP3   OH275586   3.730   2.174   4.596 -0.0276 -0.5525 -0.6348
18032TIP3    H175587   3.779   2.236   4.542 -1.3308  1.5727  0.4894
18032TIP3    H275588   3.791   2.149   4.665 -0.3108  1.8137  0.5678
18033TIP3   OH275589   1.133   1.633  16.212 -0.4640  0.3483  0.6543
18033TIP3    H175590   1.158   1.612  16.302  0.9515  0.7675  0.3908
18033TIP3    H275591   1.129   1.729  16.210 -0.6041  0.3381  0.3019
18034TIP3   OH275592   6.495   4.477   1.449 -0.5446  0.0401  0.1346
18034TIP3    H175593   6.449   4.529   1.382 -2.1169 -0.8997  0.4356
18034TIP3    H275594   6.588   4.491   1.430 -0.8381 -1.7009 -3.5430
18035TIP3   OH275595   2.354   2.736  13.030 -0.7797 -0.1251  0.1304
18035TIP3    H175596   2.272   2.737  12.979 -0.3496  3.8137 -0.8133
18035TIP3    H275597   2.423   2.747  12.964  0.1546  0.6482  1.2044
18036TIP3   OH275598   6.408   4.879   1.645 -0.4222  0.4420  0.6801
18036TIP3    H175599   6.451   4.794   1.656 -2.7424 -0.7064  1.6136
18036TIP3    H275600   6.478   4.939   1.620  1.3247 -1.7035  0.1773
18037TIP3   OH275601   2.133   4.575  12.860  0.5690 -0.4338 -0.0219
18037TIP3    H175602   2.100   4.659  12.826  1.2512 -0.6085 -1.1968
18037TIP3    H275603   2.161   4.594  12.949 -1.4397  0.0235  0.5651
18038TIP3   OH275604   6.420   1.404   5.114 -0.5592 -0.1284  0.0564
18038TIP3    H175605   6.511   1.385   5.087 -0.2596  0.7688  0.4052
18038TIP3    H275606   6.420   1.393   5.209 -0.5227  0.9740  0.1986
18039TIP3   OH275607   0.267   3.193   1.381 -0.0815  0.6076  0.1410
18039TIP3    H175608   0.280   3.116   1.436 -0.3739 -0.4869 -1.2670
18039TIP3    H275609   0.258   3.158   1.293 -0.4699  2.2482 -0.5036
18040TIP3   OH275610   4.735   5.013  15.712 -0.2481 -0.0891 -0.4095
18040TIP3    H175611   4.824   4.978  15.710 -0.4214 -0.6913  1.1929
18040TIP3    H275612   4.740   5.089  15.770 -1.0258 -0.9655  0.8597
18041TIP3   OH275613   5.483   2.446   4.478 -0.0050 -0.2907 -0.0082
18041TIP3    H175614   5.485   2.532   4.436 -0.0249  0.2597  1.0783
18041TIP3    H275615   5.563   2.444   4.531 -0.1379 -0.8387  0.1756
18042TIP3   OH275616   5.515   6.599  15.474 -0.4006 -0.1351  0.1930
18042TIP3    H175617   5.461   6.606  15.395  0.6807 -1.2994 -0.6710
18042TIP3    H275618   5.506   6.508  15.502  1.2479 -0.4151 -0.0865
18043TIP3   OH275619   0.381   5.402  16.243  0.0513  0.0608 -0.2939
18043TIP3    H175620   0.442   5.401  16.317  2.0535  0.8816 -1.8269
18043TIP3    H275621   0.351   5.493  16.238 -0.1126  0.0001 -0.4380
18044TIP3   OH275622   0.950   4.670   5.883 -0.2210  0.0589 -0.0916
18044TIP3    H175623   1.002   4.712   5.814 -1.3842  0.7350 -0.6025
18044TIP3    H275624   0.914   4.743   5.933 -2.8321 -0.2125 -1.4040
18045TIP3   OH275625   2.394   3.476  13.122  0.8112  0.0763  0.4962
18045TIP3    H175626   2.471   3.532  13.130  0.7282  0.0036  2.3325
18045TIP3    H275627   2.321   3.537  13.117  0.9628  0.1462 -1.3097
18046TIP3   OH275628   3.157   2.246  11.985 -0.4799 -0.2835  0.1622
18046TIP3    H175629   3.195   2.205  12.063 -1.4922 -2.6806 -0.5134
18046TIP3    H275630   3.231   2.256  11.925 -0.2243 -1.3262  0.2905
18047TIP3   OH275631   5.416   2.661  13.608 -0.6960  0.1021  0.2173
18047TIP3    H175632   5.422   2.568  13.630  0.3549  0.0290 -0.3069
18047TIP3    H275633   5.505   2.694  13.620 -1.1764  1.1636  0.9101
18048TIP3   OH275634   2.597   4.197   4.831 -0.1290 -0.6332 -0.3444
18048TIP3    H175635   2.672   4.251   4.806 -1.1742  0.3572 -1.4930
18048TIP3    H275636   2.619   4.164   4.918  0.8166  1.1913  0.1605
18049TIP3   OH275637   0.202   3.320   2.723 -1.0616  0.4398 -0.2326
18049TIP3    H175638   0.192   3.240   2.774  0.5509 -0.3167 -1.0283
18049TIP3    H275639   0.141   3.382   2.763 -1.6923 -0.9070  0.9648
18050TIP3   OH275640   0.944   0.975   1.532  0.8101 -0.3808  0.2501
18050TIP3    H175641   0.909   1.019   1.455  2.1490  1.1486  0.4575
18050TIP3    H275642   0.932   0.882   1.514  0.4911 -0.0400 -1.4953
18051TIP3   OH275643   0.134   3.686  14.969 -0.1555  0.2597  0.3666
18051TIP3    H175644   0.154   3.663  15.060 -1.7034 -3.2992  0.0017
18051TIP3    H275645   0.046   3.723  14.972 -0.2802 -0.0262  0.3445
18052TIP3   OH275646   5.348   0.841   4.831  0.3342 -0.1269  0.4589
18052TIP3    H175647   5.374   0.770   4.890 -0.9763  0.7283  2.1379
18052TIP3    H275648   5.268   0.809   4.789 -1.2934  0.9859  2.5691
18053TIP3   OH275649   3.243   3.930   4.891  0.1583 -0.2200 -0.8008
18053TIP3    H175650   3.221   3.874   4.965  1.3328  0.8230  0.3980
18053TIP3    H275651   3.338   3.922   4.882  0.5597  2.4357  0.2137
18054TIP3   OH275652   3.268   5.891   5.584 -0.7609  0.5393 -0.1544
18054TIP3    H175653   3.239   5.885   5.494 -0.8530  0.7366 -0.1388
18054TIP3    H275654   3.361   5.868   5.581 -0.7810  0.4739 -0.2873
18055TIP3   OH275655   4.305   2.581  16.991  0.1905  0.4961 -0.2601
18055TIP3    H175656   4.304   2.491  17.023 -1.0703  0.5428 -0.1398
18055TIP3    H275657   4.296   2.635  17.069 -0.3290  0.6816 -0.4397
18056TIP3   OH275658   2.806   5.935  13.069 -0.3959  0.0038  0.2546
18056TIP3    H175659   2.869   5.871  13.101 -2.2057 -2.2524 -0.4123
18056TIP3    H275660   2.823   6.014  13.120  2.5832 -0.6271  0.4291
18057TIP3   OH275661   2.563   5.064   5.182 -0.2562  0.1927 -0.0255
18057TIP3    H175662   2.578   5.038   5.273  1.6744  2.2204  0.3350
18057TIP3    H275663   2.626   5.013   5.131 -0.2214  0.2341 -0.0238
18058TIP3   OH275664   6.460   3.307  16.118  0.5229  0.0206  0.3010
18058TIP3    H175665   6.417   3.263  16.191 -2.1448  0.1617 -1.0784
18058TIP3    H275666   6.421   3.395  16.116 -0.0136 -0.2117 -1.6792
18059TIP3   OH275667   4.437   2.472  15.225 -0.4693  0.3251 -0.1652
18059TIP3    H175668   4.353   2.464  15.272  0.3612  0.5842  1.4382
18059TIP3    H275669   4.455   2.566  15.225  0.5357  0.1575  0.8801
18060TIP3   OH275670   3.893   2.088  12.553  0.1309 -0.2882 -0.3302
18060TIP3    H175671   3.909   2.036  12.474 -1.3249 -0.7140 -0.3746
18060TIP3    H275672   3.874   2.176  12.520  1.3915  0.0062 -0.3233
18061TIP3   OH275673   5.242   2.111   6.247  0.1586 -0.0228  0.5719
18061TIP3    H175674   5.179   2.106   6.319 -0.5300  0.5026  0.0159
18061TIP3    H275675   5.318   2.062   6.279  0.1793  0.8509  1.9644
18062TIP3   OH275676   5.701   1.937  13.022 -0.6687 -0.1635 -0.3831
18062TIP3    H175677   5.696   2.018  12.971 -0.1007 -1.1200 -2.0252
18062TIP3    H275678   5.698   1.966  13.113  2.2231  1.9592 -0.8208
18063TIP3   OH275679   5.674   4.021   3.540  0.0293  0.1781  0.2184
18063TIP3    H175680   5.603   4.009   3.476 -1.4911  2.2358  1.3774
18063TIP3    H275681   5.642   3.977   3.619  0.8488 -0.3895  0.2362
18064TIP3   OH275682   3.845   5.398  13.673  0.4061  0.1101  0.5495
18064TIP3    H175683   3.783   5.341  13.627  0.5174  1.3296 -1.1966
18064TIP3    H275684   3.914   5.415  13.609  0.5768  1.8753  1.1683
18065TIP3   OH275685   6.418   1.125  14.819  0.2615 -0.0586  0.3681
18065TIP3    H175686   6.427   1.164  14.907 -1.5080  1.0219  0.1101
18065TIP3    H275687   6.483   1.055  14.818  0.3225 -0.1114  2.5482
18066TIP3   OH275688   1.475   1.659  12.153 -0.0758  0.4239  0.5666
18066TIP3    H175689   1.403   1.714  12.184 -1.6005 -1.8049  1.2000
18066TIP3    H275690   1.439   1.614  12.077  1.7011  1.4447 -0.9765
18067TIP3   OH275691   4.076   6.449  14.532 -0.4478  0.1708  0.1949
18067TIP3    H175692   4.147   6.480  14.589 -0.5868  0.1905  0.3573
18067TIP3    H275693   4.119   6.433  14.448 -0.5130  1.5678 -0.1285
18068TIP3   OH275694   0.088   3.571   4.844  0.0636 -0.0380 -0.2251
18068TIP3    H175695   0.059   3.662   4.849 -0.1683 -0.1685  1.7213
18068TIP3    H275696   0.149   3.561   4.917 -0.0667 -1.4909 -0.2787
18069TIP3   OH275697   5.416   2.821  15.099  0.0330  0.0239  1.1012
18069TIP3    H175698   5.396   2.786  15.185 -0.4358 -2.2610  0.1215
18069TIP3    H275699   5.381   2.757  15.038 -1.8242  2.7274 -0.8729
18070TIP3   OH275700   6.335   5.142   4.313 -0.3088 -0.2405  0.5413
18070TIP3    H175701   6.398   5.071   4.329  1.4276  1.0251 -0.4126
18070TIP3    H275702   6.287   5.113   4.235 -0.8362 -1.1378  1.1760
18071TIP3   OH275703   6.106   0.098  16.975  0.2373 -0.0238 -0.0405
18071TIP3    H175704   6.085   0.024  16.917 -0.6242  0.5283 -0.4536
18071TIP3    H275705   6.173   0.147  16.927  2.0656 -1.4179  0.9745
18072TIP3   OH275706   0.367   1.217   4.171  0.1824 -0.3286 -0.5059
18072TIP3    H175707   0.363   1.272   4.093 -0.5321 -0.4683 -0.5733
18072TIP3    H275708   0.275   1.202   4.195  0.3798  0.8307  1.1391
18073TIP3   OH275709   1.542   5.166  15.393  0.1018  0.1729 -0.3409
18073TIP3    H175710   1.538   5.261  15.406  1.3567 -0.0071  1.5585
18073TIP3    H275711   1.555   5.156  15.298 -1.2296  1.8252 -0.7560
18074TIP3   OH275712   0.231   2.157  15.506  0.1369  0.0580  0.0195
18074TIP3    H175713   0.176   2.196  15.438 -1.1866 -0.0214  1.0012
18074TIP3    H275714   0.174   2.095  15.551  1.2019 -0.4556  0.7221
18075TIP3   OH275715   5.467   5.961  10.454 -0.6886 -0.5325 -0.2048
18075TIP3    H175716   5.425   5.980  10.370  1.0572  0.3243 -0.9320
18075TIP3    H275717   5.442   5.871  10.474 -1.4136 -0.6345 -1.4739
18076TIP3   OH275718   0.199   0.092  11.177 -0.6292 -0.5966  0.1012
18076TIP3    H175719   0.130   0.112  11.114 -0.5227 -0.5914 -0.0153
18076TIP3    H275720   0.278   0.081  11.123 -0.0941  1.4561  0.3944
18077TIP3   OH275721   6.106   4.111   5.267 -0.0679 -0.0890 -0.5233
18077TIP3    H175722   6.065   4.188   5.304 -0.5355  0.2799 -1.7454
18077TIP3    H275723   6.107   4.127   5.172 -0.1622 -1.5629 -0.8046
18078TIP3   OH275724   2.287   0.030  11.493 -0.4642 -0.7859 -0.0956
18078TIP3    H175725   2.309   0.072  11.576  1.6906 -0.3132 -0.8442
18078TIP3    H275726   2.269   0.103  11.433 -0.7343 -1.0775 -0.3770
18079TIP3   OH275727   6.857   3.301   4.879 -0.2393 -0.2695 -0.6613
18079TIP3    H175728   6.868   3.392   4.907  1.7297 -1.2601  2.1497
18079TIP3    H275729   6.946   3.270   4.865 -0.8744 -1.8788 -1.3602
18080TIP3   OH275730   1.869   6.780   4.611  0.1021  0.0328 -0.6276
18080TIP3    H175731   1.788   6.729   4.614  1.1124 -1.6075  1.1128
18080TIP3    H275732   1.851   6.857   4.664 -0.8557  0.6501 -1.7771
18081TIP3   OH275733   0.813   3.387  12.017  0.4153 -0.1152 -0.1278
18081TIP3    H175734   0.850   3.475  12.003  0.2390 -0.3370 -2.2560
18081TIP3    H275735   0.875   3.328  11.974 -0.5934 -0.8308 -0.6245
18082TIP3   OH275736   3.263   4.912  12.674 -0.2489 -0.2900 -0.3751
18082TIP3    H175737   3.320   4.837  12.688  0.3349  0.4836  1.6177
18082TIP3    H275738   3.181   4.874  12.641 -0.1804 -1.8685  1.1673
18083TIP3   OH275739   2.697   3.342  10.862 -0.0171  0.0002 -0.0925
18083TIP3    H175740   2.732   3.281  10.928  0.1457  0.8345  0.6097
18083TIP3    H275741   2.670   3.286  10.790  1.2144 -0.8100  0.0524
18084TIP3   OH275742   6.076   4.108  13.356 -0.1515  0.0803 -0.0412
18084TIP3    H175743   6.030   4.188  13.384 -0.8578 -0.4157  0.2426
18084TIP3    H275744   6.054   4.043  13.423  0.8079 -0.2319 -0.0112
18085TIP3   OH275745   5.371   6.534   3.159  0.0077  0.6906  0.4088
18085TIP3    H175746   5.317   6.612   3.145  0.2354  1.0166  1.2531
18085TIP3    H275747   5.338   6.497   3.241 -0.9024 -0.8041 -0.5822
18086TIP3   OH275748   1.827   5.029   3.689  0.3548  0.0178  0.6194
18086TIP3    H175749   1.910   5.036   3.641  0.5690 -2.5115  0.4636
18086TIP3    H275750   1.851   5.044   3.781  0.7018  0.7649  0.4121
18087TIP3   OH275751   1.511   0.444  14.503 -0.3382  0.3591  0.1881
18087TIP3    H175752   1.475   0.483  14.423  0.9972  2.0477  0.3640
18087TIP3    H275753   1.517   0.516  14.565  1.5497 -0.2412  0.7746
18088TIP3   OH275754   0.029   2.568   1.884  0.1486  0.2729  0.3491
18088TIP3    H175755  -0.018   2.652   1.887  0.2442  0.3011  1.3754
18088TIP3    H275756  -0.007   2.524   1.807 -1.8940  0.1275  1.3142
18089TIP3   OH275757   5.796   6.620  14.923  0.0131 -0.0064  0.1577
18089TIP3    H175758   5.813   6.709  14.953 -1.5809 -0.0780  1.4123
18089TIP3    H275759   5.761   6.630  14.834  1.6012  0.4524 -0.4422
18090TIP3   OH275760   1.924   1.826   4.080  0.0876  0.1606  0.1192
18090TIP3    H175761   2.011   1.847   4.047  1.2373 -2.6939  0.9985
18090TIP3    H275762   1.880   1.784   4.006 -1.0831  2.6268 -0.6963
18091TIP3   OH275763   4.269   1.269   0.382 -0.0137 -0.7408  0.3050
18091TIP3    H175764   4.231   1.188   0.347 -1.6221 -0.1041  0.4643
18091TIP3    H275765   4.228   1.278   0.469  0.4039  0.0620  0.4241
18092TIP3   OH275766   0.491   4.641  15.665  0.1406  0.3252  0.2925
18092TIP3    H175767   0.469   4.715  15.608  0.9185 -0.9851 -1.8402
18092TIP3    H275768   0.510   4.569  15.604  1.5380 -1.0271  2.2089
18093TIP3   OH275769   2.226   2.675  16.605  0.2581  0.2881  0.3502
18093TIP3    H175770   2.207   2.713  16.519  0.5001  1.4443  0.7832
18093TIP3    H275771   2.290   2.606  16.587 -1.5162 -1.1589 -0.6672
18094TIP3   OH275772   6.013   0.765   2.321 -0.3614  0.2673 -0.3063
18094TIP3    H175773   6.026   0.761   2.416  0.6926 -0.8525 -0.4732
18094TIP3    H275774   6.029   0.856   2.298  0.9663  0.2298  0.3924
18095TIP3   OH275775   5.927   4.245   0.819  0.4961 -0.3433 -0.3460
18095TIP3    H175776   5.848   4.256   0.766  1.6077  3.5508 -1.5467
18095TIP3    H275777   5.894   4.244   0.909 -1.0287  0.2937 -0.8452
18096TIP3   OH275778   1.991   1.478   0.207 -0.7701 -0.4425 -0.0564
18096TIP3    H175779   2.076   1.447   0.240 -1.3203 -2.7355 -0.5685
18096TIP3    H275780   1.992   1.572   0.221  1.4052 -0.5623  0.9830
18097TIP3   OH275781   4.254   0.158   3.130  0.0700 -0.7120 -0.2199
18097TIP3    H175782   4.258   0.203   3.214 -0.8844  0.5195 -0.7835
18097TIP3    H275783   4.342   0.123   3.116  0.6583  0.4063  0.5745
18098TIP3   OH275784   3.427   4.536   4.319  0.2123 -0.1325 -0.0495
18098TIP3    H175785   3.337   4.552   4.292  0.5191  2.6169  0.2420
18098TIP3    H275786   3.468   4.493   4.243 -0.7453  0.8226 -1.1435
18099TIP3   OH275787   3.792   4.563  13.606  0.5202  0.0565 -0.2023
18099TIP3    H175788   3.718   4.622  13.587  0.6682 -0.4438 -2.7267
18099TIP3    H275789   3.767   4.518  13.686 -0.2113  2.5402  1.0836
18100TIP3   OH275790   3.676   1.976  16.830 -0.0256 -0.3695  0.1259
18100TIP3    H175791   3.717   1.948  16.748 -1.4099  0.5917 -0.9417
18100TIP3    H275792   3.721   2.056  16.854  1.0420 -1.1675  0.8638
18101TIP3   OH275793   1.961   0.206  16.696  0.1787  0.3725 -0.0936
18101TIP3    H175794   2.048   0.237  16.719 -0.3463  0.9288  1.1913
18101TIP3    H275795   1.972   0.112  16.683  1.6168  0.8433 -3.2261
18102TIP3   OH275796   1.939   5.165   1.148  0.2623 -0.4513  0.4003
18102TIP3    H175797   1.924   5.258   1.165  0.7726 -0.3809  0.4723
18102TIP3    H275798   1.854   5.132   1.120  0.2910  0.2582 -0.6011
18103TIP3   OH275799   5.294   3.664   0.807 -0.2886 -0.0584 -0.0750
18103TIP3    H175800   5.249   3.579   0.812 -1.1353  0.4192  0.7253
18103TIP3    H275801   5.331   3.677   0.894 -0.8111  0.7418  0.0337
18104TIP3   OH275802   5.360   4.808  15.325 -0.1870 -0.4341  0.0338
18104TIP3    H175803   5.377   4.877  15.260 -0.4254 -0.6792 -0.2956
18104TIP3    H275804   5.346   4.855  15.407  1.0170 -0.1626  0.1094
18105TIP3   OH275805   0.685   3.033   5.113  0.1427  0.1122 -0.0322
18105TIP3    H175806   0.765   3.070   5.151  0.0825 -0.4415  0.6585
18105TIP3    H275807   0.617   3.054   5.177 -0.7841  2.6760 -1.6798
18106TIP3   OH275808   4.979   1.554   6.217 -0.0284  0.0594 -0.2242
18106TIP3    H175809   4.945   1.644   6.217  0.1472  0.1346  0.6577
18106TIP3    H275810   5.073   1.563   6.203 -0.1006 -0.0305 -0.7768
18107TIP3   OH275811   5.136   5.011   2.751 -0.8706 -0.0888 -0.0248
18107TIP3    H175812   5.053   4.965   2.764 -1.4711  0.8975 -0.2791
18107TIP3    H275813   5.126   5.055   2.667 -0.4425  0.7610  0.3566
18108TIP3   OH275814   1.009   4.085  11.698 -0.3198  0.0679  0.5541
18108TIP3    H175815   1.026   4.133  11.779  0.7197  1.8152 -0.6319
18108TIP3    H275816   1.053   4.001  11.711  0.4991  0.6174  1.5224
18109TIP3   OH275817   1.553   0.252  15.358  0.6346 -0.4162  0.0404
18109TIP3    H175818   1.624   0.311  15.381  1.4415 -1.2571 -0.2093
18109TIP3    H275819   1.477   0.308  15.347  1.3436  0.5477 -0.0531
18110TIP3   OH275820   4.052   1.044   3.169 -0.1855  0.0326 -0.0873
18110TIP3    H175821   3.990   1.097   3.219  1.1386  1.3773  0.2128
18110TIP3    H275822   4.068   1.095   3.089 -0.7024 -1.0952 -0.9318
18111TIP3   OH275823   5.878   5.792  15.341 -0.2919  0.0176  0.5507
18111TIP3    H175824   5.888   5.699  15.323 -1.8503 -0.3487  1.3319
18111TIP3    H275825   5.904   5.801  15.433 -3.0286 -0.2813  1.4459
18112TIP3   OH275826   4.459   1.741   5.937  0.6260  0.2435 -0.2063
18112TIP3    H175827   4.520   1.681   5.981 -0.4970 -1.9593 -1.4420
18112TIP3    H275828   4.453   1.816   5.996  1.3838 -1.2744  1.9618
18113TIP3   OH275829   5.571   3.434   4.815  0.6089 -0.4217  0.0750
18113TIP3    H175830   5.566   3.369   4.886 -0.1416 -0.2654  0.1671
18113TIP3    H275831   5.566   3.519   4.859  0.9163 -0.3051 -0.1065
18114TIP3   OH275832   2.868   4.615   4.587 -0.1126 -0.1518 -0.6853
18114TIP3    H175833   2.962   4.630   4.577 -0.1404  0.6601  0.1544
18114TIP3    H275834   2.827   4.688   4.541 -0.3958 -1.4393 -2.5960
18115TIP3   OH275835   5.260   6.612   0.869  0.8346  0.1376 -0.2590
18115TIP3    H175836   5.268   6.632   0.962  0.2184  2.2251 -0.6054
18115TIP3    H275837   5.349   6.588   0.842  1.6586  2.2918  0.3156
18116TIP3   OH275838   2.234   1.132  16.125 -0.4385  0.4158 -0.0191
18116TIP3    H175839   2.145   1.127  16.090 -0.6137  0.5864  0.3841
18116TIP3    H275840   2.248   1.047  16.166 -0.7893  0.7228  0.7639
18117TIP3   OH275841   2.069   2.146   4.601 -0.1571  0.3193  0.2333
18117TIP3    H175842   2.054   2.176   4.691 -0.4742 -0.9734  0.6235
18117TIP3    H275843   2.142   2.201   4.570  0.0412  0.6965  1.3145
18118TIP3   OH275844   1.195   5.937   5.200  0.3286  0.3175 -0.3516
18118TIP3    H175845   1.264   5.955   5.136  0.0518  0.2572 -0.6722
18118TIP3    H275846   1.115   5.971   5.160  0.2930  1.1027  0.3600
18119TIP3   OH275847   1.758   4.307   5.235  0.3525 -0.5938  0.5024
18119TIP3    H175848   1.852   4.290   5.242  0.5702 -0.6241 -1.7949
18119TIP3    H275849   1.745   4.337   5.145 -1.7461  0.1502  0.9764
18120TIP3   OH275850   1.632   1.381  16.270 -0.4524 -0.3375 -0.1393
18120TIP3    H175851   1.690   1.354  16.198  2.5911  1.0013  1.6424
18120TIP3    H275852   1.617   1.300  16.320  1.9157 -0.3210  0.6788
18121TIP3   OH275853   3.694   4.706  13.259 -0.1582 -0.5362 -0.3292
18121TIP3    H175854   3.680   4.776  13.195  0.2605  1.2311  1.4073
18121TIP3    H275855   3.772   4.734  13.307 -2.0069 -0.2776  2.7771
18122TIP3   OH275856   6.578   1.281  16.198  0.0874  0.1933 -0.3334
18122TIP3    H175857   6.608   1.204  16.151  0.2794 -0.0946  0.2586
18122TIP3    H275858   6.516   1.248  16.263 -0.9838  0.7011 -1.0683
18123TIP3   OH275859   1.888   5.395  11.050  0.6167  0.0007  0.6343
18123TIP3    H175860   1.904   5.399  10.955 -0.1721 -0.5117  0.4657
18123TIP3    H275861   1.865   5.484  11.074  0.5387  0.0777  0.2857
18124TIP3   OH275862   6.053   3.927   1.641 -0.1357  0.5123  0.3773
18124TIP3    H175863   6.142   3.907   1.612 -0.9126 -0.0236 -1.8362
18124TIP3    H275864   6.022   3.994   1.581 -1.5336  0.0554  0.5464
18125TIP3   OH275865   6.258   2.299   0.014 -0.0956  0.4809  0.3153
18125TIP3    H175866   6.227   2.386  -0.011  1.2990  0.5942 -1.2335
18125TIP3    H275867   6.347   2.314   0.047 -0.8096 -0.0680  2.6985
18126TIP3   OH275868   2.629   6.488  14.883  0.2265 -0.5289 -0.2346
18126TIP3    H175869   2.552   6.488  14.938  0.5236 -3.2046  0.2935
18126TIP3    H275870   2.595   6.495  14.794 -0.4503  0.4321  0.0831
18127TIP3   OH275871   5.929   1.104  13.022  0.0663  0.5738  0.0170
18127TIP3    H175872   6.004   1.163  13.034  0.0925  1.1164 -2.3617
18127TIP3    H275873   5.919   1.061  13.107  1.7412  2.0240  1.0277
18128TIP3   OH275874   6.599   4.126   3.895 -0.4039 -0.1001  0.4738
18128TIP3    H175875   6.614   4.117   3.989  0.9716  0.9363  0.3834
18128TIP3    H275876   6.589   4.220   3.882  0.9102 -0.0876 -0.6095
18129TIP3   OH275877   1.490   2.711  11.761  0.2775 -0.4727 -0.0863
18129TIP3    H175878   1.456   2.706  11.850  0.9963 -0.6654  0.1897
18129TIP3    H275879   1.413   2.725  11.706 -0.1535 -0.1721  0.5804
18130TIP3   OH275880   4.330   1.786   3.170 -0.3628 -0.1660  0.2832
18130TIP3    H175881   4.276   1.860   3.142 -0.9985 -0.2556  1.2138
18130TIP3    H275882   4.419   1.820   3.171 -0.7353  0.8593  1.4807
18131TIP3   OH275883   2.878   1.701  12.631  0.2308  0.3209 -0.0344
18131TIP3    H175884   2.783   1.696  12.622  0.1999  0.4836  0.2041
18131TIP3    H275885   2.899   1.637  12.699  0.4163 -0.5574 -0.8754
18132TIP3   OH275886   5.577   1.860  12.034  0.0665 -0.0898 -0.4140
18132TIP3    H175887   5.538   1.947  12.042  1.4548  0.3570  3.1718
18132TIP3    H275888   5.524   1.804  12.091 -1.2839 -1.9698 -3.2239
18133TIP3   OH275889   5.662   4.326   1.754  0.1227 -0.2886 -0.4633
18133TIP3    H175890   5.670   4.378   1.674  0.6702  0.2902 -0.0408
18133TIP3    H275891   5.641   4.238   1.723  0.6798 -0.1531 -1.2694
18134TIP3   OH275892   1.253   3.973  16.516  0.1188 -0.3175 -0.4234
18134TIP3    H175893   1.266   4.062  16.547  0.4573 -0.3562 -0.4516
18134TIP3    H275894   1.194   3.933  16.580 -0.1073 -0.0476 -0.4615
18135TIP3   OH275895   1.054   5.848  16.646 -0.5517  0.2942  0.1144
18135TIP3    H175896   1.036   5.773  16.703  1.8759  1.2939  2.4124
18135TIP3    H275897   0.977   5.904  16.656 -1.8091 -1.2348 -0.6103
18136TIP3   OH275898   3.626   2.883  11.837  0.0243 -0.1842 -0.2356
18136TIP3    H175899   3.557   2.858  11.899 -0.8768  0.4536 -0.9653
18136TIP3    H275900   3.695   2.922  11.891 -1.2251  1.3826  0.2652
18137TIP3   OH275901   0.610   3.250  13.815 -0.2923 -0.2660  0.2287
18137TIP3    H175902   0.545   3.268  13.747  0.6021  0.8576 -0.3543
18137TIP3    H275903   0.563   3.264  13.897 -0.5430  1.5924 -0.1847
18138TIP3   OH275904   0.308   4.589  11.419  0.3816 -0.4040 -0.3803
18138TIP3    H175905   0.308   4.557  11.329 -0.5251  0.6142 -0.7614
18138TIP3    H275906   0.274   4.517  11.471  1.8373 -1.3636 -0.6889
18139TIP3   OH275907   4.120   6.705  15.528 -0.1954 -0.3991 -0.3325
18139TIP3    H175908   4.098   6.762  15.602 -0.3291 -0.8439 -0.0281
18139TIP3    H275909   4.153   6.625  15.568  1.1213 -0.1058 -0.7643
18140TIP3   OH275910   3.086   5.870   2.925  0.1069  0.3238 -0.3697
18140TIP3    H175911   3.008   5.924   2.931  0.5349  0.8225  1.1292
18140TIP3    H275912   3.158   5.930   2.947  0.8544 -0.2806 -1.0892
18141TIP3   OH275913   6.351   0.714  12.702 -0.1811 -0.1325  0.1661
18141TIP3    H175914   6.275   0.658  12.692 -0.3240 -0.0327  0.6569
18141TIP3    H275915   6.415   0.659  12.749 -0.2884  0.0865  0.5674
18142TIP3   OH275916   3.636   1.197   4.809  0.0278 -0.2859 -0.2689
18142TIP3    H175917   3.653   1.290   4.797  1.5903 -0.2749  1.5666
18142TIP3    H275918   3.693   1.153   4.746  2.5335 -0.0619  1.7219
18143TIP3   OH275919   2.200   3.542  16.919  0.0685  0.0700  0.3314
18143TIP3    H175920   2.204   3.564  16.826  1.6330 -1.4855 -0.0241
18143TIP3    H275921   2.255   3.607  16.962  1.3994 -0.6936 -0.1779
18144TIP3   OH275922   0.184   4.242   4.526  0.0343 -0.3189 -0.0430
18144TIP3    H175923   0.192   4.287   4.442  0.2323 -0.1440  0.0711
18144TIP3    H275924   0.196   4.310   4.592 -1.2844 -0.2370  0.1350
18145TIP3   OH275925   2.842   5.466  16.649 -0.0839 -0.3236  0.4631
18145TIP3    H175926   2.878   5.522  16.580  1.3255  0.3261  1.6823
18145TIP3    H275927   2.862   5.511  16.730 -0.5877 -1.6942  1.3870
18146TIP3   OH275928   0.926   0.290   1.097  0.1662 -0.0022  0.8003
18146TIP3    H175929   0.926   0.327   1.008 -0.7313 -2.6856 -0.4079
18146TIP3    H275930   0.998   0.227   1.096 -0.3784 -0.6480  1.7125
18147TIP3   OH275931   4.828   2.924   5.180 -0.4229  0.3681 -0.4913
18147TIP3    H175932   4.901   2.895   5.126  1.6182  3.8388  0.1137
18147TIP3    H275933   4.763   2.957   5.118  0.7090  1.7835 -0.9760
18148TIP3   OH275934   5.637   5.466   6.423  0.7402 -0.4238  0.7994
18148TIP3    H175935   5.627   5.545   6.369 -3.0721 -1.1181  0.2145
18148TIP3    H275936   5.645   5.394   6.360 -2.7353 -1.1284  0.9776
18149TIP3   OH275937   0.751   3.016  11.977 -0.1729  0.2426  0.1875
18149TIP3    H175938   0.835   3.060  11.966 -1.1920  2.0958 -0.5487
18149TIP3    H275939   0.760   2.934  11.928  1.9630 -0.7628  2.0710
18150TIP3   OH275940   2.425   2.105   0.164 -0.0537  0.0977 -0.5970
18150TIP3    H175941   2.520   2.111   0.153  0.1136  0.5513  0.9220
18150TIP3    H275942   2.396   2.052   0.090  1.6780 -2.1726  0.2320
18151TIP3   OH275943   1.916   3.843   1.977 -0.4802 -0.3163 -0.0071
18151TIP3    H175944   1.952   3.845   1.888 -0.7678  2.9967 -0.1672
18151TIP3    H275945   1.969   3.777   2.023  1.5439 -0.1255 -1.9132
18152TIP3   OH275946   4.117   1.208  16.172  0.6279  0.3463 -0.1798
18152TIP3    H175947   4.154   1.139  16.227  1.9038  0.6329 -0.6449
18152TIP3    H275948   4.193   1.252  16.134 -0.1928  0.8733 -1.2811
18153TIP3   OH275949   3.877   2.996  11.992  0.4050 -0.3896 -0.1312
18153TIP3    H175950   3.933   2.929  11.953  1.5993  0.1409  0.6162
18153TIP3    H275951   3.822   2.949  12.054  3.5317 -0.4153  2.9503
18154TIP3   OH275952   6.658   2.771  15.512 -0.2121 -0.1592  0.9605
18154TIP3    H175953   6.657   2.854  15.560  0.9991  1.3884 -1.5108
18154TIP3    H275954   6.747   2.738  15.522  0.5320  0.9597 -1.3276
18155TIP3   OH275955   6.100   5.239   1.171 -0.3362 -0.1469  0.1263
18155TIP3    H175956   6.145   5.223   1.254 -2.1062  0.5132  1.2772
18155TIP3    H275957   6.152   5.307   1.128 -0.8344  1.5138  1.9962
18156TIP3   OH275958   0.380   2.699  16.984  0.5706  0.5817  0.7203
18156TIP3    H175959   0.423   2.782  16.963 -1.3132  1.5012  0.2060
18156TIP3    H275960   0.434   2.632  16.941  1.2507  1.6969 -0.2270
18157TIP3   OH275961   5.935   2.336  16.977  0.0828  0.0252  0.2841
18157TIP3    H175962   5.915   2.426  17.003 -1.3369  0.0566 -0.8382
18157TIP3    H275963   5.936   2.288  17.060 -1.3082  0.6805  0.7124
18158TIP3   OH275964   4.000   5.714   2.329 -0.1350 -0.0421 -0.7471
18158TIP3    H175965   4.031   5.748   2.413 -0.3476 -1.4306 -0.0659
18158TIP3    H275966   3.909   5.687   2.346  0.1289 -1.2648 -1.1167
18159TIP3   OH275967   1.938   6.378  12.062 -0.3590 -0.4576 -0.3286
18159TIP3    H175968   1.892   6.379  11.978 -1.3529 -0.7943  0.1901
18159TIP3    H275969   1.928   6.288  12.093  0.8262 -0.5887 -0.2799
18160TIP3   OH275970   4.202   1.769   3.864  0.1264 -0.3526 -0.1615
18160TIP3    H175971   4.149   1.819   3.802 -2.4527 -1.3228  1.1224
18160TIP3    H275972   4.195   1.818   3.946  0.8766 -0.7296  0.1324
18161TIP3   OH275973   6.509   0.643   2.466  0.4126 -0.1710  0.0139
18161TIP3    H175974   6.598   0.678   2.470  0.1930  0.5366 -0.8404
18161TIP3    H275975   6.514   0.573   2.401  0.6773 -1.2407  1.1456
18162TIP3   OH275976   0.023   3.213  12.587  0.5039  0.1589 -0.0841
18162TIP3    H175977   0.097   3.271  12.605 -0.6592  1.7139 -0.1144
18162TIP3    H275978   0.018   3.155  12.663  2.0170 -0.3076 -0.3056
18163TIP3   OH275979   4.513   1.927  11.942 -0.5193 -0.2834  0.0543
18163TIP3    H175980   4.578   1.897  12.006 -1.1392 -1.1926  0.2872
18163TIP3    H275981   4.483   2.012  11.975  0.2876 -0.0274  0.1328
18164TIP3   OH275982   0.034   4.825   0.658  0.1855  0.7713  0.0113
18164TIP3    H175983   0.014   4.913   0.690 -0.0501  0.4122  0.9085
18164TIP3    H275984  -0.002   4.767   0.726  0.0229 -0.0222 -0.7405
18165TIP3   OH275985   4.948   2.474  12.640 -0.2974 -1.0280 -0.0841
18165TIP3    H175986   4.944   2.569  12.631  3.0483 -0.8340 -1.1274
18165TIP3    H275987   4.903   2.456  12.722 -1.0142  1.4534  0.1558
18166TIP3   OH275988   4.522   3.064   2.978  0.1543 -0.4545  0.1878
18166TIP3    H175989   4.612   3.097   2.976  0.4660 -1.2574  0.6209
18166TIP3    H275990   4.516   3.007   2.902 -0.1621  0.0299 -0.1525
18167TIP3   OH275991   1.220   2.990  10.913 -0.1499  0.6607 -0.3172
18167TIP3    H175992   1.213   2.938  10.833  0.0477  0.7973 -0.4258
18167TIP3    H275993   1.260   2.931  10.977 -1.0338  0.3028 -0.0866
18168TIP3   OH275994   2.615   0.993   5.251  0.1141  0.3602 -0.5409
18168TIP3    H175995   2.700   1.008   5.291 -0.0524  1.4281 -0.5565
18168TIP3    H275996   2.624   1.026   5.161 -0.1838  0.0563 -0.6877
18169TIP3   OH275997   1.553   1.848   2.820 -0.5089  0.1984  0.0013
18169TIP3    H175998   1.464   1.882   2.831 -0.2157  1.0914 -0.2721
18169TIP3    H275999   1.552   1.764   2.866 -1.4224  0.3088  0.2185
18170TIP3   OH276000   4.680   0.885   6.258 -0.4886 -0.4844  0.1586
18170TIP3    H176001   4.629   0.965   6.257 -1.2410 -0.9513 -0.3584
18170TIP3    H276002   4.644   0.833   6.185 -3.2199 -3.2407  3.1056
18171TIP3   OH276003   2.062   5.706  14.642 -0.0486  0.1105 -0.1990
18171TIP3    H176004   1.993   5.705  14.575 -0.3433 -0.1833  0.1023
18171TIP3    H276005   2.053   5.622  14.686 -0.0925  0.4501  0.4481
18172TIP3   OH276006   0.974   6.141  10.988  0.2521 -0.0133 -0.2933
18172TIP3    H176007   0.933   6.183  10.913 -0.5827  1.0148  0.6946
18172TIP3    H276008   1.068   6.154  10.974  0.1942 -1.0143 -1.7977
18173TIP3   OH276009   0.612   0.184  16.081 -0.0682  0.1619  0.2705
18173TIP3    H176010   0.599   0.090  16.075 -0.1976  0.0456  1.8231
18173TIP3    H276011   0.643   0.210  15.995 -0.2558 -1.2613 -0.2521
18174TIP3   OH276012   2.863   2.774  15.663 -0.4826 -0.7455  0.6926
18174TIP3    H176013   2.958   2.790  15.656 -0.3332 -1.2161  1.5156
18174TIP3    H276014   2.837   2.747  15.575 -0.3710  1.9429 -0.2705
18175TIP3   OH276015   1.949   1.205  15.307  0.4018  0.1738 -0.0387
18175TIP3    H176016   2.004   1.126  15.303 -0.1786 -0.2002 -0.9158
18175TIP3    H276017   1.886   1.185  15.376 -0.3795 -0.5719 -0.9388
18176TIP3   OH276018   1.886   4.823   0.174  0.5166 -0.1286 -0.4264
18176TIP3    H176019   1.916   4.806   0.085  0.4810 -1.3047 -0.2294
18176TIP3    H276020   1.940   4.767   0.230  0.4131  0.4499  0.2851
18177TIP3   OH276021   4.479   1.097  15.927  0.4422 -0.4446 -0.5112
18177TIP3    H176022   4.446   1.157  15.860  0.2426  0.7517  0.6174
18177TIP3    H276023   4.567   1.074  15.897  0.4189  0.1900 -1.0901
18178TIP3   OH276024   5.724   2.679   4.785  0.4918 -0.0746 -0.0241
18178TIP3    H176025   5.726   2.601   4.729  3.6007  0.1072 -0.3549
18178TIP3    H276026   5.744   2.751   4.725 -0.5742  0.7549  0.5866
18179TIP3   OH276027   1.312   0.844  14.472  0.3518 -0.0263  0.0166
18179TIP3    H176028   1.339   0.798  14.393 -0.3586  0.5180 -0.5559
18179TIP3    H276029   1.271   0.924  14.440 -1.1834 -0.4356  0.8857
18180TIP3   OH276030   0.581   3.449   5.867 -0.8486  0.2161  0.3634
18180TIP3    H176031   0.518   3.407   5.809 -0.4276  0.4539 -0.2795
18180TIP3    H276032   0.661   3.397   5.857 -0.8077  0.1876  0.8236
18181TIP3   OH276033   1.642   3.591  14.998 -0.4176  0.6379  0.2854
18181TIP3    H176034   1.615   3.513  14.948 -0.7477 -1.0011  2.8405
18181TIP3    H276035   1.588   3.661  14.963 -2.8834 -1.0764  0.3659
18182TIP3   OH276036   2.742   3.294  14.629 -0.0255  0.2872  0.3847
18182TIP3    H176037   2.765   3.255  14.714  1.1215 -2.2870 -0.9778
18182TIP3    H276038   2.666   3.243  14.600 -1.7565  2.5252  0.6810
18183TIP3   OH276039   3.591   4.329  14.126 -0.1279  0.5069 -0.3346
18183TIP3    H176040   3.682   4.350  14.147 -0.0129  0.0500 -0.3659
18183TIP3    H276041   3.595   4.241  14.089 -0.6032  0.4204 -0.1819
18184TIP3   OH276042   3.544   6.365  13.179 -0.0929  0.6243  0.6095
18184TIP3    H176043   3.580   6.321  13.255  0.5861  1.0112  0.5232
18184TIP3    H276044   3.618   6.411  13.140 -0.8873  2.5141  1.1620
18185TIP3   OH276045   3.700   4.689  14.324  0.6060 -0.0220  0.2384
18185TIP3    H176046   3.757   4.654  14.392  1.4361 -0.7191 -0.7904
18185TIP3    H276047   3.731   4.649  14.243 -0.6770  0.3977 -0.4965
18186TIP3   OH276048   4.044   5.118   5.095  0.2080  0.0404 -0.0765
18186TIP3    H176049   4.125   5.113   5.146  0.6340  0.4648 -0.6919
18186TIP3    H276050   3.997   5.193   5.133  1.0872  1.1354 -1.0683
18187TIP3   OH276051   3.414   4.959   1.396  0.2384  0.2268 -0.0633
18187TIP3    H176052   3.488   4.937   1.452 -0.9260 -0.6341  1.1920
18187TIP3    H276053   3.436   4.922   1.311 -0.0606 -2.8088  1.0641
18188TIP3   OH276054   5.448   0.744   6.142  0.6214 -0.2968 -0.4785
18188TIP3    H176055   5.389   0.682   6.099  0.9254 -1.7824  1.1192
18188TIP3    H276056   5.528   0.741   6.090  0.0502  0.0775 -1.4028
18189TIP3   OH276057   1.275   1.785   4.269 -0.4650  0.4436 -0.0434
18189TIP3    H176058   1.251   1.760   4.358 -1.2169 -1.7855 -0.7820
18189TIP3    H276059   1.197   1.765   4.217  0.5318 -0.0101 -1.4435
18190TIP3   OH276060   4.775   6.223   0.230 -0.7617 -0.0761 -0.5564
18190TIP3    H176061   4.746   6.249   0.318  1.7120  0.7860  0.0965
18190TIP3    H276062   4.772   6.304   0.179 -0.5508 -0.2041 -0.7747
18191TIP3   OH276063   0.341   1.883  14.013  0.0846 -0.2702  0.2811
18191TIP3    H176064   0.301   1.893  13.927  0.8462 -1.8694 -0.2915
18191TIP3    H276065   0.286   1.818  14.057  0.1921 -0.0843  0.6928
18192TIP3   OH276066   3.526   3.664   2.658  0.3021 -0.1949  0.3125
18192TIP3    H176067   3.611   3.624   2.676  0.6856  0.2536 -0.4456
18192TIP3    H276068   3.509   3.720   2.734 -0.0267 -1.4227  1.1635
18193TIP3   OH276069   5.189   1.337   0.540 -0.0084  0.0955  0.5815
18193TIP3    H176070   5.211   1.302   0.626 -2.1934  0.1154  1.2091
18193TIP3    H276071   5.101   1.305   0.523  0.8461 -1.0578 -2.2937
18194TIP3   OH276072   3.078   3.923   4.598 -0.5001  0.2788  0.0643
18194TIP3    H176073   2.983   3.923   4.601 -0.4960  1.2831  0.6741
18194TIP3    H276074   3.105   3.923   4.690  0.0528  1.3815 -0.0696
18195TIP3   OH276075   3.391   0.055   5.047 -0.0486  0.6349  0.3261
18195TIP3    H176076   3.429   0.133   5.088  1.0165 -0.3258  1.2224
18195TIP3    H276077   3.439   0.045   4.965  0.0234  0.7511  0.3542
18196TIP3   OH276078   1.337   3.699  15.823 -0.1390 -0.3431  0.0801
18196TIP3    H176079   1.332   3.740  15.909  3.4411 -0.2711  0.4092
18196TIP3    H276080   1.321   3.606  15.839 -0.0758 -0.2479  0.7179
18197TIP3   OH276081   2.553   2.591   1.586 -0.0025  0.2054 -0.6146
18197TIP3    H176082   2.542   2.682   1.613  0.0847  0.0870 -0.1747
18197TIP3    H276083   2.600   2.549   1.658  0.1252 -0.1466 -0.8944
18198TIP3   OH276084   6.166   5.696  10.892 -0.1500 -0.0229  0.3077
18198TIP3    H176085   6.182   5.648  10.810 -1.9941  0.2154 -0.2468
18198TIP3    H276086   6.122   5.632  10.948 -1.3049  0.5564  0.0977
18199TIP3   OH276087   2.850   4.598  10.956  0.0914  0.7526 -0.5587
18199TIP3    H176088   2.842   4.575  10.863 -1.9826  0.7568 -0.4208
18199TIP3    H276089   2.774   4.558  10.998  1.5727 -0.2044  1.3736
18200TIP3   OH276090   1.899   3.698  13.750  0.9846  0.1283  0.1705
18200TIP3    H176091   1.977   3.679  13.697  0.5219 -0.2609 -0.3781
18200TIP3    H276092   1.832   3.640  13.716  1.0728 -1.2769  2.2038
18201TIP3   OH276093   1.563   0.282  16.431 -0.3814  0.2172 -0.6031
18201TIP3    H176094   1.585   0.349  16.365 -1.5973  0.3666 -0.8844
18201TIP3    H276095   1.646   0.240  16.450  0.2349  1.0962 -1.2224
18202TIP3   OH276096   6.809   4.970  14.405  0.0371 -0.6970  0.1406
18202TIP3    H176097   6.844   4.952  14.317 -1.7345  2.5910 -1.3960
18202TIP3    H276098   6.856   5.048  14.434  0.4239 -1.5946  2.0937
18203TIP3   OH276099   4.711   3.618  14.579  0.5071 -0.0900  0.2628
18203TIP3    H176100   4.701   3.588  14.670  0.3895 -0.6631  0.0646
18203TIP3    H276101   4.650   3.690  14.571 -1.1709 -1.4764 -0.0023
18204TIP3   OH276102   6.396   6.296   6.432  0.9330  0.5388 -0.4428
18204TIP3    H176103   6.432   6.380   6.404  1.5620  1.0347  1.6864
18204TIP3    H276104   6.473   6.245   6.460  0.6323 -0.9972 -2.1856
18205TIP3   OH276105   6.500   4.833  12.878  0.1631 -0.1643  0.4317
18205TIP3    H176106   6.454   4.757  12.912  1.4613 -1.5536 -0.7963
18205TIP3    H276107   6.580   4.839  12.930  0.3057  0.0686  0.1917
18206TIP3   OH276108   2.470   1.925   4.640  0.7095 -0.1178  0.2176
18206TIP3    H176109   2.466   1.829   4.648 -1.1593 -0.1814 -0.9709
18206TIP3    H276110   2.424   1.957   4.717  1.5795 -0.1360  0.7642
18207TIP3   OH276111   6.757   0.707   2.111  0.3147 -0.3211 -0.1307
18207TIP3    H176112   6.709   0.625   2.099  1.7742 -1.3824  0.9418
18207TIP3    H276113   6.826   0.686   2.173  0.5060  1.8410  0.4896
18208TIP3   OH276114   5.804   3.716   4.614 -0.3578  0.0793  0.2307
18208TIP3    H176115   5.759   3.790   4.572 -1.3028 -0.9190 -0.6087
18208TIP3    H276116   5.883   3.702   4.560 -1.3151 -0.8828 -1.0054
18209TIP3   OH276117   4.491   5.254  14.448  0.2814 -0.4895  0.0858
18209TIP3    H176118   4.491   5.232  14.541  0.7972 -0.1520  0.1678
18209TIP3    H276119   4.438   5.185  14.407 -1.8442  0.5752  0.8896
18210TIP3   OH276120   3.385   2.988   5.677  0.0329 -0.2620 -0.6862
18210TIP3    H176121   3.427   2.984   5.763  1.1644  0.2867 -1.1877
18210TIP3    H276122   3.419   2.912   5.631 -1.0023 -0.8631 -0.4730
18211TIP3   OH276123   1.078   4.933  16.530  0.1517 -0.6242  0.1155
18211TIP3    H176124   1.049   4.966  16.615 -1.0522 -0.5411 -0.3137
18211TIP3    H276125   1.008   4.875  16.502  0.3418 -0.3259 -1.0096
18212TIP3   OH276126   3.591   2.121  14.202 -0.2671  0.5708 -0.1363
18212TIP3    H176127   3.625   2.042  14.161  0.7924 -0.1921  2.0900
18212TIP3    H276128   3.637   2.193  14.158 -0.8841 -0.0297 -1.8375
18213TIP3   OH276129   6.854   4.549   6.185  0.3499 -0.7289 -0.3687
18213TIP3    H176130   6.941   4.588   6.196 -0.0410  0.6337 -1.7870
18213TIP3    H276131   6.801   4.618   6.146 -2.0872 -0.6706  2.6756
18214TIP3   OH276132   0.122   2.903   1.887  0.3944  0.3146 -0.0133
18214TIP3    H176133   0.166   2.873   1.807 -0.4175  0.7747 -0.6616
18214TIP3    H276134   0.158   2.849   1.957  1.7736  0.4966 -0.5491
18215TIP3   OH276135   2.174   1.458   4.407  0.7364 -0.0240  0.1969
18215TIP3    H176136   2.144   1.536   4.361 -0.7974 -1.1872 -0.8743
18215TIP3    H276137   2.118   1.452   4.484  0.2816 -0.5029 -0.1635
18216TIP3   OH276138   0.510   4.877  13.907 -0.0518  0.0486  0.2227
18216TIP3    H176139   0.502   4.842  13.996  0.5782  0.5998  0.4998
18216TIP3    H276140   0.589   4.836  13.872  0.1112  0.4041  0.1772
18217TIP3   OH276141   3.056   5.288  12.714  0.0805  0.2403 -0.1068
18217TIP3    H176142   3.130   5.239  12.749 -0.3114  0.0953  0.5341
18217TIP3    H276143   2.989   5.283  12.783 -0.0817  1.4014 -0.1533
18218TIP3   OH276144   3.848   5.060  11.181  0.1993 -0.2662  0.4890
18218TIP3    H176145   3.890   5.115  11.114 -0.5799  0.2635  0.4172
18218TIP3    H276146   3.897   5.079  11.261  0.5018 -0.1367  0.2767
18219TIP3   OH276147   5.514   4.459   4.912 -0.5104  0.0068 -0.1292
18219TIP3    H176148   5.433   4.492   4.949  0.0085  0.5680  0.5312
18219TIP3    H276149   5.486   4.406   4.837 -1.5429 -0.7429  0.7611
18220TIP3   OH276150   0.416   4.079   4.591  0.4493  0.6651  0.4264
18220TIP3    H176151   0.336   4.129   4.606 -3.2648 -3.2648 -3.2748
18220TIP3    H276152   0.453   4.118   4.511 -0.3537 -0.1004 -0.3459
18221TIP3   OH276153   2.417   3.632  15.044  0.2640 -0.1572  0.0847
18221TIP3    H176154   2.470   3.710  15.031  1.7147 -1.1245  0.0394
18221TIP3    H276155   2.430   3.609  15.136  1.3248 -1.3781 -0.3478
18222TIP3   OH276156   0.883   5.435  12.618 -0.5112  0.3399  0.3827
18222TIP3    H176157   0.828   5.504  12.581 -0.5312 -0.3530 -0.9319
18222TIP3    H276158   0.937   5.405  12.545 -0.7829 -1.2983  0.8066
18223TIP3   OH276159   1.826   5.684   3.370 -0.4546 -0.0177  0.6255
18223TIP3    H176160   1.785   5.694   3.456 -1.2404 -1.6431  0.4698
18223TIP3    H276161   1.876   5.603   3.376 -1.0646 -0.5145 -0.6482
18224TIP3   OH276162   0.909   4.406  14.569  0.2104  0.5556 -0.0836
18224TIP3    H176163   0.891   4.320  14.530  1.6477 -0.0253  0.4587
18224TIP3    H276164   0.911   4.466  14.494  0.6875 -0.1467 -0.6463
18225TIP3   OH276165   4.826   3.195   5.472  0.7233  0.0323 -0.2473
18225TIP3    H176166   4.914   3.182   5.437 -0.1051  0.0612 -2.5098
18225TIP3    H276167   4.776   3.120   5.439 -0.0391 -0.1709  1.2926
18226TIP3   OH276168   3.632   3.737  16.405 -0.0822  0.3380  0.2506
18226TIP3    H176169   3.588   3.788  16.473 -2.1367 -1.1572  0.1513
18226TIP3    H276170   3.674   3.665  16.452  1.6954  1.3328  0.2614
18227TIP3   OH276171   6.606   5.857   0.769  0.6322 -0.2408  0.0862
18227TIP3    H176172   6.697   5.834   0.749  1.5271  2.1292  1.0209
18227TIP3    H276173   6.557   5.776   0.754  3.0785 -1.9934  0.8606
18228TIP3   OH276174   6.204   4.318  12.633 -0.1665 -0.0107  0.2561
18228TIP3    H176175   6.283   4.274  12.664  0.8713  1.1820 -0.6107
18228TIP3    H276176   6.134   4.254  12.647  1.0533 -1.3728  0.3635
18229TIP3   OH276177   3.992   1.742   3.148  0.2322 -0.5436  0.7557
18229TIP3    H176178   3.913   1.784   3.113  0.1103 -2.0319 -0.8670
18229TIP3    H276179   4.056   1.750   3.078  0.0206 -3.5272  0.0924
18230TIP3   OH276180   5.662   2.092  14.660  0.6617 -0.4712  0.1667
18230TIP3    H176181   5.688   2.175  14.620 -2.5831  0.3544 -0.5063
18230TIP3    H276182   5.690   2.100  14.752 -0.1248  1.6857  0.2806
18231TIP3   OH276183   5.021   0.640   1.410 -0.9649  0.2915 -0.3841
18231TIP3    H176184   5.113   0.619   1.428 -0.6297  1.3551 -0.7984
18231TIP3    H276185   4.977   0.555   1.406  0.2044 -0.2850 -1.2952
18232TIP3   OH276186   4.118   5.765  15.274  0.0381  1.2276 -0.2090
18232TIP3    H176187   4.085   5.805  15.194  0.5920 -1.9067 -2.1646
18232TIP3    H276188   4.213   5.775  15.268  0.3317 -1.5187 -1.5475
18233TIP3   OH276189   4.577   0.465   4.329  0.6775 -0.3638 -0.1794
18233TIP3    H176190   4.657   0.492   4.283  0.9294 -2.8063 -1.3558
18233TIP3    H276191   4.607   0.439   4.416  0.7168  1.2085  0.2984
18234TIP3   OH276192   3.576   4.571   0.522 -0.2205 -0.5848  0.3220
18234TIP3    H176193   3.570   4.546   0.430 -2.0297  0.0328  0.2382
18234TIP3    H276194   3.540   4.496   0.570  1.1322 -1.0930  0.5877
18235TIP3   OH276195   3.495   2.639   2.072 -0.3961 -0.1644 -0.0971
18235TIP3    H176196   3.562   2.586   2.115 -1.3065 -1.2298  0.0591
18235TIP3    H276197   3.544   2.708   2.027  0.7029 -0.0982  1.1411
18236TIP3   OH276198   4.265   2.521  15.416  0.4321 -0.0718 -0.1140
18236TIP3    H176199   4.270   2.436  15.460 -0.6422 -1.2233 -2.0782
18236TIP3    H276200   4.194   2.566  15.462  0.6350 -0.4547  0.5946
18237TIP3   OH276201   0.292   4.220   5.726 -0.2630  0.5389  0.2735
18237TIP3    H176202   0.247   4.303   5.743 -1.0228 -0.1702  1.9628
18237TIP3    H276203   0.237   4.154   5.769  0.4852 -0.8100 -0.7683
18238TIP3   OH276204   5.544   2.685  12.677 -0.1783  0.0916  0.3774
18238TIP3    H176205   5.555   2.770  12.718  0.9549  0.8424 -1.3382
18238TIP3    H276206   5.630   2.666  12.637 -1.3120 -0.2584 -2.1016
18239TIP3   OH276207   5.675   0.680  16.566 -0.1701 -0.3727  0.3345
18239TIP3    H176208   5.716   0.668  16.480 -1.5231  1.9091 -0.6933
18239TIP3    H276209   5.636   0.595  16.586 -0.1695 -0.8296 -1.4818
18240TIP3   OH276210   3.655   1.644  16.717 -0.0365  0.3062 -0.0705
18240TIP3    H176211   3.722   1.593  16.672  1.3327  3.1001 -1.4389
18240TIP3    H276212   3.581   1.647  16.656 -0.1954 -0.2012  0.0970
18241TIP3   OH276213   1.089   6.305  15.380  0.2566 -0.0172  0.0372
18241TIP3    H176214   1.144   6.293  15.303  0.9607  0.5725  0.4266
18241TIP3    H276215   1.019   6.363  15.351  0.3118 -0.0937 -0.2519
18242TIP3   OH276216   0.977   2.933  11.069 -0.0285 -0.6419  0.2354
18242TIP3    H176217   0.907   2.992  11.096  0.3646 -0.0854  0.0821
18242TIP3    H276218   1.042   2.991  11.029  0.4942 -1.1480  0.3325
18243TIP3   OH276219   2.528   3.378   0.827 -0.3117  0.0422 -0.0513
18243TIP3    H176220   2.553   3.365   0.736  0.7526 -1.5401  0.4373
18243TIP3    H276221   2.610   3.369   0.876 -1.0525 -0.3227  1.1614
18244TIP3   OH276222   0.765   6.410  17.013 -0.3068  0.5312 -0.7887
18244TIP3    H176223   0.730   6.439  16.929  0.9384  2.3369 -0.7468
18244TIP3    H276224   0.859   6.430  17.008  0.0973 -0.9085  0.3958
18245TIP3   OH276225   4.059   0.217   2.535  0.1041  0.5501  0.1637
18245TIP3    H176226   4.143   0.228   2.491  1.2223 -0.8029  1.8050
18245TIP3    H276227   4.010   0.296   2.514  2.1408  1.8043 -0.1245
18246TIP3   OH276228   3.705   5.987   2.277 -0.2613 -1.0937  0.3355
18246TIP3    H176229   3.678   5.895   2.281 -0.6281 -1.0633 -0.8422
18246TIP3    H276230   3.631   6.035   2.314 -0.3843 -1.2264  0.2627
18247TIP3   OH276231   6.106   4.981  10.379  0.3448 -0.3565  0.3945
18247TIP3    H176232   6.151   4.899  10.401 -0.0630 -0.8880 -0.7018
18247TIP3    H276233   6.097   4.979  10.284 -2.0258 -0.2862  0.5623
18248TIP3   OH276234   5.256   3.021  14.453 -0.0639  0.5452 -0.0515
18248TIP3    H176235   5.287   3.044  14.365 -0.5961  0.3852 -0.2865
18248TIP3    H276236   5.216   3.102  14.486  1.1549  0.9409  0.5110
18249TIP3   OH276237   4.533   2.713  16.027  0.2956  0.5256 -0.3557
18249TIP3    H176238   4.472   2.773  16.071  0.3420  0.2792  0.0544
18249TIP3    H276239   4.478   2.661  15.969  0.0398 -0.0053  0.3466
18250TIP3   OH276240   0.089   1.011   5.690 -0.2010 -0.4432 -0.0061
18250TIP3    H176241   0.055   1.009   5.779 -1.4058  0.6853 -0.4068
18250TIP3    H276242   0.182   1.030   5.700 -0.1415 -1.2143  1.0285
18251TIP3   OH276243   0.296   2.421   4.153 -0.5555  0.5343  0.1550
18251TIP3    H176244   0.248   2.435   4.234 -1.5480  1.1672 -0.5337
18251TIP3    H276245   0.231   2.430   4.083  0.2206 -0.2648 -0.7168
18252TIP3   OH276246   6.244   3.310   3.027  0.0670  0.7584 -0.0066
18252TIP3    H176247   6.264   3.354   2.944 -0.4007 -0.2937 -0.7002
18252TIP3    H276248   6.219   3.221   3.001 -0.4362  0.5225  1.2399
18253TIP3   OH276249   6.722   1.866  10.893  0.2387  0.3212 -0.3277
18253TIP3    H176250   6.684   1.779  10.884 -0.1136  0.5911 -1.5688
18253TIP3    H276251   6.786   1.872  10.822 -0.5927  1.4997 -1.0052
18254TIP3   OH276252   1.188   5.371   2.703 -0.0149  0.7678 -0.2935
18254TIP3    H176253   1.145   5.310   2.763  0.4671 -0.0901 -0.7936
18254TIP3    H276254   1.239   5.314   2.645  0.7284  1.6796 -0.5444
18255TIP3   OH276255   3.155   1.847   1.672 -0.1384 -0.3843  0.2300
18255TIP3    H176256   3.145   1.885   1.584 -2.7118 -1.5281 -0.0604
18255TIP3    H276257   3.193   1.761   1.656  0.7010 -0.0488  0.3879
18256TIP3   OH276258   1.468   4.994   4.688  0.5386 -0.3266  0.2697
18256TIP3    H176259   1.545   5.051   4.684  0.0241  0.5859  2.3322
18256TIP3    H276260   1.449   4.974   4.596  1.7146  1.4924 -0.4290
18257TIP3   OH276261   4.369   5.832  11.969 -0.4380  0.6072  0.3089
18257TIP3    H176262   4.456   5.816  12.007 -0.2946 -0.7245 -0.4805
18257TIP3    H276263   4.374   5.921  11.934 -0.0546  1.2678  1.9553
18258TIP3   OH276264   1.212   5.621  15.881 -0.3296 -0.1078 -0.0046
18258TIP3    H176265   1.208   5.536  15.837  1.9717 -0.3016  0.0401
18258TIP3    H276266   1.299   5.655  15.860 -0.5046  1.4030  1.4967
18259TIP3   OH276267   5.274   5.477   2.519  0.7345  0.4500  0.0004
18259TIP3    H176268   5.308   5.400   2.564  1.5623  0.2697 -0.9046
18259TIP3    H276269   5.187   5.491   2.557  0.7534 -0.6600  0.4753
18260TIP3   OH276270   5.425   1.322  10.920  0.2864 -0.2401  0.1880
18260TIP3    H176271   5.464   1.238  10.896  1.3529  0.0807  0.7654
18260TIP3    H276272   5.498   1.377  10.947 -0.3652  0.9489 -0.3393
18261TIP3   OH276273   1.942   4.947   5.395 -0.1030  0.3013  0.2781
18261TIP3    H176274   1.848   4.939   5.412 -0.2935  2.0476  0.2306
18261TIP3    H276275   1.947   4.976   5.304  0.5440 -0.6991 -0.0178
18262TIP3   OH276276   6.585   0.037   5.569 -0.6434 -0.2046 -0.7356
18262TIP3    H176277   6.584   0.107   5.634 -0.7369 -0.5967 -0.3119
18262TIP3    H276278   6.646   0.068   5.502 -0.8659  0.3859 -0.6704
18263TIP3   OH276279   4.898   1.121  12.010 -0.4389  0.7250 -0.6646
18263TIP3    H176280   4.986   1.138  12.045 -1.4849  0.6793  2.3139
18263TIP3    H276281   4.911   1.052  11.945  1.6787  0.3055  0.1108
18264TIP3   OH276282   0.916   2.259  13.614 -0.1343  0.0681  0.5093
18264TIP3    H176283   0.868   2.178  13.599 -2.2589  1.0552  1.6099
18264TIP3    H276284   0.902   2.280  13.706  1.3442  1.1081  0.5422
18265TIP3   OH276285   4.723   6.491   6.796  0.0386  0.0163  0.1353
18265TIP3    H176286   4.741   6.566   6.739  3.8560 -0.9298 -0.1101
18265TIP3    H276287   4.683   6.426   6.738  0.7083  0.3201 -0.6876
18266TIP3   OH276288   4.981   4.891  11.616  0.0771  0.3013 -0.0287
18266TIP3    H176289   5.052   4.832  11.593  0.5110  0.7429  0.1561
18266TIP3    H276290   4.903   4.852  11.576  0.4542 -0.0865 -0.3927
18267TIP3   OH276291   6.170   2.840   6.382  0.0833 -0.0519  0.3480
18267TIP3    H176292   6.248   2.850   6.436 -0.2776 -1.5026  1.1913
18267TIP3    H276293   6.148   2.929   6.355  1.7180  0.4299  0.5167
18268TIP3   OH276294   5.610   2.937   4.258  0.7517 -0.3177  0.1993
18268TIP3    H176295   5.592   2.895   4.174  1.9018  1.0355 -0.7635
18268TIP3    H276296   5.588   2.870   4.323  1.9191 -2.2099 -1.2298
18269TIP3   OH276297   3.001   6.597  17.123 -0.5036 -0.4321 -0.3751
18269TIP3    H176298   2.982   6.680  17.167  0.8582  0.4562 -1.3848
18269TIP3    H276299   3.044   6.544  17.190 -0.3705  0.1004 -0.0361
18270TIP3   OH276300   6.536   3.788   3.372 -0.1196 -0.2298 -0.0681
18270TIP3    H176301   6.508   3.729   3.302 -0.5506 -0.9033  0.6600
18270TIP3    H276302   6.499   3.873   3.348  0.5809 -0.2214 -1.1717
18271TIP3   OH276303   4.012   1.956  13.524  0.0125 -0.5473 -0.2568
18271TIP3    H176304   4.099   1.916  13.532 -0.2138 -1.2076 -0.9818
18271TIP3    H276305   3.987   1.976  13.614  0.1836 -1.9679  0.1403
18272TIP3   OH276306   6.383   3.503   2.436 -0.2878  0.0851  0.4022
18272TIP3    H176307   6.391   3.571   2.503  0.6218  1.1720 -0.7639
18272TIP3    H276308   6.383   3.551   2.353 -3.8321 -0.9738 -0.4058
18273TIP3   OH276309   2.323   2.976   6.152 -0.2131 -0.2095  0.7112
18273TIP3    H176310   2.231   2.998   6.164 -0.5041 -1.6965  1.4509
18273TIP3    H276311   2.346   2.925   6.230  0.9992 -0.6030  0.1264
18274TIP3   OH276312   0.724   1.390  14.189 -0.1162 -0.1216  0.1772
18274TIP3    H176313   0.643   1.439  14.203 -0.5824 -0.6553 -0.5764
18274TIP3    H276314   0.748   1.358  14.275 -0.0561  1.0380  0.6093
18275TIP3   OH276315   0.208   4.505  13.717 -0.4033 -0.2823 -0.1084
18275TIP3    H176316   0.263   4.561  13.661 -0.1196 -0.2078  0.2366
18275TIP3    H276317   0.219   4.417  13.681 -0.5046 -0.1831 -0.3862
18276TIP3   OH276318   3.807   2.156  17.089 -1.0936 -0.0883  0.1111
18276TIP3    H176319   3.862   2.227  17.123  2.4882 -1.6055 -1.9084
18276TIP3    H276320   3.764   2.120  17.166  1.9186  0.3812  2.1790
18277TIP3   OH276321   1.997   5.897  10.439 -0.3667  0.2598  0.6619
18277TIP3    H176322   1.982   5.885  10.345 -0.0896  1.1720  0.4971
18277TIP3    H276323   2.053   5.823  10.464  0.3523  0.5462 -0.0898
18278TIP3   OH276324   5.407   1.303   5.702 -0.4338 -0.0408 -0.1782
18278TIP3    H176325   5.314   1.315   5.722 -0.3769  0.8808 -0.3901
18278TIP3    H276326   5.442   1.392   5.700  0.6604 -0.4249  0.8364
18279TIP3   OH276327   3.443   2.882   3.364 -0.2780  0.4454  0.5634
18279TIP3    H176328   3.382   2.858   3.433 -0.4584  0.9618  0.5859
18279TIP3    H276329   3.491   2.801   3.345 -1.0325  0.0126  0.4782
18280TIP3   OH276330   6.059   4.915  15.860  0.3215 -0.6800  0.0525
18280TIP3    H176331   5.998   4.878  15.923 -1.0061  1.2325  0.0015
18280TIP3    H276332   6.004   4.936  15.784  1.0658  0.7533 -0.1361
18281TIP3   OH276333   0.207   5.207   3.495 -0.1664  0.2557  0.7982
18281TIP3    H176334   0.198   5.290   3.449 -1.5417  0.5125  1.4658
18281TIP3    H276335   0.217   5.232   3.587  3.7972 -0.1908  0.6342
18282TIP3   OH276336   2.841   4.715  11.927  0.0730 -0.0767 -0.0744
18282TIP3    H176337   2.792   4.755  11.855  0.9839 -1.2350 -1.3984
18282TIP3    H276338   2.783   4.644  11.957  0.7190 -1.2559 -1.4429
18283TIP3   OH276339   5.381   5.715   3.371 -0.1264  0.4654 -0.6170
18283TIP3    H176340   5.400   5.656   3.298 -0.2552 -0.8647  0.3673
18283TIP3    H276341   5.296   5.754   3.349  0.6231  1.4186 -1.9578
18284TIP3   OH276342   4.114   4.819  16.944 -0.1998  0.1528 -0.0492
18284TIP3    H176343   4.041   4.868  16.904 -0.8967 -1.6042 -1.0521
18284TIP3    H276344   4.167   4.790  16.870  0.7854  0.2618  0.5932
18285TIP3   OH276345   2.303   4.905   2.702 -0.1321  0.3155  0.4108
18285TIP3    H176346   2.281   4.813   2.693  1.5190 -0.0490 -0.3795
18285TIP3    H276347   2.394   4.905   2.732 -0.2410  1.6818  0.7933
18286TIP3   OH276348   4.440   6.352   6.358 -0.8480 -0.7428  0.2291
18286TIP3    H176349   4.348   6.377   6.348 -1.1129 -1.6425  0.3205
18286TIP3    H276350   4.489   6.426   6.324 -1.5794  0.3724  1.4790
18287TIP3   OH276351   0.661   3.654  13.928  0.2020 -0.3813 -0.6122
18287TIP3    H176352   0.679   3.591  13.998 -0.3349  0.0152 -0.1114
18287TIP3    H276353   0.577   3.626  13.892 -1.2375  1.3963  1.1767
18288TIP3   OH276354   6.097   4.156  15.724  0.1812 -0.2303 -0.4560
18288TIP3    H176355   6.101   4.167  15.629 -0.8838 -0.5202 -0.5418
18288TIP3    H276356   6.073   4.064  15.737  1.4663 -0.5079  0.1250
18289TIP3   OH276357   6.752   0.357   3.589 -0.1870 -0.2654  0.3383
18289TIP3    H176358   6.771   0.396   3.674  2.3698 -0.8673  0.1240
18289TIP3    H276359   6.702   0.278   3.609 -0.7399  0.2672  1.1427
18290TIP3   OH276360   4.088   6.765  13.182  0.1965  0.4024  0.4255
18290TIP3    H176361   4.121   6.728  13.263 -2.4543 -1.9574  0.6036
18290TIP3    H276362   4.021   6.827  13.210 -2.0859 -1.7937  0.2066
18291TIP3   OH276363   2.803   6.755   1.962  0.2199 -0.1280 -0.0302
18291TIP3    H176364   2.806   6.722   1.873 -0.4500 -0.2297 -0.0205
18291TIP3    H276365   2.834   6.845   1.956 -0.3515  0.0427 -0.4518
18292TIP3   OH276366   6.156   5.890   1.062 -0.0293 -0.3997 -0.3151
18292TIP3    H176367   6.070   5.860   1.032  0.5886  0.1644 -2.9072
18292TIP3    H276368   6.196   5.812   1.101 -1.6072 -0.7001  0.8512
18293TIP3   OH276369   6.222   4.789   2.462  0.3657  0.4296 -0.1604
18293TIP3    H176370   6.151   4.809   2.523  0.0736  0.3421 -0.4661
18293TIP3    H276371   6.264   4.711   2.498  0.1414  0.3303 -0.1091
18294TIP3   OH276372   5.983   4.499  13.290 -0.0472 -0.0289 -1.0323
18294TIP3    H176373   5.936   4.417  13.307 -0.4477  0.2771 -0.6711
18294TIP3    H276374   5.985   4.544  13.374  2.8279 -1.0170 -0.4857
18295TIP3   OH276375   6.537   1.394   0.364 -0.0356  0.0264 -0.3225
18295TIP3    H176376   6.578   1.478   0.384 -0.2162  0.2967 -1.0741
18295TIP3    H276377   6.524   1.353   0.450 -1.1219  1.3122  0.1545
18296TIP3   OH276378   5.381   2.768  11.608  0.4977  0.2599 -0.7756
18296TIP3    H176379   5.448   2.725  11.662 -0.1468  0.5455  0.2865
18296TIP3    H276380   5.302   2.717  11.624  0.0265  1.0567 -0.5110
18297TIP3   OH276381   6.415   3.124   4.692 -0.8111 -0.3276 -0.5091
18297TIP3    H176382   6.383   3.066   4.761 -0.3269 -0.7832 -0.6634
18297TIP3    H276383   6.505   3.144   4.717 -1.4060  1.5316  0.3036
18298TIP3   OH276384   2.692   4.262  12.708  0.4531 -0.8892 -0.5761
18298TIP3    H176385   2.690   4.273  12.613 -1.0066 -1.6700 -0.6633
18298TIP3    H276386   2.602   4.241  12.732  0.4574  0.8295  1.2050
18299TIP3   OH276387   6.289   2.200   0.639  0.5440  0.5164  0.1648
18299TIP3    H176388   6.208   2.166   0.677  1.3627 -0.0870  1.4096
18299TIP3    H276389   6.259   2.256   0.567 -0.9027 -1.8589 -1.2415
18300TIP3   OH276390   5.179   3.380  14.936 -0.1190  0.3204 -0.1682
18300TIP3    H176391   5.266   3.346  14.914  0.4667  2.2101 -0.9899
18300TIP3    H276392   5.175   3.373  15.032  1.2974  0.9734 -0.0254
18301TIP3   OH276393   4.552   5.041   5.282 -0.2441 -0.2863  0.3270
18301TIP3    H176394   4.623   5.042   5.218 -0.3525  1.5448  0.1890
18301TIP3    H276395   4.591   5.003   5.360  0.5564 -0.3615 -0.0998
18302TIP3   OH276396   6.386   3.419  14.285  0.3606  0.1743 -0.5427
18302TIP3    H176397   6.295   3.394  14.302 -0.1674  1.4861 -1.2993
18302TIP3    H276398   6.404   3.487  14.349  0.8909 -0.2123 -0.2731
18303TIP3   OH276399   4.330   5.005  11.162  0.0264  0.2813 -0.0222
18303TIP3    H176400   4.419   5.034  11.140 -0.3147  1.5105  0.1866
18303TIP3    H276401   4.304   4.950  11.088  0.5852  0.7105 -0.5462
18304TIP3   OH276402   3.376   0.138  16.459  0.0539  0.0111 -0.3060
18304TIP3    H176403   3.445   0.104  16.402  0.1976  1.2384 -0.9007
18304TIP3    H276404   3.415   0.216  16.499 -0.5516 -0.0223  0.3684
18305TIP3   OH276405   6.654   6.403   1.953 -0.5236  0.1942 -0.1405
18305TIP3    H176406   6.668   6.415   1.859  0.1821  0.6386  0.0122
18305TIP3    H276407   6.577   6.347   1.959  0.8038 -1.8466 -1.0309
18306TIP3   OH276408   5.561   6.643  10.924 -0.3375  0.5860  0.1018
18306TIP3    H176409   5.627   6.591  10.969  0.4008  1.0965 -0.3487
18306TIP3    H276410   5.525   6.585  10.857 -0.3754  0.2885  0.3842
18307TIP3   OH276411   6.557   6.724   0.667  0.5472  0.3993 -0.0732
18307TIP3    H176412   6.533   6.793   0.605  2.5134  1.3067  0.1262
18307TIP3    H276413   6.586   6.652   0.612  1.3434  0.8410 -0.2441
18308TIP3   OH276414   4.589   4.999  14.122 -0.1724 -0.0164  0.1304
18308TIP3    H176415   4.589   4.915  14.076 -1.8177 -0.2529  0.5174
18308TIP3    H276416   4.591   4.975  14.215  1.2487  0.4326  0.2455
18309TIP3   OH276417   0.517   3.582   3.491 -0.4211 -0.2127  0.6217
18309TIP3    H176418   0.552   3.666   3.460  1.9332 -1.1687  0.5243
18309TIP3    H276419   0.436   3.571   3.441 -0.0200  1.3157 -0.4551
18310TIP3   OH276420   1.516   0.345   2.164 -0.4525 -0.2404  0.3383
18310TIP3    H176421   1.598   0.303   2.135 -0.5520  0.5520 -1.1816
18310TIP3    H276422   1.453   0.324   2.095 -1.7211 -1.3319  1.7797
18311TIP3   OH276423   5.267   0.330   0.139 -0.5841 -0.1427 -0.3191
18311TIP3    H176424   5.301   0.280   0.213 -1.0319  0.5701  0.3886
18311TIP3    H276425   5.285   0.421   0.162 -1.0555  0.1078 -0.9263
18312TIP3   OH276426   4.713   0.354   2.358 -0.1600  0.5663  0.2872
18312TIP3    H176427   4.781   0.363   2.292 -0.3766  1.8446  0.2175
18312TIP3    H276428   4.640   0.407   2.326 -1.6080 -1.5196 -0.1200
18313TIP3   OH276429   2.849   5.888  10.664  0.0375  0.1497 -0.0622
18313TIP3    H176430   2.823   5.799  10.686 -0.8963  0.3644 -0.2321
18313TIP3    H276431   2.780   5.919  10.605  0.1830  1.0835  0.2336
18314TIP3   OH276432   1.780   5.527  14.196  0.3494  0.4462 -0.1812
18314TIP3    H176433   1.774   5.621  14.178  0.8527  0.7125  0.9328
18314TIP3    H276434   1.690   5.498  14.205  0.1208  0.5111 -1.9402
18315TIP3   OH276435   1.204   3.013   5.979 -0.0080 -0.0384  0.3036
18315TIP3    H176436   1.150   2.989   6.054 -0.2547 -1.0695 -0.1789
18315TIP3    H276437   1.261   2.938   5.965 -0.4048 -0.1367 -0.9220
18316TIP3   OH276438   3.764   2.213   1.874 -0.7830  0.0351 -0.3662
18316TIP3    H176439   3.727   2.301   1.876 -2.3207 -0.5816  1.3481
18316TIP3    H276440   3.710   2.166   1.811  1.4881  0.8138 -3.0822
18317TIP3   OH276441   4.387   1.682  11.511  0.0949 -0.4824 -0.7606
18317TIP3    H176442   4.319   1.648  11.453  0.9589 -0.3977 -1.8556
18317TIP3    H276443   4.386   1.777  11.497 -0.5669 -0.3049  0.3600
18318TIP3   OH276444   5.569   0.496   1.260 -0.0316 -0.4013  0.1084
18318TIP3    H176445   5.521   0.575   1.287  0.7412  0.3632 -0.6794
18318TIP3    H276446   5.521   0.463   1.184  0.4227  0.1085 -0.4067
18319TIP3   OH276447   5.699   6.266  14.729  0.1855  0.0118 -0.3454
18319TIP3    H176448   5.711   6.267  14.824 -1.7854  2.4766 -0.0224
18319TIP3    H276449   5.638   6.193  14.714  1.2593 -1.0234  0.0999
18320TIP3   OH276450   0.079   6.128  10.864  0.5510 -0.5407  0.0199
18320TIP3    H176451   0.100   6.047  10.818 -1.2900 -2.4864  2.3480
18320TIP3    H276452   0.025   6.178  10.802  0.0436 -2.0146 -0.7643
18321TIP3   OH276453   6.301   2.945   2.639  0.0798  0.0893  0.4023
18321TIP3    H176454   6.329   3.011   2.702 -0.2253 -0.3120  0.9592
18321TIP3    H276455   6.240   2.992   2.581  0.2549  0.4195  0.4829
18322TIP3   OH276456   6.663   3.277   1.652  0.2223  0.0572  0.0991
18322TIP3    H176457   6.568   3.280   1.636  0.3226 -0.2462 -0.5617
18322TIP3    H276458   6.701   3.259   1.567  0.6886 -3.1224  0.8484
18323TIP3   OH276459   3.044   0.933   5.537  0.2313  0.2593  0.0834
18323TIP3    H176460   3.133   0.966   5.539  0.1345  0.4890  0.9847
18323TIP3    H276461   3.007   0.957   5.622  0.0143 -1.7531  0.6074
18324TIP3   OH276462   4.404   1.582  11.928  0.0389 -0.5629  0.2642
18324TIP3    H176463   4.379   1.644  11.997  0.7383  0.3867 -0.3150
18324TIP3    H276464   4.478   1.624  11.883 -0.9113 -0.7846 -1.5914
18325TIP3   OH276465   5.105   2.629  16.761  0.5100  0.4407 -0.2389
18325TIP3    H176466   5.110   2.725  16.757 -0.8125  0.5470 -0.0467
18325TIP3    H276467   5.125   2.607  16.852  0.1779  0.6006 -0.1238
18326TIP3   OH276468   5.417   3.571  13.394 -0.0865  0.6317  0.6322
18326TIP3    H176469   5.473   3.498  13.367 -1.6423  0.1548 -1.5485
18326TIP3    H276470   5.340   3.531  13.433 -0.6144  1.1184  0.1162
18327TIP3   OH276471   3.664   3.324  13.466  0.2234  0.6709  0.3163
18327TIP3    H176472   3.572   3.300  13.476  0.4025 -0.8251 -1.2265
18327TIP3    H276473   3.701   3.258  13.408  1.8299  2.2941 -0.6504
18328TIP3   OH276474   4.444   5.126  14.702  0.3266  0.6395 -0.5402
18328TIP3    H176475   4.400   5.041  14.698  2.6936 -0.7321  0.6704
18328TIP3    H276476   4.434   5.153  14.793  1.8171  0.3561 -0.2707
18329TIP3   OH276477   4.268   3.110   1.679  0.4935  0.4481 -0.7313
18329TIP3    H176478   4.358   3.120   1.711  0.3452  0.3262 -0.2726
18329TIP3    H276479   4.278   3.104   1.584  0.8150  2.2980 -0.8607
18330TIP3   OH276480   5.824   1.200   0.291  0.1069  0.1403 -0.0202
18330TIP3    H176481   5.918   1.213   0.299 -0.3330  2.7959  2.4206
18330TIP3    H276482   5.800   1.240   0.207  0.9454  1.0789  0.1729
18331TIP3   OH276483   4.305   1.322  10.996  0.1327  0.8375 -0.1229
18331TIP3    H176484   4.219   1.299  10.960  0.4379  1.9802 -1.7018
18331TIP3    H276485   4.337   1.241  11.035 -1.0575  0.0140 -0.7818
18332TIP3   OH276486   5.494   1.860   0.570  0.6000  0.2009  0.6908
18332TIP3    H176487   5.458   1.779   0.535  1.0473  0.9314 -1.6166
18332TIP3    H276488   5.417   1.912   0.595  0.1770  0.2510 -0.6639
18333TIP3   OH276489   0.028   0.687   3.471 -0.3949 -0.2537  0.4292
18333TIP3    H176490   0.117   0.662   3.445 -0.7003 -1.1157  0.1735
18333TIP3    H276491   0.041   0.744   3.547  0.3847 -0.2443  0.3010
18334TIP3   OH276492   0.900   6.103   1.730  0.1829 -0.4941 -0.1520
18334TIP3    H176493   0.974   6.074   1.678  0.3574 -1.1834  0.4600
18334TIP3    H276494   0.935   6.114   1.819  0.4313  2.7842 -0.5159
18335TIP3   OH276495   1.980   0.996   0.624 -0.4772  0.3464  0.4854
18335TIP3    H176496   2.011   0.911   0.594 -2.2627 -0.6917  1.3626
18335TIP3    H276497   2.056   1.054   0.619  0.5919 -1.1061 -0.8326
18336TIP3   OH276498   1.153   1.240  16.617 -0.3441 -0.3903  0.0117
18336TIP3    H176499   1.093   1.308  16.586  0.7702 -0.3619 -2.2839
18336TIP3    H276500   1.127   1.225  16.708 -2.1429  1.4139 -0.1311
18337TIP3   OH276501   0.423   2.804   1.358 -0.2228  0.5720 -0.0610
18337TIP3    H176502   0.386   2.866   1.295  1.4658  1.8371  0.1284
18337TIP3    H276503   0.348   2.751   1.385 -1.3056  1.0292 -1.9151
18338TIP3   OH276504   3.639   5.774  13.156  0.0797  0.5585  0.6008
18338TIP3    H176505   3.687   5.765  13.074 -0.4539  0.7754  0.2561
18338TIP3    H276506   3.562   5.718  13.145  1.2971 -1.5344  1.9960
18339TIP3   OH276507   2.053   3.433  13.086  0.8591  0.2052  0.6349
18339TIP3    H176508   2.039   3.498  13.154  0.0019 -1.9643  2.6807
18339TIP3    H276509   2.056   3.349  13.133  0.2374 -1.4159 -2.0035
18340TIP3   OH276510   3.516   5.149  14.656 -0.1268  0.0372 -0.3261
18340TIP3    H176511   3.591   5.091  14.643 -1.7050 -1.6802 -2.4719
18340TIP3    H276512   3.498   5.142  14.750  1.3604 -0.8295 -0.0600
18341TIP3   OH276513   2.276   0.263  16.193  0.5268  0.1913  0.1636
18341TIP3    H176514   2.299   0.337  16.137  0.2118 -0.1158 -0.3800
18341TIP3    H276515   2.181   0.268  16.201  0.6506  0.8070  1.4905
18342TIP3   OH276516   3.912   1.887  15.164  0.5806  0.5184 -0.0452
18342TIP3    H176517   3.918   1.982  15.150  1.6089  0.5150  0.3212
18342TIP3    H276518   3.855   1.878  15.240 -0.3186  0.7900 -0.6712
18343TIP3   OH276519   5.274   1.516  12.335  0.0057  0.5342 -0.0768
18343TIP3    H176520   5.232   1.511  12.250 -0.6184  3.3837 -0.0267
18343TIP3    H276521   5.245   1.437  12.381 -2.0770  0.4314 -1.4402
18344TIP3   OH276522   3.705   3.884   3.551  0.1877 -0.2335 -0.1133
18344TIP3    H176523   3.610   3.900   3.555  0.0071 -0.9419 -1.0747
18344TIP3    H276524   3.716   3.830   3.473  1.5587  1.0334 -0.8415
18345TIP3   OH276525   4.359   0.871   3.660 -0.5689  0.2974  0.3480
18345TIP3    H176526   4.279   0.883   3.711 -2.2580  1.2180 -2.3101
18345TIP3    H276527   4.348   0.929   3.585  1.6325 -1.1719 -1.2226
18346TIP3   OH276528   0.212   6.749  14.718 -0.6505  0.5475 -0.6191
18346TIP3    H176529   0.234   6.787  14.634 -3.0100  0.7886 -1.2118
18346TIP3    H276530   0.137   6.800  14.749  0.8000  1.1812  2.1886
18347TIP3   OH276531   3.148   1.368  12.258  0.4262  0.6430  0.1080
18347TIP3    H176532   3.093   1.314  12.315  3.0708 -1.1704  1.1282
18347TIP3    H276533   3.163   1.313  12.181  1.9537  0.4539  0.5085
18348TIP3   OH276534   5.364   3.180   2.777  0.0552  0.1376  0.2924
18348TIP3    H176535   5.382   3.274   2.767  1.7128 -0.2478 -0.6494
18348TIP3    H276536   5.279   3.177   2.821  0.3236  2.0822  1.0658
18349TIP3   OH276537   0.621   5.000  13.515  0.0437 -0.3885  0.3438
18349TIP3    H176538   0.535   5.030  13.485 -0.4301 -1.3769  0.6699
18349TIP3    H276539   0.681   5.024  13.444 -0.6631 -0.5511 -0.3157
18350TIP3   OH276540   4.318   2.005  15.794  0.1049 -0.5188 -0.4222
18350TIP3    H176541   4.382   2.008  15.865  1.5393  1.1244 -1.7078
18350TIP3    H276542   4.370   2.012  15.714 -1.5954 -0.3748 -1.5754
18351TIP3   OH276543   4.786   3.390  16.956  0.0964  1.3493 -0.4714
18351TIP3    H176544   4.815   3.473  16.918  2.1212  0.3595 -1.2512
18351TIP3    H276545   4.862   3.333  16.948 -0.9740 -0.3351  0.8272
18352TIP3   OH276546   6.400   6.031   4.525 -0.4538  0.0473  0.4137
18352TIP3    H176547   6.432   5.961   4.468  1.9593  1.5756 -0.2295
18352TIP3    H276548   6.373   6.100   4.466 -2.5023 -0.1490  1.0587
18353TIP3   OH276549   2.928   4.941  14.267  0.3424 -0.4960  0.0538
18353TIP3    H176550   3.015   4.980  14.261  0.6821 -1.0524  1.1200
18353TIP3    H276551   2.929   4.892  14.349 -0.4685 -1.7785 -0.6664
18354TIP3   OH276552   3.684   5.362   1.509  0.4649 -0.3730 -0.7681
18354TIP3    H176553   3.764   5.311   1.498 -0.8433 -2.3722 -1.6005
18354TIP3    H276554   3.652   5.339   1.596 -0.4708 -1.5755 -1.3965
18355TIP3   OH276555   5.059   2.049   1.782 -0.0593  0.2138 -0.2750
18355TIP3    H176556   5.112   2.073   1.705 -0.6609  0.2170 -0.6962
18355TIP3    H276557   5.120   2.002   1.839  1.1018  2.4391  0.4340
18356TIP3   OH276558   3.868   4.197  17.037  0.1913 -0.3169  0.0007
18356TIP3    H176559   3.829   4.244  17.110  0.2721 -0.5653  0.2067
18356TIP3    H276560   3.908   4.120  17.077  1.2786  0.1559 -0.1407
18357TIP3   OH276561   1.631   2.793   3.418  0.0938  0.0163 -0.1957
18357TIP3    H176562   1.715   2.776   3.461 -0.0048  1.0963  0.4550
18357TIP3    H276563   1.568   2.745   3.471  0.1829 -0.0373 -0.1367
18358TIP3   OH276564   2.010   5.921  12.211  0.0226  0.1225 -0.7763
18358TIP3    H176565   1.946   5.852  12.192 -0.1534  0.4604 -1.4157
18358TIP3    H276566   2.053   5.939  12.127 -1.7267  2.6026 -1.2393
18359TIP3   OH276567   2.679   3.165  14.891 -1.0009 -0.3371 -0.0840
18359TIP3    H176568   2.610   3.224  14.921  1.1617  0.6711  3.4591
18359TIP3    H276569   2.639   3.078  14.891 -1.9814 -0.0490  3.6468
18360TIP3   OH276570   5.973   4.208  14.507 -0.4533 -0.4474 -0.0280
18360TIP3    H176571   5.931   4.122  14.506  0.9906 -1.1838 -0.1777
18360TIP3    H276572   6.031   4.205  14.583  1.3272 -0.4928 -1.3321
18361TIP3   OH276573   3.529   4.582   6.501  0.3526 -0.0489 -0.0707
18361TIP3    H176574   3.435   4.581   6.514  0.6253  1.5196  3.0498
18361TIP3    H276575   3.555   4.490   6.500 -1.1595 -0.4908 -0.8372
18362TIP3   OH276576   6.600   5.106   1.257  0.7186 -0.3986 -0.6713
18362TIP3    H176577   6.533   5.055   1.211  0.5471 -0.7264 -0.0631
18362TIP3    H276578   6.613   5.183   1.202 -0.0320 -0.4226 -0.8913
18363TIP3   OH276579   5.824   6.309   0.025 -0.1607 -0.5033  0.3724
18363TIP3    H176580   5.877   6.359  -0.037 -1.8275 -0.9978 -1.5490
18363TIP3    H276581   5.736   6.343   0.015 -0.9040 -2.2064  0.7391
18364TIP3   OH276582   5.951   6.014  12.224  0.0721  0.4263  0.0226
18364TIP3    H176583   5.885   5.951  12.253 -1.3131  1.4583 -0.7474
18364TIP3    H276584   5.903   6.097  12.219  1.8449  1.5882  1.0949
18365TIP3   OH276585   5.629   4.090  15.706  0.0230 -0.2811  0.0394
18365TIP3    H176586   5.596   4.122  15.790 -0.3288  0.0016 -0.2064
18365TIP3    H276587   5.609   4.159  15.644  0.3547 -0.4565 -0.2675
18366TIP3   OH276588   2.677   6.185  13.515 -0.3737 -0.3831 -0.5079
18366TIP3    H176589   2.596   6.186  13.565 -0.6340 -1.4945 -0.8853
18366TIP3    H276590   2.720   6.268  13.537 -0.2915 -0.9866  1.8507
18367TIP3   OH276591   2.119   5.737   5.009 -0.2123 -0.4726  0.2594
18367TIP3    H176592   2.169   5.675   5.062  1.7760  0.5823 -0.2708
18367TIP3    H276593   2.139   5.713   4.919  0.0758  0.5411  0.0450
18368TIP3   OH276594   0.869   2.505  14.605 -0.0026  0.1950  0.0810
18368TIP3    H176595   0.936   2.498  14.673  1.8479 -1.0560 -1.7409
18368TIP3    H276596   0.907   2.564  14.540 -1.5766  1.0849 -0.0761
18369TIP3   OH276597   3.462   4.722  12.638  0.4069  0.5751  0.7666
18369TIP3    H176598   3.432   4.664  12.568  3.0059  0.6801 -0.5961
18369TIP3    H276599   3.452   4.672  12.718  0.4572 -0.8743 -0.1008
18370TIP3   OH276600   1.837   4.448  15.787 -0.0788 -0.5887 -0.2641
18370TIP3    H176601   1.883   4.528  15.761  0.0416 -0.7218 -0.4752
18370TIP3    H276602   1.870   4.429  15.875 -1.3774  0.5219  0.4944
18371TIP3   OH276603   2.847   4.331  14.603  0.4783 -0.2750  0.0535
18371TIP3    H176604   2.762   4.298  14.572  0.7472 -0.3355 -0.6301
18371TIP3    H276605   2.825   4.385  14.679 -0.2824  0.5775 -0.7525
18372TIP3   OH276606   0.755   2.027   4.376 -0.4578  0.4355 -0.5911
18372TIP3    H176607   0.666   2.058   4.392 -0.9769 -1.2508  0.0636
18372TIP3    H276608   0.768   2.039   4.282 -1.7782 -0.2064 -0.8882
18373TIP3   OH276609   6.007   4.047   1.893 -0.4688 -0.1062  0.2137
18373TIP3    H176610   6.013   3.993   1.814 -0.3483  0.2566 -0.0254
18373TIP3    H276611   5.914   4.045   1.917 -0.8697  1.3586 -1.0516
18374TIP3   OH276612   4.794   0.379   3.610 -0.6473  0.5228  0.4868
18374TIP3    H176613   4.852   0.427   3.551  0.4822  0.2067  1.3148
18374TIP3    H276614   4.720   0.354   3.555  1.2077 -1.3769 -1.3117
18375TIP3   OH276615   6.305   2.813   2.136 -0.2264 -0.1331 -0.0824
18375TIP3    H176616   6.382   2.855   2.096 -0.9337 -0.7755 -2.2708
18375TIP3    H276617   6.333   2.790   2.224  1.5499  1.1053 -0.2628
18376TIP3   OH276618   2.726   3.006  10.854 -0.3593 -0.1332  0.0732
18376TIP3    H176619   2.692   3.057  10.927  0.8946  1.4813 -0.4238
18376TIP3    H276620   2.729   3.068  10.781  0.5035 -1.1243 -0.7606
18377TIP3   OH276621   0.742   3.883  13.817 -0.0386 -0.6923 -0.6332
18377TIP3    H176622   0.667   3.940  13.800 -0.4277 -0.8287  0.5182
18377TIP3    H276623   0.703   3.802  13.851  0.5543 -1.3521 -1.4796
18378TIP3   OH276624   2.609   4.631  15.120 -0.1122 -0.1531 -0.1208
18378TIP3    H176625   2.539   4.566  15.131 -0.7611  0.4690 -0.5088
18378TIP3    H276626   2.686   4.589  15.157 -0.4476 -1.2961 -0.6687
18379TIP3   OH276627   5.408   2.266  11.746 -0.1889  0.4985 -0.1573
18379TIP3    H176628   5.430   2.176  11.769 -0.9598  0.6482  1.2607
18379TIP3    H276629   5.492   2.309  11.731  0.2814  0.0113  1.0189
18380TIP3   OH276630   5.002   2.278   3.273  0.6166  0.3758  0.3106
18380TIP3    H176631   4.955   2.360   3.290  0.3018  1.4427 -4.2732
18380TIP3    H276632   4.935   2.219   3.238  1.2893 -1.0886  1.3773
18381TIP3   OH276633   0.962   1.950   3.163 -0.3126  0.3953  0.0423
18381TIP3    H176634   0.948   1.972   3.071 -0.2600 -0.5241 -0.1982
18381TIP3    H276635   0.996   2.030   3.202 -1.3392  1.1250 -0.5045
18382TIP3   OH276636   4.469   3.794   2.922 -0.1091  0.5426  0.5610
18382TIP3    H176637   4.482   3.797   3.017  0.6953  1.1526  0.4418
18382TIP3    H276638   4.492   3.882   2.892 -0.6808  0.4513 -0.1652
18383TIP3   OH276639   2.089   0.272   1.149  0.4638 -0.1705 -0.4844
18383TIP3    H176640   2.039   0.191   1.137  1.0448 -0.5030 -0.6874
18383TIP3    H276641   2.053   0.311   1.228 -2.9196  1.6524 -2.6798
18384TIP3   OH276642   4.236   1.835  13.064 -0.1167 -0.3027 -0.0735
18384TIP3    H176643   4.260   1.917  13.107 -1.8295  0.1542  0.0684
18384TIP3    H276644   4.156   1.807  13.109 -0.2446 -1.3998 -0.9512
18385TIP3   OH276645   1.524   6.350  16.772  0.0565  1.1376  0.4520
18385TIP3    H176646   1.522   6.422  16.710  0.0895  0.3677 -0.4583
18385TIP3    H276647   1.502   6.272  16.721  0.8108  0.3716  1.2366
18386TIP3   OH276648   5.207   0.317   1.217 -0.2239  0.2412 -0.5505
18386TIP3    H176649   5.154   0.357   1.148  1.2040  1.4975 -0.9933
18386TIP3    H276650   5.294   0.309   1.178  0.4094  0.1831  0.8164
18387TIP3   OH276651   5.357   1.176   6.579 -0.4650  0.1500 -0.1318
18387TIP3    H176652   5.351   1.083   6.557 -0.2702 -0.1577  1.0248
18387TIP3    H276653   5.447   1.200   6.559  0.0207 -0.4017  1.2858
18388TIP3   OH276654   1.259   5.539  11.894 -0.1992  0.4978 -0.1968
18388TIP3    H176655   1.195   5.571  11.830  0.6148  1.3340 -0.6290
18388TIP3    H276656   1.330   5.604  11.891 -0.7638  1.3830  2.6046
18389TIP3   OH276657   1.202   5.321  10.452  0.7714 -0.1147 -0.1481
18389TIP3    H176658   1.108   5.307  10.437  0.4449  1.0274  0.6373
18389TIP3    H276659   1.225   5.394  10.395  1.2414 -0.5083 -0.4735
18390TIP3   OH276660   2.284   1.673  16.622 -0.1333 -0.1230 -0.1966
18390TIP3    H176661   2.189   1.689  16.625  0.1435  1.5416  0.2826
18390TIP3    H276662   2.318   1.740  16.563  0.8699 -0.0588  0.4453
18391TIP3   OH276663   3.227   6.685  10.535 -0.0810  0.1600  0.1962
18391TIP3    H176664   3.253   6.623  10.603  0.3435  0.4904  0.3398
18391TIP3    H276665   3.196   6.762  10.582 -1.2950 -0.1997  0.0259
18392TIP3   OH276666   4.072   1.809  13.281  0.3148 -0.5063 -0.3816
18392TIP3    H176667   3.998   1.748  13.281  0.1371 -0.2982  0.2568
18392TIP3    H276668   4.052   1.871  13.352 -0.2533  1.1894 -1.9487
18393TIP3   OH276669   5.595   6.326  13.852  0.0772  0.1876  0.3840
18393TIP3    H176670   5.576   6.233  13.868 -0.7476  0.1520 -0.6431
18393TIP3    H276671   5.581   6.337  13.758  1.9742  0.9532  0.1479
18394TIP3   OH276672   5.291   1.416   2.781  0.3642 -0.4168 -0.8351
18394TIP3    H176673   5.298   1.385   2.691 -0.3210 -1.1632 -0.6386
18394TIP3    H276674   5.353   1.362   2.830  2.2588  1.3549 -1.1748
18395TIP3   OH276675   1.969   0.421   1.692 -0.6892 -0.0029 -0.1567
18395TIP3    H176676   1.875   0.440   1.689 -0.5600  0.6124 -0.4120
18395TIP3    H276677   1.992   0.430   1.785 -0.6779  0.8988 -0.2334
18396TIP3   OH276678   1.515   4.400  12.588 -0.2675 -0.0261  0.1193
18396TIP3    H176679   1.450   4.338  12.556  0.7993 -0.3833 -1.4524
18396TIP3    H276680   1.519   4.383  12.683 -0.4626 -1.9131 -0.1705
18397TIP3   OH276681   3.380   6.720   2.381 -0.1389  0.5133  0.4186
18397TIP3    H176682   3.413   6.658   2.316  0.4077 -0.4547  1.5792
18397TIP3    H276683   3.438   6.709   2.456 -2.0017  0.0750  1.8646
18398TIP3   OH276684   1.030   2.545  12.126 -0.2892 -0.2055 -0.3581
18398TIP3    H176685   1.120   2.511  12.123 -0.2628 -0.1622 -0.0380
18398TIP3    H276686   0.979   2.473  12.164  0.0211  0.6577  1.7872
18399TIP3   OH276687   6.830   3.596   2.480  0.0647 -0.2313 -0.6439
18399TIP3    H176688   6.776   3.518   2.491  1.6560 -1.1075  1.7298
18399TIP3    H276689   6.806   3.653   2.553  0.3346  0.6411 -1.2182
18400TIP3   OH276690   1.647   1.936   1.424 -0.3620 -0.0343 -0.0466
18400TIP3    H176691   1.571   1.880   1.408 -0.5744 -0.5264  2.3533
18400TIP3    H276692   1.720   1.889   1.384 -0.9776 -0.5505 -0.6008
18401TIP3   OH276693   6.808   1.492   0.611 -0.0915 -0.1519  0.2539
18401TIP3    H176694   6.730   1.508   0.664 -0.6382 -0.0018 -0.5723
18401TIP3    H276695   6.866   1.566   0.630 -0.9215  0.7327 -0.4808
18402TIP3   OH276696   2.815   2.953   4.029 -0.4087 -0.0126  0.5868
18402TIP3    H176697   2.752   2.962   4.101 -1.1525 -0.6734  0.0416
18402TIP3    H276698   2.801   2.864   3.997  0.9508 -0.2296  0.5698
18403TIP3   OH276699   1.369   2.182  15.212  0.5708 -0.0213 -0.5352
18403TIP3    H176700   1.398   2.094  15.233 -0.4086 -0.2082  0.1265
18403TIP3    H276701   1.370   2.186  15.116 -0.6902 -1.2384 -0.6329
18404TIP3   OH276702   3.952   6.280   5.349 -0.2568  0.2387 -0.1262
18404TIP3    H176703   4.046   6.267   5.333  0.1019  0.5665  1.4853
18404TIP3    H276704   3.911   6.270   5.263  1.0387 -1.6947 -0.5915
18405TIP3   OH276705   0.685   0.845   0.493 -0.4801 -0.3099  0.0269
18405TIP3    H176706   0.659   0.785   0.563  0.4723 -1.3494 -0.4840
18405TIP3    H276707   0.744   0.794   0.438  0.6593  1.2095 -0.2235
18406TIP3   OH276708   1.394   5.843  14.454  0.0136 -0.0982  0.0926
18406TIP3    H176709   1.431   5.911  14.511 -1.8476 -0.8170  2.3456
18406TIP3    H276710   1.303   5.871  14.440 -0.5385 -1.6665  0.3686
18407TIP3   OH276711   2.499   0.574  12.883  0.1393  0.1018  0.6850
18407TIP3    H176712   2.445   0.625  12.822  0.1648  1.2308  1.5854
18407TIP3    H276713   2.586   0.574  12.843 -0.0928 -0.1579  0.1546
18408TIP3   OH276714   4.265   1.159  17.072 -0.1597 -0.4090 -0.0349
18408TIP3    H176715   4.236   1.247  17.048 -0.0561 -0.3794 -0.0549
18408TIP3    H276716   4.191   1.121  17.120  0.5736  0.4934  1.9137
18409TIP3   OH276717   1.430   1.385  12.523 -0.4155  0.6590 -0.3145
18409TIP3    H176718   1.461   1.409  12.611  2.0020 -0.9108 -0.6548
18409TIP3    H276719   1.443   1.290  12.518 -1.0307  0.6322 -2.1913
18410TIP3   OH276720   0.146   4.078   6.554  0.0909  0.5189 -0.4055
18410TIP3    H176721   0.208   4.136   6.598 -0.1881  0.2600  0.3391
18410TIP3    H276722   0.076   4.136   6.524 -1.5619  0.2910  2.7139
18411TIP3   OH276723   6.425   3.833  12.426  0.0609  0.0174  0.0979
18411TIP3    H176724   6.330   3.834  12.422  0.0341  1.6951  0.3334
18411TIP3    H276725   6.453   3.812  12.337 -0.5460  1.1585 -0.3874
18412TIP3   OH276726   2.076   4.205  17.036  0.0470  0.3037  0.6763
18412TIP3    H176727   2.108   4.222  16.948 -0.7559 -0.2331  0.2706
18412TIP3    H276728   2.152   4.173  17.084  0.2709 -0.3376 -0.0955
18413TIP3   OH276729   6.603   5.661  12.610 -0.4586  0.0738 -0.0956
18413TIP3    H176730   6.534   5.726  12.622 -1.2674 -0.6594 -0.6171
18413TIP3    H276731   6.619   5.627  12.698 -1.0152 -0.0021 -0.0188
18414TIP3   OH276732   1.692   0.808   1.780  0.1189  0.2018 -0.3625
18414TIP3    H176733   1.665   0.782   1.693  1.0870 -0.5283 -0.4586
18414TIP3    H276734   1.714   0.726   1.825  1.6934  0.7025 -0.1521
18415TIP3   OH276735   5.030   3.947   0.670 -0.5102  0.2414  0.2206
18415TIP3    H176736   4.948   3.995   0.658 -0.6467 -0.1988 -0.7338
18415TIP3    H276737   5.076   3.995   0.739 -0.7138  1.6585 -0.5807
18416TIP3   OH276738   6.363   3.599   2.179 -0.7031 -0.0503  0.3631
18416TIP3    H176739   6.349   3.564   2.091 -1.5866 -1.4186  1.0124
18416TIP3    H276740   6.442   3.652   2.171 -0.8292 -0.0312 -1.2755
18417TIP3   OH276741   6.794   2.718   3.177 -0.1425 -0.4879 -0.1853
18417TIP3    H176742   6.752   2.650   3.230  1.8091  0.6198  3.0658
18417TIP3    H276743   6.732   2.791   3.178 -0.6279 -0.8905 -0.4563
18418TIP3   OH276744   6.564   2.453   5.203 -0.2482  0.0289  0.3458
18418TIP3    H176745   6.540   2.528   5.149 -1.0388  0.9195  1.8643
18418TIP3    H276746   6.630   2.407   5.152  0.5588  1.9772 -0.4702
18419TIP3   OH276747   4.783   4.613   0.400  0.2465  0.4690 -0.3583
18419TIP3    H176748   4.814   4.596   0.489  1.0488  1.1064 -0.5044
18419TIP3    H276749   4.819   4.542   0.347  2.2946  1.6846 -0.6926
18420TIP3   OH276750   2.153   5.502  17.026 -0.7583  0.0062  0.3226
18420TIP3    H176751   2.188   5.584  16.993  0.5875 -0.9471 -0.7562
18420TIP3    H276752   2.064   5.522  17.054 -0.3212  1.8924  0.4558
18421TIP3   OH276753   4.832   0.122  14.383 -0.2054 -0.1330 -0.0697
18421TIP3    H176754   4.919   0.090  14.407 -0.1367  1.2753  1.8207
18421TIP3    H276755   4.779   0.109  14.461 -0.6469  2.4862  0.1821
18422TIP3   OH276756   5.188   2.131  12.028  0.0860  0.4540 -0.1306
18422TIP3    H176757   5.221   2.081  12.103 -0.7972 -0.0764 -0.0887
18422TIP3    H276758   5.254   2.200  12.015 -0.2606  1.2318  1.8251
18423TIP3   OH276759   0.482   0.524   2.731 -0.4294  0.1379  0.0121
18423TIP3    H176760   0.401   0.574   2.721 -1.5950 -1.4826  0.8007
18423TIP3    H276761   0.454   0.442   2.773  1.9324  0.4395  2.4310
18424TIP3   OH276762   2.154   4.977  13.020 -0.4330 -0.9277 -0.1468
18424TIP3    H176763   2.137   5.069  13.003  0.4074 -0.7744 -0.1856
18424TIP3    H276764   2.249   4.967  13.011 -0.2402 -1.3791  1.8437
18425TIP3   OH276765   0.286   4.719  13.079  0.8171 -0.7329 -0.1052
18425TIP3    H176766   0.365   4.747  13.125  0.4044 -0.6195  0.5484
18425TIP3    H276767   0.227   4.795  13.085  0.1312 -1.3105  0.6481
18426TIP3   OH276768   3.977   4.654   2.835  0.4513 -0.0801 -0.5671
18426TIP3    H176769   3.981   4.600   2.914  1.8430 -0.4830 -0.8882
18426TIP3    H276770   3.953   4.741   2.866  0.3193 -0.3881  0.2128
18427TIP3   OH276771   5.193   3.089   4.130 -0.1335 -0.3332 -0.8905
18427TIP3    H176772   5.287   3.070   4.130 -0.4455 -2.1339  0.4405
18427TIP3    H276773   5.162   3.052   4.213 -1.7136  1.9346 -0.3764
18428TIP3   OH276774   1.508   5.630   3.398 -0.4039 -0.1356  0.2306
18428TIP3    H176775   1.473   5.569   3.462 -0.1992 -0.8761 -0.3468
18428TIP3    H276776   1.575   5.580   3.351 -0.2681  0.5163 -0.2848
18429TIP3   OH276777   5.098   5.126   3.006  0.1508 -0.2373  0.1690
18429TIP3    H176778   5.109   5.105   2.914  1.6692  0.1404  0.2461
18429TIP3    H276779   5.004   5.143   3.016 -0.0288 -0.2928 -1.2928
18430TIP3   OH276780   6.211   6.638   2.560 -0.3459 -0.2761 -0.5850
18430TIP3    H176781   6.278   6.605   2.501  1.3200  0.0026  1.0588
18430TIP3    H276782   6.192   6.565   2.619 -1.6243 -0.3962 -1.1034
18431TIP3   OH276783   3.543   1.050   6.589  0.0937  0.4052  0.0437
18431TIP3    H176784   3.545   0.976   6.650 -1.7896  0.4864  0.2867
18431TIP3    H276785   3.607   1.112   6.623 -0.7703  0.3614  1.8489
18432TIP3   OH276786   5.924   5.929  12.606 -0.1193  0.4811  0.2933
18432TIP3    H176787   5.868   5.896  12.536 -0.3101  0.7714  0.3062
18432TIP3    H276788   5.911   6.024  12.605  1.6647  0.7504 -0.8218
18433TIP3   OH276789   2.700   4.340  15.365  0.1705 -0.1157  0.0096
18433TIP3    H176790   2.714   4.435  15.361 -0.2674 -0.0431  0.1909
18433TIP3    H276791   2.606   4.329  15.350  0.2341 -0.5253 -0.0848
18434TIP3   OH276792   6.180   1.020   1.307  0.3550  0.2936 -0.3740
18434TIP3    H176793   6.168   1.086   1.238  0.6303  0.6513 -0.0854
18434TIP3    H276794   6.258   1.050   1.355 -0.3519  0.5413  0.6510
18435TIP3   OH276795   3.788   3.688  11.936 -0.3147 -0.5483 -0.5264
18435TIP3    H176796   3.781   3.766  11.991 -0.2902 -1.4517  0.8260
18435TIP3    H276797   3.882   3.676  11.923 -0.2320 -1.1033  0.4462
18436TIP3   OH276798   3.848   6.079  14.500 -0.0833  0.1183  0.5459
18436TIP3    H176799   3.853   5.983  14.507  2.2839  0.1131 -0.1874
18436TIP3    H276800   3.887   6.111  14.581  1.7985  0.3762 -0.4138
18437TIP3   OH276801   6.379   5.800  12.657 -0.1451  0.2093 -0.5516
18437TIP3    H176802   6.295   5.800  12.612  1.3301  0.2518 -3.5418
18437TIP3    H276803   6.371   5.871  12.722 -3.2966 -1.6297  1.3386
18438TIP3   OH276804   4.869   5.499  13.015 -0.3942  0.0864 -0.4526
18438TIP3    H176805   4.831   5.573  13.062  2.7380  1.5032  0.0995
18438TIP3    H276806   4.892   5.534  12.929  1.7283 -0.0117  0.0435
18439TIP3   OH276807   3.722   5.708   2.356 -0.2460 -0.1473  0.1471
18439TIP3    H176808   3.677   5.649   2.296 -0.8761  0.8382 -0.3669
18439TIP3    H276809   3.664   5.715   2.432  2.0313 -4.1728  2.6715
18440TIP3   OH276810   2.620   4.060   0.839 -1.0711 -0.3262 -0.2994
18440TIP3    H176811   2.654   3.979   0.876 -0.6292 -0.4261 -0.9114
18440TIP3    H276812   2.605   4.040   0.747  0.5645  0.7301 -0.8354
18441TIP3   OH276813   6.443   3.883   0.466 -0.3595 -0.5106 -0.4071
18441TIP3    H176814   6.484   3.798   0.447  1.2518  0.1873 -0.2526
18441TIP3    H276815   6.473   3.940   0.394 -0.3714  0.2363  0.1685
18442TIP3   OH276816   5.008   0.868   0.740  0.6800 -0.8149 -0.1238
18442TIP3    H176817   5.040   0.808   0.673 -0.6197 -1.1376 -0.5003
18442TIP3    H276818   5.008   0.954   0.697 -1.3957 -1.2109 -1.0622
18443TIP3   OH276819   1.112   6.608   0.110 -0.1929 -0.4469 -0.0851
18443TIP3    H176820   1.061   6.629   0.188  0.3905 -0.7863  0.3975
18443TIP3    H276821   1.134   6.516   0.120  3.9406  0.5066  1.8112
18444TIP3   OH276822   6.695   5.823  16.362 -0.1939 -0.3540 -0.5344
18444TIP3    H176823   6.732   5.901  16.405  0.9420 -1.0536 -0.1850
18444TIP3    H276824   6.603   5.845  16.346  0.3158  1.3915 -1.2608
18445TIP3   OH276825   1.001   4.372   5.063  0.3813  0.0877  1.0709
18445TIP3    H176826   1.026   4.426   4.988 -0.1948 -0.7043  0.2823
18445TIP3    H276827   1.030   4.283   5.040 -1.4747 -0.5279  0.8947
18446TIP3   OH276828   5.280   4.385   3.139  0.2532 -0.3011  0.0381
18446TIP3    H176829   5.280   4.404   3.233  1.0982 -0.0222 -0.0086
18446TIP3    H276830   5.364   4.419   3.108 -0.0731 -0.2824 -0.8441
18447TIP3   OH276831   0.895   2.868   2.553  0.8161 -0.1242 -0.8132
18447TIP3    H176832   0.893   2.930   2.481 -0.4159  1.9969  0.9128
18447TIP3    H276833   0.988   2.854   2.570  1.1151 -0.0602 -2.2910
18448TIP3   OH276834   6.223   0.647   0.875 -0.1460 -0.5373 -0.1136
18448TIP3    H176835   6.216   0.552   0.865 -2.8104 -0.4127 -0.1147
18448TIP3    H276836   6.220   0.682   0.786 -2.0305 -0.3658 -0.0106
18449TIP3   OH276837   2.230   2.354  14.096 -0.1298  0.0643  0.7648
18449TIP3    H176838   2.325   2.358  14.092 -0.1059  0.1773  1.3413
18449TIP3    H276839   2.202   2.446  14.095 -0.2491  0.0265  0.3240
18450TIP3   OH276840   4.738   1.570   5.854 -0.3398  0.1566  0.0495
18450TIP3    H176841   4.831   1.552   5.838 -0.7417 -0.7176 -1.3979
18450TIP3    H276842   4.737   1.609   5.942  1.3971  0.2811  0.0565
18451TIP3   OH276843   2.533   2.124  12.758 -0.4160 -0.1311  0.1236
18451TIP3    H176844   2.533   2.205  12.809  1.4286  0.2442 -0.3901
18451TIP3    H276845   2.611   2.131  12.702 -1.4358 -1.2954 -1.5135
18452TIP3   OH276846   0.059   6.749  15.011 -0.2164 -0.1626  0.1308
18452TIP3    H176847   0.146   6.710  15.003  1.0313  2.5538 -0.4687
18452TIP3    H276848   0.016   6.727  14.929 -0.0818 -1.3665  0.3530
18453TIP3   OH276849   1.086   1.886  11.359 -0.0781 -0.2641  0.1476
18453TIP3    H176850   1.051   1.935  11.433  0.2370 -1.1347  0.8812
18453TIP3    H276851   1.010   1.870  11.303 -0.6531 -1.1155  1.1432
18454TIP3   OH276852   6.117   5.544  13.136  0.0664  0.1095  0.2831
18454TIP3    H176853   6.164   5.624  13.159 -0.4445  0.3626  0.4641
18454TIP3    H276854   6.060   5.570  13.063 -2.0820  0.6215  2.0367
18455TIP3   OH276855   0.129   1.767   2.341  0.4935 -0.4035 -0.0096
18455TIP3    H176856   0.132   1.745   2.434  0.6565 -0.2584  0.0199
18455TIP3    H276857   0.163   1.857   2.336  1.0843 -0.6369 -0.2828
18456TIP3   OH276858   3.353   0.794   5.306 -0.2467  0.3853 -0.5105
18456TIP3    H176859   3.344   0.856   5.378  0.2693 -0.2772  0.1452
18456TIP3    H276860   3.305   0.716   5.336 -0.0907  0.1308 -0.9170
18457TIP3   OH276861   3.135   1.305   4.222  0.5352  0.1909 -0.5520
18457TIP3    H176862   3.227   1.329   4.220  0.6259 -0.1609 -1.4853
18457TIP3    H276863   3.135   1.209   4.214  0.1538 -0.0815  1.9663
18458TIP3   OH276864   2.134   0.271   3.675 -0.4932 -0.5054 -0.0094
18458TIP3    H176865   2.095   0.286   3.589  1.2831 -1.6300 -1.0657
18458TIP3    H276866   2.062   0.236   3.728 -1.6012  0.1703 -1.0265
18459TIP3   OH276867   6.541   4.865  14.424  0.1529  0.4370 -0.1980
18459TIP3    H176868   6.636   4.874  14.424  0.2022  0.0154 -0.9604
18459TIP3    H276869   6.513   4.903  14.507  1.0353  0.0669  0.2774
18460TIP3   OH276870   0.559   0.842  11.441 -0.0399 -0.0414  0.9569
18460TIP3    H176871   0.496   0.812  11.375  0.2995  0.4743  0.3889
18460TIP3    H276872   0.636   0.867  11.391 -0.8311  3.2751  1.1875
18461TIP3   OH276873   6.022   4.238  11.921  0.0876  0.9166  0.3780
18461TIP3    H176874   6.008   4.148  11.951 -1.0135  1.0108  0.1575
18461TIP3    H276875   6.083   4.274  11.986  1.6026 -0.3728 -0.2674
18462TIP3   OH276876   4.600   4.421   0.073  0.1235  0.4774  0.2435
18462TIP3    H176877   4.674   4.457   0.123 -0.0306 -0.3296  1.0738
18462TIP3    H276878   4.622   4.440  -0.018  1.5649 -0.1038  0.4464
18463TIP3   OH276879   2.679   3.909   2.903  0.3030 -0.1062  0.4341
18463TIP3    H176880   2.703   3.839   2.964  4.0712  0.5250 -0.0936
18463TIP3    H276881   2.656   3.983   2.959  1.6229 -0.1774  1.1032
18464TIP3   OH276882   4.587   4.174  16.342 -0.1736 -0.0350 -0.4018
18464TIP3    H176883   4.522   4.213  16.400 -1.3277 -2.2534 -0.0966
18464TIP3    H276884   4.615   4.095  16.387  2.0302  0.3537 -1.0025
18465TIP3   OH276885   1.018   1.889   3.793  0.0022  0.0496  0.5135
18465TIP3    H176886   0.924   1.874   3.798 -0.2546  1.6270  1.0564
18465TIP3    H276887   1.027   1.959   3.728  0.8837 -0.5983 -0.0862
18466TIP3   OH276888   2.569   2.541   4.640  0.1211  0.0303 -0.1629
18466TIP3    H176889   2.509   2.552   4.714 -0.0271  1.4253 -0.4578
18466TIP3    H276890   2.655   2.528   4.680  0.0990  1.1229  0.2885
18467TIP3   OH276891   3.047   2.822  14.211 -0.2122  0.1244 -0.0826
18467TIP3    H176892   2.994   2.896  14.182 -1.5898 -0.4242  0.9379
18467TIP3    H276893   3.072   2.777  14.130  1.3267  2.1035 -0.7792
18468TIP3   OH276894   2.394   0.360   3.187  0.3971 -0.3456 -0.2825
18468TIP3    H176895   2.385   0.452   3.212 -0.3219 -0.2412 -0.8805
18468TIP3    H276896   2.451   0.362   3.109 -0.0234 -0.3508 -0.5950
18469TIP3   OH276897   2.010   4.233  12.247  0.3162 -0.0020 -0.1827
18469TIP3    H176898   1.993   4.202  12.335 -0.9796 -0.4882 -0.5827
18469TIP3    H276899   2.036   4.324  12.258 -0.9450  0.2778  0.6262
18470TIP3   OH276900   4.004   6.246   4.809 -0.1017  0.5435 -0.5117
18470TIP3    H176901   4.045   6.308   4.869 -2.5588  1.4177  0.4107
18470TIP3    H276902   3.998   6.293   4.726  1.7875 -0.0534 -1.0307
18471TIP3   OH276903   2.193   4.110  13.155  0.0230 -0.0425 -0.2851
18471TIP3    H176904   2.274   4.062  13.138  0.9108  1.2476  0.1882
18471TIP3    H276905   2.137   4.091  13.079  0.2576 -1.9275 -0.0492
18472TIP3   OH276906   1.371   3.068   4.940  0.8637  0.6115  0.7241
18472TIP3    H176907   1.387   3.144   4.997  2.3102  1.4101 -0.6639
18472TIP3    H276908   1.434   3.002   4.969  1.2411  0.8280  0.4111
18473TIP3   OH276909   3.121   2.243   3.520  0.4364 -0.1174 -0.2505
18473TIP3    H176910   3.209   2.239   3.482  0.7256 -3.3071  0.4654
18473TIP3    H276911   3.136   2.251   3.615  0.0741 -2.0651  0.0131
18474TIP3   OH276912   6.284   1.500   5.742  0.0067  0.4243  0.0198
18474TIP3    H176913   6.323   1.415   5.720 -1.0763  0.1252 -0.7904
18474TIP3    H276914   6.194   1.480   5.765 -0.1458  1.3207  0.2218
18475TIP3   OH276915   4.736   2.186   3.729 -0.7362  0.1933  0.5571
18475TIP3    H176916   4.791   2.222   3.659 -0.9361 -2.0411 -0.8679
18475TIP3    H276917   4.796   2.136   3.784 -0.4168  2.6926  2.6607
18476TIP3   OH276918   2.863   4.516  11.595  0.1213 -0.5088 -0.1058
18476TIP3    H176919   2.834   4.545  11.508  1.3067  1.1190 -0.0026
18476TIP3    H276920   2.935   4.455  11.577 -1.0629 -1.9165 -0.2752
18477TIP3   OH276921   2.825   5.162   2.000  0.0147  0.1705 -0.2149
18477TIP3    H176922   2.804   5.088   1.944 -1.4397  0.3424  0.0629
18477TIP3    H276923   2.751   5.222   1.990  0.2972  0.7579  0.9397
18478TIP3   OH276924   1.915   3.067  11.919  0.1050  0.2276 -0.5752
18478TIP3    H176925   1.917   3.085  12.013 -0.0763  2.4522 -0.9307
18478TIP3    H276926   1.851   2.997  11.908 -1.8977  1.7530  0.7489
18479TIP3   OH276927   0.667   1.675  15.830 -0.0288  0.0492  0.3506
18479TIP3    H176928   0.660   1.580  15.845 -1.0036  0.4093  2.5466
18479TIP3    H276929   0.714   1.708  15.906 -0.8223  1.4881  0.2569
18480TIP3   OH276930   6.689   2.727  13.210  0.5264 -0.1972  0.6051
18480TIP3    H176931   6.634   2.805  13.220  0.0891 -0.1471 -1.6721
18480TIP3    H276932   6.628   2.653  13.221  0.5930 -0.1942  1.0040
18481TIP3   OH276933   0.342   5.915  15.145 -0.0944 -0.8589  0.1977
18481TIP3    H176934   0.321   5.920  15.238 -1.1223 -0.6104 -0.0374
18481TIP3    H276935   0.268   5.958  15.101  1.1585  0.5735 -0.6355
18482TIP3   OH276936   5.948   5.745  17.096  0.1683  0.0191 -0.4003
18482TIP3    H176937   5.865   5.699  17.112 -0.6234  1.1844 -0.9524
18482TIP3    H276938   5.978   5.711  17.011  0.1204 -0.2144 -0.3250
18483TIP3   OH276939   4.993   6.010   1.713 -0.1545 -0.6906  0.3112
18483TIP3    H176940   4.989   5.937   1.774 -1.7117 -1.7117 -0.9299
18483TIP3    H276941   4.936   6.077   1.751  0.5597 -0.4520  0.9960
18484TIP3   OH276942   1.818   2.207  11.223  0.2951  0.7050 -0.2228
18484TIP3    H176943   1.769   2.151  11.162  1.1611 -0.0880 -0.2085
18484TIP3    H276944   1.826   2.155  11.303  0.1238  1.3120  0.2025
18485TIP3   OH276945   4.249   1.760  12.035  0.7935  0.0747  0.3641
18485TIP3    H176946   4.286   1.804  11.958 -0.0220 -0.5741 -0.4183
18485TIP3    H276947   4.189   1.824  12.073 -2.3370 -1.0518 -2.2040
18486TIP3   OH276948   3.041   5.471  15.130  0.1437 -0.0005 -0.3564
18486TIP3    H176949   2.953   5.434  15.124 -0.9928  2.3173  0.5293
18486TIP3    H276950   3.030   5.562  15.103  2.3992  0.2327 -0.6897
18487TIP3   OH276951   5.140   6.764   4.708 -0.3318  0.0077 -0.3452
18487TIP3    H176952   5.149   6.854   4.675  0.7807 -0.5908 -1.7848
18487TIP3    H276953   5.117   6.774   4.800 -0.2644  1.7660 -0.4926
18488TIP3   OH276954   4.732   4.888  12.912 -0.7081  0.1841  0.3723
18488TIP3    H176955   4.752   4.935  12.831 -1.1297  0.2761  0.3236
18488TIP3    H276956   4.784   4.807  12.905 -3.1912 -1.3832 -1.5042
18489TIP3   OH276957   0.742   4.797   2.938  0.2233  0.2173 -0.0180
18489TIP3    H176958   0.774   4.853   2.867  0.3001 -0.3936 -0.4717
18489TIP3    H276959   0.663   4.756   2.902 -0.8455  1.3658  0.9336
18490TIP3   OH276960   0.809   5.085   6.481  0.0796  0.3820 -0.8707
18490TIP3    H176961   0.863   5.070   6.403 -1.0871  3.2499 -2.3870
18490TIP3    H276962   0.869   5.126   6.544  0.4930  0.2560 -1.1787
18491TIP3   OH276963   2.541   4.599  14.435  0.2146 -0.7343 -0.3808
18491TIP3    H176964   2.548   4.607  14.340  2.4999  0.2410 -0.2024
18491TIP3    H276965   2.591   4.519  14.456  1.9321  0.4182  0.1474
18492TIP3   OH276966   4.266   2.532  16.301 -0.1058  0.0896  0.0261
18492TIP3    H176967   4.309   2.550  16.384  0.8849 -0.7754 -0.2778
18492TIP3    H276968   4.227   2.616  16.275  1.5237  0.9518  0.2450
18493TIP3   OH276969   0.680   1.863  15.057  0.5693 -0.3263 -0.1294
18493TIP3    H176970   0.635   1.878  15.140 -2.2809 -0.6934 -1.4800
18493TIP3    H276971   0.773   1.866  15.079 -0.0378  1.2122  2.7635
18494TIP3   OH276972   5.895   0.841   4.917 -0.0128  0.7944  0.2671
18494TIP3    H176973   5.905   0.901   4.843  0.1967  0.2485 -0.1567
18494TIP3    H276974   5.806   0.859   4.950  0.0131  1.2675  0.0900
18495TIP3   OH276975   5.225   1.921   0.631 -0.0378 -0.1329 -0.5500
18495TIP3    H176976   5.183   1.868   0.564  0.3176 -0.2064 -0.7163
18495TIP3    H276977   5.169   1.999   0.637 -0.4174 -0.4064 -0.4844
18496TIP3   OH276978   6.767   2.975   3.651  0.8199  0.0157  0.2583
18496TIP3    H176979   6.800   2.913   3.717  1.2923 -0.6431 -0.5577
18496TIP3    H276980   6.832   2.969   3.580 -1.1664 -1.5498 -1.5551
18497TIP3   OH276981   1.942   5.726  12.973 -0.2366  0.2245  0.0744
18497TIP3    H176982   1.881   5.653  12.981  0.6453 -0.4185  1.2509
18497TIP3    H276983   1.888   5.804  12.988 -0.8744 -0.2980  0.5372
18498TIP3   OH276984   4.919   3.235   3.434  0.1687 -0.0279  0.0854
18498TIP3    H176985   4.986   3.236   3.502 -0.6930 -1.8234  1.0278
18498TIP3    H276986   4.957   3.287   3.363  1.9775  0.1268  1.0940
18499TIP3   OH276987   5.158   1.344   5.575 -0.0200  0.8756  0.4293
18499TIP3    H176988   5.168   1.367   5.482  0.5067  2.6233  0.8717
18499TIP3    H276989   5.097   1.271   5.575 -0.4118  1.1549 -1.2774
18500TIP3   OH276990   0.207   5.868  13.439 -0.3589  0.3508 -0.5275
18500TIP3    H176991   0.120   5.893  13.470 -0.2828  0.7754 -0.6434
18500TIP3    H276992   0.206   5.773  13.439 -0.9867  0.3489 -0.9720
18501TIP3   OH276993   6.246   4.896  12.189  0.3742 -0.6342  0.1721
18501TIP3    H176994   6.278   4.821  12.239  2.6571 -0.5838 -1.0814
18501TIP3    H276995   6.152   4.900  12.208 -0.0726 -4.4201 -0.5214
18502TIP3   OH276996   2.924   1.266   2.134 -0.7557  0.2572  0.4717
18502TIP3    H176997   2.957   1.272   2.223  0.2242 -1.3979  0.2676
18502TIP3    H276998   2.974   1.332   2.085 -0.2155  0.1425  0.8594
18503TIP3   OH276999   5.486   4.202  13.313 -0.6785 -0.3670 -0.4332
18503TIP3    H177000   5.495   4.260  13.388  5.2537 -0.0223 -0.9107
18503TIP3    H277001   5.502   4.114  13.348 -0.5732 -0.5312 -0.8767
18504TIP3   OH277002   5.814   4.404  14.628  0.2851  0.2206 -0.4205
18504TIP3    H177003   5.885   4.351  14.590 -0.0695 -0.8759  0.3836
18504TIP3    H277004   5.771   4.444  14.552  2.2215  1.5630 -0.8950
18505TIP3   OH277005   6.856   3.497  16.124 -0.6623  0.1909 -0.8156
18505TIP3    H177006   6.845   3.566  16.059  1.0586 -1.0815 -2.5739
18505TIP3    H277007   6.901   3.427  16.077 -1.6442 -1.8357  1.0929
18506TIP3   OH277008   2.009   4.776  10.392 -0.4160  0.2939 -0.3246
18506TIP3    H177009   2.031   4.863  10.425 -0.4847  0.3058 -0.3091
18506TIP3    H277010   2.060   4.766  10.312  0.8715 -0.3064  0.5462
18507TIP3   OH277011   4.923   5.222   4.823  0.1844 -0.2735  0.8698
18507TIP3    H177012   4.935   5.215   4.918  1.0647 -1.7149  0.6715
18507TIP3    H277013   4.891   5.135   4.797 -1.0390  0.4143 -0.0372
18508TIP3   OH277014   3.308   1.792   4.039 -0.2544 -0.1339 -0.0432
18508TIP3    H177015   3.242   1.734   4.001  1.2065 -0.2072 -2.6949
18508TIP3    H277016   3.359   1.735   4.096  0.3881 -1.2386 -1.6491
18509TIP3   OH277017   1.512   3.228   2.424  0.2969 -0.4684  0.2691
18509TIP3    H177018   1.560   3.250   2.344 -2.3015  0.2464 -1.2019
18509TIP3    H277019   1.522   3.133   2.432 -0.9860 -0.8975 -2.1112
18510TIP3   OH277020   5.707   0.436  11.007 -0.0356 -0.7684 -0.3662
18510TIP3    H177021   5.683   0.481  10.927  0.5320  0.0739 -0.0777
18510TIP3    H277022   5.626   0.397  11.039 -0.6640  0.5752 -0.2965
18511TIP3   OH277023   0.524   5.442   2.338  0.0701  0.3222 -0.3885
18511TIP3    H177024   0.517   5.530   2.374 -0.9670  0.1398 -0.1046
18511TIP3    H277025   0.435   5.408   2.340  0.5156 -0.8896 -0.0943
18512TIP3   OH277026   5.332   1.171   1.587 -0.1982  0.5458 -0.4275
18512TIP3    H177027   5.377   1.116   1.651 -0.8971  0.4922  0.0275
18512TIP3    H277028   5.401   1.199   1.527  0.3765  0.1731  0.0459
18513TIP3   OH277029   0.660   4.075   4.755  0.2649 -0.2869 -0.3664
18513TIP3    H177030   0.663   4.059   4.849 -1.2644  1.5049  0.0440
18513TIP3    H277031   0.568   4.060   4.731 -0.2172  2.7982 -0.8034
18514TIP3   OH277032   5.765   0.258   1.081 -0.5942 -0.1624 -0.0384
18514TIP3    H177033   5.733   0.269   1.171  0.1857 -1.8478  0.4987
18514TIP3    H277034   5.703   0.306   1.027 -1.4186  0.3956  1.3617
18515TIP3   OH277035   0.264   5.613  12.863 -0.0755 -0.3479 -0.1947
18515TIP3    H177036   0.350   5.638  12.829 -0.4614  1.2161 -0.1251
18515TIP3    H277037   0.278   5.602  12.957 -0.4279  2.5736  0.2816
18516TIP3   OH277038   0.803   4.366   3.809  0.3254 -0.4846  0.1526
18516TIP3    H177039   0.866   4.293   3.810  1.4493  0.4214 -1.0786
18516TIP3    H277040   0.719   4.324   3.792  0.9061 -1.5314 -0.2902
18517TIP3   OH277041   1.274   4.200   2.868  0.0540 -0.0569 -0.5039
18517TIP3    H177042   1.299   4.116   2.906  0.9109  0.2353 -0.3933
18517TIP3    H277043   1.357   4.239   2.839 -0.1461  1.3543  0.6806
18518TIP3   OH277044   4.492   1.990  10.719 -0.4251  0.5470 -0.2847
18518TIP3    H177045   4.585   2.011  10.727 -0.5729  0.3924  3.6706
18518TIP3    H277046   4.490   1.898  10.691  0.5440  0.7235 -0.9865
18519TIP3   OH277047   4.117   6.804  16.346  0.3821 -0.2151  0.4861
18519TIP3    H177048   4.032   6.766  16.368  0.8545 -0.4701  1.9998
18519TIP3    H277049   4.166   6.803  16.428  1.9404 -0.2979 -0.3882
18520TIP3   OH277050   2.278   4.211  15.584 -0.3552 -0.4819  0.2505
18520TIP3    H177051   2.193   4.197  15.541  0.1349 -1.9417 -0.3041
18520TIP3    H277052   2.331   4.254  15.518 -0.0786 -1.3379 -0.1019
18521TIP3   OH277053   2.073   6.344  16.369 -0.0273  0.0561  0.3378
18521TIP3    H177054   2.124   6.423  16.353  0.4980 -0.3460 -0.0110
18521TIP3    H277055   1.992   6.375  16.408 -0.8652  1.0065 -1.9668
18522TIP3   OH277056   4.224   3.265   5.321  0.2761 -0.0980  0.0371
18522TIP3    H177057   4.296   3.311   5.363  0.8834 -0.2967 -0.7690
18522TIP3    H277058   4.156   3.259   5.389  1.1501 -0.2269  0.9110
18523TIP3   OH277059   6.148   1.968  16.706  0.0015  0.0616  0.3906
18523TIP3    H177060   6.236   2.001  16.687 -0.5580  0.5598 -1.4651
18523TIP3    H277061   6.108   2.035  16.762  0.6313  0.0327  0.8887
18524TIP3   OH277062   6.815   4.569  15.282 -0.1623 -0.4062 -0.2796
18524TIP3    H177063   6.878   4.594  15.214 -1.2408  1.1189 -0.7686
18524TIP3    H277064   6.763   4.499  15.242  1.9685 -2.5896  0.5817
18525TIP3   OH277065   4.586   5.218  12.141  0.0177 -0.0806 -0.6736
18525TIP3    H177066   4.664   5.250  12.095  1.5174 -1.3615  0.8109
18525TIP3    H277067   4.621   5.180  12.222 -1.9909 -2.1663 -0.6999
18526TIP3   OH277068   0.024   5.944  10.225 -0.0400  0.5489  0.0452
18526TIP3    H177069  -0.054   5.970  10.177  0.2669 -0.2663 -0.9332
18526TIP3    H277070   0.074   5.890  10.163  1.3399  1.1134  0.6164
18527TIP3   OH277071   2.936   3.135  13.621  0.0200  0.1747 -0.6103
18527TIP3    H177072   2.980   3.095  13.546  2.4418 -0.1274  0.8405
18527TIP3    H277073   2.892   3.063  13.666  0.7676 -0.1312 -0.3491
18528TIP3   OH277074   2.931   1.386   4.037 -0.1401  0.1764 -0.4283
18528TIP3    H177075   2.965   1.472   4.014 -1.8737  1.3589  1.1936
18528TIP3    H277076   3.003   1.343   4.084  0.8983  0.5132 -1.6662
18529TIP3   OH277077   3.352   3.509  15.512 -0.2424 -0.0471 -0.1130
18529TIP3    H177078   3.347   3.430  15.458  4.4663 -0.5725 -0.1963
18529TIP3    H277079   3.335   3.581  15.451  0.5599 -0.8399 -1.3327
18530TIP3   OH277080   4.416   4.974  16.550  0.8339  0.4814 -0.5533
18530TIP3    H177081   4.327   5.005  16.568 -0.2282 -2.0058 -1.0677
18530TIP3    H277082   4.432   4.997  16.459  0.7797  1.0585 -0.4192
18531TIP3   OH277083   2.128   0.298   2.568 -0.5201 -0.1342 -0.6044
18531TIP3    H177084   2.184   0.242   2.514  1.6990  2.1701 -0.8792
18531TIP3    H277085   2.158   0.282   2.657 -0.8365 -0.3753 -0.5399
18532TIP3   OH277086   6.191   6.304   2.990 -0.1615  0.1458  0.4191
18532TIP3    H177087   6.282   6.274   2.985 -0.1642 -0.1484  1.7161
18532TIP3    H277088   6.139   6.226   2.976 -0.2753  0.5597 -1.8258
18533TIP3   OH277089   1.877   6.654  13.578  0.1335 -0.2198 -0.5509
18533TIP3    H177090   1.881   6.727  13.517 -0.9698  0.1435 -0.1904
18533TIP3    H277091   1.816   6.592  13.537  0.0523 -0.3545 -0.2228
18534TIP3   OH277092   0.117   3.144  16.690  0.5484 -0.1944  0.4703
18534TIP3    H177093   0.116   3.071  16.628  0.3655  1.3428 -1.4695
18534TIP3    H277094   0.157   3.216  16.640 -2.4238  2.0304  0.9846
18535TIP3   OH277095   2.054   6.775   5.102 -0.1912 -0.8343 -0.3587
18535TIP3    H177096   2.018   6.760   5.014  1.5339 -1.2978 -1.0299
18535TIP3    H277097   2.120   6.844   5.089 -1.9618  1.2950  1.1530
18536TIP3   OH277098   0.713   1.164   0.700 -0.0861 -0.0894 -0.3498
18536TIP3    H177099   0.740   1.207   0.619  0.7386  1.2107  0.5906
18536TIP3    H277100   0.617   1.157   0.692 -0.2430  1.7673 -0.6410
18537TIP3   OH277101   2.751   1.856   3.920 -0.6919  0.7805 -0.2819
18537TIP3    H177102   2.673   1.892   3.962 -0.4608 -0.0433  0.9015
18537TIP3    H277103   2.793   1.931   3.879 -2.1892  1.2134 -1.0997
18538TIP3   OH277104   3.880   6.157   3.975  0.3287  0.4683 -0.5955
18538TIP3    H177105   3.885   6.167   4.071 -0.5021  2.8350 -0.7334
18538TIP3    H277106   3.843   6.070   3.962  2.0369 -0.6223  1.1713
18539TIP3   OH277107   0.563   4.323   3.972  0.0326 -1.2731 -0.3341
18539TIP3    H177108   0.472   4.295   3.971  0.1957 -1.8210 -1.2925
18539TIP3    H277109   0.609   4.254   4.020 -0.2840 -0.1492  1.6890
18540TIP3   OH277110   3.028   5.188  13.214 -0.0481  0.3147  0.2101
18540TIP3    H177111   3.001   5.130  13.286  1.8164  1.3142  1.8515
18540TIP3    H277112   3.031   5.131  13.137  0.5989 -1.5177  1.5126
18541TIP3   OH277113   5.754   3.319  14.712 -0.3866 -0.1320 -0.5274
18541TIP3    H177114   5.847   3.328  14.733  0.1474 -1.8331 -1.9366
18541TIP3    H277115   5.719   3.407  14.724  1.0071  0.1880  1.7283
18542TIP3   OH277116   3.665   1.978  13.181 -0.6512  0.3215 -0.0908
18542TIP3    H177117   3.742   1.939  13.139  0.5946  1.8042  0.7149
18542TIP3    H277118   3.598   1.978  13.113  0.4284  0.0635 -1.1904
18543TIP3   OH277119   0.802   3.965   5.647 -0.4071 -0.5859 -0.0919
18543TIP3    H177120   0.792   3.877   5.610  1.5403  0.1328 -2.5930
18543TIP3    H277121   0.798   4.023   5.572 -0.2400  1.3764  1.3415
18544TIP3   OH277122   3.057   3.129   2.267 -0.0163  0.3878  0.1562
18544TIP3    H177123   3.066   3.203   2.207 -2.5860  0.0383 -0.8180
18544TIP3    H277124   3.144   3.116   2.303  1.1661  1.9786 -1.9040
18545TIP3   OH277125   4.113   4.284  14.390 -0.3749  0.1651  0.9798
18545TIP3    H177126   4.188   4.296  14.448  0.7104 -0.9886 -0.1224
18545TIP3    H277127   4.037   4.300  14.446  0.6622  0.7487  2.2846
18546TIP3   OH277128   6.706   0.540   4.095  0.0655 -0.2955  0.1345
18546TIP3    H177129   6.775   0.554   4.159  0.6105 -2.2597  0.0372
18546TIP3    H277130   6.669   0.628   4.080  0.7938  0.4098  2.1000
18547TIP3   OH277131   6.082   6.413  10.973 -0.4534 -0.5023  0.1680
18547TIP3    H177132   6.022   6.341  10.992 -0.6416 -0.3898  0.0131
18547TIP3    H277133   6.042   6.488  11.018 -0.7531 -0.2948 -0.4380
18548TIP3   OH277134   4.902   6.026  15.040  0.4048  0.4449  0.1044
18548TIP3    H177135   4.960   6.058  15.109 -1.8659 -0.1209  2.4218
18548TIP3    H277136   4.924   5.933  15.031  2.6594  1.0834 -2.1196
18549TIP3   OH277137   5.353   0.729  14.763  0.4463 -0.3136  0.3769
18549TIP3    H177138   5.446   0.739  14.783  0.6569  0.8087 -0.9568
18549TIP3    H277139   5.325   0.817  14.736 -0.8518 -0.7605  0.2126
18550TIP3   OH277140   4.787   3.120   3.017 -0.4808 -0.1224 -0.2099
18550TIP3    H177141   4.815   3.212   3.020  0.4288 -0.3998  0.9421
18550TIP3    H277142   4.853   3.077   2.963  0.6657 -0.5401  1.4295
18551TIP3   OH277143   4.148   0.622   0.307  0.3149 -0.0963  0.2116
18551TIP3    H177144   4.234   0.590   0.279  0.3724 -0.8287  1.1550
18551TIP3    H277145   4.091   0.610   0.230  1.1617  0.9017 -0.5962
18552TIP3   OH277146   4.895   3.723   0.692 -0.1200 -0.3024 -0.0685
18552TIP3    H177147   4.935   3.681   0.768 -2.8151 -1.1965  0.9545
18552TIP3    H277148   4.955   3.795   0.671  2.9164 -2.5499  0.1831
18553TIP3   OH277149   2.223   4.403   2.208 -0.2380 -0.1304  0.3868
18553TIP3    H177150   2.182   4.479   2.249 -1.1012 -0.2676 -0.2027
18553TIP3    H277151   2.190   4.403   2.118  1.8206  0.3203 -0.4195
18554TIP3   OH277152   6.299   4.979  12.492  0.3308 -0.1041  0.4280
18554TIP3    H177153   6.369   5.044  12.502 -0.0969  0.1784  1.7114
18554TIP3    H277154   6.290   4.969  12.397  1.6498  0.3465  0.2251
18555TIP3   OH277155   5.182   3.082   2.978  0.1960  0.4388 -0.2628
18555TIP3    H177156   5.117   3.023   2.939  1.8939 -1.3060 -0.6001
18555TIP3    H277157   5.191   3.052   3.068  1.6626 -0.4171 -0.6620
18556TIP3   OH277158   6.231   6.657   1.622  0.3727  0.6534  0.0511
18556TIP3    H177159   6.235   6.672   1.528 -1.5017  2.5728  0.2020
18556TIP3    H277160   6.241   6.562   1.632  0.3936  0.3920 -2.0901
18557TIP3   OH277161   4.948   2.755   3.585  0.2844 -0.6440 -0.7312
18557TIP3    H177162   4.934   2.841   3.546 -1.9192  0.1393  1.5287
18557TIP3    H277163   4.860   2.718   3.593  1.0912 -2.6564 -0.6187
18558TIP3   OH277164   5.089   3.263  12.143 -0.1266  0.1964 -0.5917
18558TIP3    H177165   5.110   3.171  12.129 -2.1236 -0.6273  1.3135
18558TIP3    H277166   4.998   3.263  12.174  0.3331  2.6381  1.0587
18559TIP3   OH277167   0.626   3.881  11.701  0.1930  0.2737 -0.0545
18559TIP3    H177168   0.659   3.958  11.654  0.5244  1.1015  1.4620
18559TIP3    H277169   0.690   3.866  11.771 -0.4706 -0.6759  0.3781
18560TIP3   OH277170   6.727   2.111  11.559  0.2051 -0.1235 -0.2284
18560TIP3    H177171   6.656   2.125  11.622 -0.2072  0.4109 -0.8098
18560TIP3    H277172   6.751   2.019  11.570 -0.2212 -0.1692  0.3374
18561TIP3   OH277173   3.305   4.121   1.354  0.1213  0.5989  0.1496
18561TIP3    H177174   3.334   4.186   1.290  0.8998  0.7357  0.6260
18561TIP3    H277175   3.247   4.063   1.305 -0.0798  1.2825 -0.4352
18562TIP3   OH277176   6.110   3.327  15.032  0.2795 -0.0401  0.1520
18562TIP3    H177177   6.100   3.232  15.029 -1.0553  0.1081 -2.6681
18562TIP3    H277178   6.077   3.352  15.119 -0.5198 -2.0223  0.4608
18563TIP3   OH277179   0.274   2.172   2.029 -0.0782 -0.2135 -0.7474
18563TIP3    H177180   0.224   2.190   1.950  0.0074  1.3024 -0.4752
18563TIP3    H277181   0.359   2.142   1.998 -1.2267 -3.3847 -1.2269
18564TIP3   OH277182   1.772   5.486  13.260  0.1355 -0.3655 -0.1248
18564TIP3    H177183   1.854   5.455  13.298  0.2182 -1.4473 -1.1300
18564TIP3    H277184   1.762   5.575  13.295  1.4682 -0.3992  0.4196
18565TIP3   OH277185   0.875   4.910  14.166  0.2200 -0.1764  0.4221
18565TIP3    H177186   0.916   4.910  14.253 -0.4362 -0.7823  0.7418
18565TIP3    H277187   0.875   4.818  14.140  1.0663  0.0833 -0.5469
18566TIP3   OH277188   3.994   3.199  16.530  0.5300 -0.1585  0.0006
18566TIP3    H177189   4.081   3.235  16.549  0.1873  0.9922 -0.5250
18566TIP3    H277190   4.008   3.104  16.526  1.6781 -0.0209  0.3323
18567TIP3   OH277191   5.414   0.105   3.257  0.1390  0.0071  0.0775
18567TIP3    H177192   5.497   0.115   3.212  1.1727  2.1358  2.2181
18567TIP3    H277193   5.437   0.070   3.343 -1.1448  0.7498  0.7550
18568TIP3   OH277194   4.817   0.246   5.485  0.6256 -0.3605 -0.0388
18568TIP3    H177195   4.835   0.292   5.403  0.3794  0.3049  0.2715
18568TIP3    H277196   4.737   0.196   5.467 -0.7648  1.5541  0.4485
18569TIP3   OH277197   3.323   6.211   4.484  0.2727  0.0118  0.1319
18569TIP3    H177198   3.236   6.170   4.488  0.2826  0.0969  1.9009
18569TIP3    H277199   3.333   6.254   4.569  1.3235  1.5226 -0.7125
18570TIP3   OH277200   3.554   3.640   6.612  0.3231  0.3503 -0.6940
18570TIP3    H177201   3.632   3.586   6.598  0.3707 -0.2483  1.4766
18570TIP3    H277202   3.578   3.726   6.580  1.4464 -0.1226 -1.1844
18571TIP3   OH277203   0.895   5.741  11.914  0.1326 -0.1775  0.3719
18571TIP3    H177204   0.907   5.773  12.004 -1.3365 -0.3811  0.6596
18571TIP3    H277205   0.956   5.794  11.862 -0.3577  1.2752  1.2165
18572TIP3   OH277206   5.423   0.328  16.925  0.3573  0.3219 -0.8400
18572TIP3    H177207   5.507   0.292  16.899  0.5182  0.5334 -0.6190
18572TIP3    H277208   5.433   0.422  16.912  0.9715  0.6244  1.3886
18573TIP3   OH277209   3.448   3.392   3.641  0.4477 -0.0786  0.0832
18573TIP3    H177210   3.416   3.482   3.637  0.5505 -0.0007  0.8677
18573TIP3    H277211   3.543   3.400   3.641  0.4571 -0.1871  0.1646
18574TIP3   OH277212   1.451   5.173  14.724  0.0925  0.0566  0.2422
18574TIP3    H177213   1.477   5.109  14.657  0.0052  0.1699  0.1017
18574TIP3    H277214   1.509   5.248  14.709 -0.3540  0.3379 -0.1143
18575TIP3   OH277215   6.724   0.206  15.756 -0.2997 -0.0809  0.4207
18575TIP3    H177216   6.692   0.290  15.723  0.3005 -0.1060 -0.2440
18575TIP3    H277217   6.741   0.154  15.677  4.3924  0.9938  0.4189
18576TIP3   OH277218   1.213   2.672  11.710 -0.2716  0.4212  0.2856
18576TIP3    H177219   1.239   2.584  11.737 -0.3814  1.0741  2.7574
18576TIP3    H277220   1.164   2.707  11.785 -0.7390  2.3800 -0.8624
18577TIP3   OH277221   3.240   4.111   0.544  0.2311  0.3761 -0.1938
18577TIP3    H177222   3.313   4.099   0.484  0.8367  0.5156  0.5073
18577TIP3    H277223   3.260   4.055   0.619  0.7222  2.0397  0.9776
18578TIP3   OH277224   3.817   0.186  13.318 -0.0061 -0.2048 -0.5011
18578TIP3    H177225   3.894   0.139  13.352 -0.2015 -0.7412 -0.7852
18578TIP3    H277226   3.843   0.278  13.318  0.6763 -0.3902 -0.6768
18579TIP3   OH277227   3.493   6.763   4.056  0.0956  0.2069  0.0661
18579TIP3    H177228   3.535   6.768   3.970  1.0437  0.7977  0.5477
18579TIP3    H277229   3.553   6.809   4.115 -1.4554  1.5384  0.6915
18580TIP3   OH277230   0.175   5.711  16.561  0.0515  0.0912 -0.0786
18580TIP3    H177231   0.266   5.700  16.591  0.0826 -2.0533 -0.7926
18580TIP3    H277232   0.126   5.729  16.641  0.9713  0.3427  0.4464
18581TIP3   OH277233   3.455   3.014  12.317  0.1485  0.3581 -0.0363
18581TIP3    H177234   3.495   3.038  12.401 -1.9257  1.8606  0.6227
18581TIP3    H277235   3.480   3.085  12.258 -1.0218  1.0398  0.2451
18582TIP3   OH277236   3.853   3.065   2.411 -0.3668 -0.6994  0.3365
18582TIP3    H177237   3.770   3.101   2.442 -0.1858  0.5210 -0.5311
18582TIP3    H277238   3.895   3.029   2.489 -1.1284 -0.1516  1.0066
18583TIP3   OH277239   6.709   3.055  13.199 -0.4998  0.1848 -0.0138
18583TIP3    H177240   6.709   3.092  13.287 -2.6981 -1.9739  0.9971
18583TIP3    H277241   6.800   3.064  13.169 -0.1766  3.0647  1.4744
18584TIP3   OH277242   0.427   2.177   2.873 -0.0039  0.1525 -0.2320
18584TIP3    H177243   0.364   2.109   2.898  1.6312 -1.1106  0.6908
18584TIP3    H277244   0.380   2.233   2.811 -1.4371 -1.8163 -1.0133
18585TIP3   OH277245   5.178   4.565  12.796  0.0484 -0.3254 -0.5661
18585TIP3    H177246   5.238   4.537  12.727  0.0519 -1.7618 -0.0162
18585TIP3    H277247   5.235   4.602  12.864 -0.0711  2.9621 -2.0640
18586TIP3   OH277248   0.696   3.284  13.217  0.0974  1.0773 -0.4761
18586TIP3    H177249   0.648   3.347  13.162  1.2090 -0.6977 -3.7640
18586TIP3    H277250   0.788   3.309  13.208  0.2618  1.2038  1.3063
18587TIP3   OH277251   0.937   1.803  12.687 -0.2882 -0.2587  0.9766
18587TIP3    H177252   0.867   1.810  12.622 -0.5674 -1.2548  1.1424
18587TIP3    H277253   0.900   1.842  12.766  0.4357  1.9304  0.2850
18588TIP3   OH277254   5.119   2.556   3.660 -0.2203 -0.2756  0.4797
18588TIP3    H177255   5.050   2.618   3.637  0.9688  0.6365 -0.8699
18588TIP3    H277256   5.107   2.540   3.753 -2.1290 -0.0321  0.3153
18589TIP3   OH277257   3.585   5.112   2.113 -0.1992 -0.4368  0.8326
18589TIP3    H177258   3.502   5.157   2.099  0.2345  0.2800  0.4626
18589TIP3    H277259   3.580   5.078   2.202 -0.9312 -0.4985  0.7681
18590TIP3   OH277260   5.345   2.810   1.485 -0.7818  0.0380 -0.2917
18590TIP3    H177261   5.250   2.820   1.494 -0.5925  1.5653  0.2398
18590TIP3    H277262   5.379   2.825   1.574  0.0185  0.3652 -0.6496
18591TIP3   OH277263   5.604   2.019  13.698  0.0034 -0.1155  0.3476
18591TIP3    H177264   5.684   2.061  13.666 -0.0406  0.9825  1.5758
18591TIP3    H277265   5.534   2.065  13.653 -0.0029  0.3877  0.8614
18592TIP3   OH277266   6.800   0.957   2.312  0.6392  0.3043 -0.2110
18592TIP3    H177267   6.733   0.984   2.250  0.0214  2.6617  1.3530
18592TIP3    H277268   6.836   0.876   2.275 -0.0884  1.2607 -3.2918
18593TIP3   OH277269   3.437   6.729   2.676 -0.2436  0.2170 -0.8682
18593TIP3    H177270   3.434   6.766   2.764 -1.0740  1.0568 -1.2345
18593TIP3    H277271   3.346   6.731   2.646 -0.0177 -0.3536 -1.6340
18594TIP3   OH277272   1.105   2.607   0.403  1.0990  0.3203  0.5507
18594TIP3    H177273   1.173   2.675   0.405 -0.0911  1.5472  1.7743
18594TIP3    H277274   1.037   2.639   0.462 -1.0316 -0.3618 -1.3585
18595TIP3   OH277275   1.161   5.028   4.647  0.1350 -0.2727  0.3133
18595TIP3    H177276   1.216   4.958   4.612 -1.0923 -1.3363  0.4542
18595TIP3    H277277   1.201   5.108   4.613  0.6051 -1.1139 -1.2453
18596TIP3   OH277278   1.601   6.443  12.866 -0.0283  0.8808 -0.3261
18596TIP3    H177279   1.590   6.537  12.882  0.2179  1.0715 -1.2470
18596TIP3    H277280   1.695   6.429  12.871 -0.1691 -0.1453  4.1698
18597TIP3   OH277281   4.678   0.352  14.807 -0.6782  0.7250 -0.0925
18597TIP3    H177282   4.659   0.258  14.817 -0.7001  0.7628  0.2468
18597TIP3    H277283   4.742   0.356  14.736 -1.2968  0.5260 -0.6723
18598TIP3   OH277284   0.135   1.951   1.846 -0.2260 -0.2190  0.2921
18598TIP3    H177285   0.197   1.882   1.821 -0.3741  0.4984 -2.4622
18598TIP3    H277286   0.126   2.004   1.766 -4.6151 -0.4413  0.4109
18599TIP3   OH277287   3.073   2.956  11.348  0.3023 -0.1576 -0.0110
18599TIP3    H177288   3.140   3.011  11.388  0.8063 -0.3967 -0.4997
18599TIP3    H277289   3.115   2.870  11.341 -0.7968 -0.8615  1.5978
18600TIP3   OH277290   6.722   0.383   0.878 -0.3489  0.0291 -0.1879
18600TIP3    H177291   6.738   0.422   0.964 -1.2140 -1.2413  0.5789
18600TIP3    H277292   6.798   0.327   0.863 -0.7794 -0.7076  0.3300
18601TIP3   OH277293   6.690   4.720   3.175  0.1403 -0.1686  0.4154
18601TIP3    H177294   6.780   4.749   3.162  0.3870 -1.1496 -0.2101
18601TIP3    H277295   6.697   4.625   3.188 -0.6286 -0.0026  2.3632
18602TIP3   OH277296   6.625   2.146   1.972 -0.8061 -0.1436  0.1000
18602TIP3    H177297   6.607   2.236   1.999 -0.1689 -0.0808  0.3473
18602TIP3    H277298   6.699   2.119   2.027  1.5692  0.4970 -2.5322
18603TIP3   OH277299   5.346   3.376   5.235 -0.4633  0.4387 -0.1453
18603TIP3    H177300   5.427   3.386   5.285 -0.4755  0.4019 -0.1180
18603TIP3    H277301   5.293   3.317   5.288 -0.0112 -0.5331 -0.7491
18604TIP3   OH277302   4.779   2.309  13.473  0.1932  0.3079 -0.1035
18604TIP3    H177303   4.828   2.345  13.399  1.5633  0.2073  0.7393
18604TIP3    H277304   4.767   2.217  13.451  1.2293  0.1100  0.1145
18605TIP3   OH277305   3.454   3.250   0.978 -0.2836  0.4353  0.0090
18605TIP3    H177306   3.544   3.282   0.985 -0.5545  1.2992 -0.2944
18605TIP3    H277307   3.420   3.291   0.898  0.1315 -2.5907 -1.8768
18606TIP3   OH277308   4.281   4.178  12.375  0.2717 -0.1099 -0.1122
18606TIP3    H177309   4.371   4.163  12.346  0.9086  0.0079  1.6298
18606TIP3    H277310   4.239   4.092  12.372  1.4759 -0.8725  2.1636
18607TIP3   OH277311   6.058   3.330  16.771  0.0924  0.5087 -0.7769
18607TIP3    H177312   5.970   3.314  16.806 -0.2574  0.5434 -1.6259
18607TIP3    H277313   6.057   3.422  16.745 -0.9472 -0.3243 -4.3261
18608TIP3   OH277314   4.502   5.019   5.677  0.4162  0.1119  0.0090
18608TIP3    H177315   4.564   5.058   5.738  0.9776  1.3704 -1.3237
18608TIP3    H277316   4.530   4.927   5.670  1.3748  0.3676  0.3374
18609TIP3   OH277317   6.842   0.997  12.815 -0.1434  0.2923  0.1074
18609TIP3    H177318   6.873   1.077  12.858  0.6229 -0.1268  0.3518
18609TIP3    H277319   6.803   0.946  12.886  1.9547 -0.8166  0.5556
18610TIP3   OH277320   0.283   1.570  13.490 -0.1482 -0.0473 -0.1616
18610TIP3    H177321   0.378   1.578  13.481  0.0245 -0.2543  1.2352
18610TIP3    H277322   0.254   1.659  13.509  0.0456 -0.2962  1.4523
18611TIP3   OH277323   0.116   2.306   3.539  0.7041 -0.5204 -0.2216
18611TIP3    H177324   0.033   2.345   3.511  0.4440 -0.8826  0.0247
18611TIP3    H277325   0.139   2.246   3.468  1.1064  0.0758 -0.6024
18612TIP3   OH277326   0.684   4.397   4.760  0.1889  0.5721  0.6619
18612TIP3    H177327   0.658   4.315   4.803 -0.3254  0.2787 -0.1878
18612TIP3    H277328   0.662   4.465   4.824  2.0556 -0.0241  2.0243
18613TIP3   OH277329   0.351   0.991   0.959  0.2495  0.1878 -0.5127
18613TIP3    H177330   0.282   1.022   0.901 -0.1307  0.1543 -0.0899
18613TIP3    H277331   0.306   0.930   1.019  0.5663  0.4602  0.0102
18614TIP3   OH277332   4.418   4.768  13.193 -0.0283 -0.1483 -0.3063
18614TIP3    H177333   4.417   4.702  13.123 -0.9148 -1.4104  0.8451
18614TIP3    H277334   4.463   4.726  13.266  1.6905  1.4683 -0.3471
18615TIP3   OH277335   5.575   2.448  14.817  0.4626  0.2698  0.1691
18615TIP3    H177336   5.625   2.516  14.773  1.9566  0.1790  1.6419
18615TIP3    H277337   5.598   2.368  14.770 -0.3527  0.5810 -0.7938
18616TIP3   OH277338   3.011   1.182  11.029  0.2254  0.0703 -0.1291
18616TIP3    H177339   3.014   1.088  11.047  0.4160  0.3108  1.1910
18616TIP3    H277340   3.097   1.214  11.053 -0.0962  0.7116  0.1827
18617TIP3   OH277341   4.603   5.481  11.425 -0.2610  0.2121 -0.7854
18617TIP3    H177342   4.644   5.433  11.497  0.1892  2.2702  0.4044
18617TIP3    H277343   4.538   5.420  11.389 -1.2398 -0.5531  2.0279
18618TIP3   OH277344   3.549   0.032  16.272  0.0601  0.0194  0.4297
18618TIP3    H177345   3.567   0.074  16.188  0.6106  1.1310  1.0786
18618TIP3    H277346   3.586  -0.056  16.263 -1.0015 -0.3274 -0.9092
18619TIP3   OH277347   3.482   3.597   0.611  0.0883 -0.3586 -0.0167
18619TIP3    H177348   3.474   3.641   0.527  0.3074  0.8923  0.5854
18619TIP3    H277349   3.569   3.621   0.643 -0.3992  0.0884  1.0353
18620TIP3   OH277350   3.983   4.132   2.973  0.9263 -0.7381  0.1635
18620TIP3    H177351   3.946   4.064   2.918 -0.7883 -0.1668  0.5202
18620TIP3    H277352   4.060   4.163   2.926 -0.0981 -0.7209 -1.5811
18621TIP3   OH277353   6.245   0.438   5.920 -0.4288 -0.2039 -0.7891
18621TIP3    H177354   6.193   0.518   5.919 -0.3697 -0.1414  0.4042
18621TIP3    H277355   6.187   0.372   5.958  0.5978  0.0693  1.4137
18622TIP3   OH277356   1.653   0.509  15.723  0.4457 -0.0802  0.0568
18622TIP3    H177357   1.618   0.510  15.812 -1.7695  1.9975 -0.7556
18622TIP3    H277358   1.577   0.496  15.667  1.5261  0.5608 -1.6283
18623TIP3   OH277359   3.015   5.938  10.869 -0.1598 -0.3221 -0.3458
18623TIP3    H177360   3.091   5.978  10.827  0.3208 -0.4563  0.3855
18623TIP3    H277361   2.949   5.934  10.799  0.4318 -0.0346 -0.9367
18624TIP3   OH277362   4.730   0.181   0.030 -0.4606 -0.1694  0.2766
18624TIP3    H177363   4.811   0.155  -0.013  0.9386  0.1418  2.5939
18624TIP3    H277364   4.730   0.276   0.026 -1.3925 -0.1848 -0.7992
18625TIP3   OH277365   0.198   1.016   2.101  0.6611 -0.3422  0.3583
18625TIP3    H177366   0.179   1.022   2.007 -1.0171 -0.8225  0.6290
18625TIP3    H277367   0.248   0.936   2.111 -1.0806 -1.5149  0.1000
18626TIP3   OH277368   1.419   2.258  14.202 -0.0929 -0.0969  0.0428
18626TIP3    H177369   1.444   2.350  14.199  0.8592 -0.3023  1.1143
18626TIP3    H277370   1.482   2.214  14.145  0.7763 -0.3482  1.1724
18627TIP3   OH277371   2.130   3.098  17.017 -0.2874 -0.5798  0.7493
18627TIP3    H177372   2.090   3.038  16.953  1.8816 -0.1281 -1.1641
18627TIP3    H277373   2.102   3.185  16.990 -1.2206 -0.5174  1.8617
18628TIP3   OH277374   1.850   4.282   3.617  0.3950  0.1061 -0.2569
18628TIP3    H177375   1.814   4.292   3.529 -0.9277 -1.5647  0.0665
18628TIP3    H277376   1.930   4.230   3.605 -0.3276 -1.0009 -0.3891
18629TIP3   OH277377   1.654   2.233  10.966  0.3993 -0.3411 -0.0975
18629TIP3    H177378   1.649   2.300  11.033 -1.7895 -1.0463  0.5343
18629TIP3    H277379   1.614   2.273  10.889  0.6731 -0.3442 -0.2406
18630TIP3   OH277380   5.959   2.206  13.167  0.1775  0.0874  0.2185
18630TIP3    H177381   5.926   2.261  13.239  0.5838  1.0000 -0.2790
18630TIP3    H277382   6.049   2.185  13.192  0.7763  1.5197 -0.6249
18631TIP3   OH277383   0.393   0.012   3.466 -0.8909 -0.2557  0.5858
18631TIP3    H177384   0.320  -0.011   3.408 -0.2705  1.7859 -1.1573
18631TIP3    H277385   0.382   0.106   3.482  0.7937 -0.1137  1.1003
18632TIP3   OH277386   3.765   5.378  15.702 -0.0315  0.1555  0.8802
18632TIP3    H177387   3.757   5.306  15.640  3.3046 -0.7305  1.3239
18632TIP3    H277388   3.821   5.442  15.659 -0.5519  1.1730  1.6530
18633TIP3   OH277389   0.514   6.096   1.799 -0.3831  0.4350  0.0140
18633TIP3    H177390   0.488   6.018   1.847  1.1936  0.2907  0.6835
18633TIP3    H277391   0.473   6.086   1.713  1.3333 -2.1557 -0.6328
18634TIP3   OH277392   6.318   3.361   5.184 -0.1459 -0.2319 -0.3401
18634TIP3    H177393   6.301   3.277   5.143 -1.8995 -0.8816  1.5537
18634TIP3    H277394   6.233   3.404   5.189  0.5273  1.1640 -0.1987
18635TIP3   OH277395   5.300   1.838   3.619 -0.1141 -0.4661  0.3675
18635TIP3    H177396   5.268   1.885   3.696 -1.6084 -0.0432 -0.4694
18635TIP3    H277397   5.373   1.891   3.587 -0.9683  0.6495  0.1727
18636TIP3   OH277398   4.529   1.410   2.609 -0.3564  0.0364 -0.5133
18636TIP3    H177399   4.580   1.444   2.683  0.3867 -2.0243 -0.0237
18636TIP3    H277400   4.571   1.448   2.532  0.2667  0.4443  0.0163
18637TIP3   OH277401   0.405   6.562  11.468 -0.4955 -0.3231 -0.3230
18637TIP3    H177402   0.337   6.572  11.534 -1.0813 -1.6521 -0.6840
18637TIP3    H277403   0.465   6.634  11.484 -1.6516  0.5160  0.4114
18638TIP3   OH277404   5.177   4.400  12.489  0.5017 -0.3667 -0.4395
18638TIP3    H177405   5.127   4.481  12.481  1.3745  0.2281 -0.0047
18638TIP3    H277406   5.262   4.428  12.523  0.1729 -1.6730  1.6363
18639TIP3   OH277407   6.318   0.244   5.625  0.3004  0.0495  0.0159
18639TIP3    H177408   6.407   0.223   5.654  0.7811  1.1573 -0.6091
18639TIP3    H277409   6.272   0.269   5.705  0.8121  0.3776  0.2096
18640TIP3   OH277410   5.636   5.848  14.736  0.0899 -0.1538  0.2265
18640TIP3    H177411   5.565   5.912  14.727  1.2360  1.2070  0.6012
18640TIP3    H277412   5.701   5.891  14.791  2.7119 -0.0109 -2.7056
18641TIP3   OH277413   5.566   2.141  10.733  0.0171  0.2798 -0.3203
18641TIP3    H177414   5.491   2.095  10.695  0.6939 -2.3660  1.2696
18641TIP3    H277415   5.635   2.074  10.737  0.6289  0.9054  3.5092
18642TIP3   OH277416   2.170   3.053   4.427 -0.0627  0.1131  0.6464
18642TIP3    H177417   2.097   3.106   4.393 -1.9442 -2.0799  0.9852
18642TIP3    H277418   2.193   3.095   4.510  0.3827  1.9175 -0.3307
18643TIP3   OH277419   0.543   6.377  12.158 -0.5061 -0.2517  0.4398
18643TIP3    H177420   0.450   6.356  12.166 -0.4280 -0.6371  0.3632
18643TIP3    H277421   0.571   6.398  12.247 -0.6417 -0.2487  0.4817
18644TIP3   OH277422   2.976   0.399  11.453 -0.1184  0.0090 -0.2905
18644TIP3    H177423   2.936   0.326  11.499  2.1450 -0.5867  0.8904
18644TIP3    H277424   2.971   0.374  11.360 -2.1538 -0.1373 -0.1695
18645TIP3   OH277425   6.364   5.733   4.567 -0.2938  0.1756 -0.6367
18645TIP3    H177426   6.320   5.683   4.497 -1.0563  2.2505 -1.7138
18645TIP3    H277427   6.303   5.804   4.588  1.0250  1.0490  0.3821
18646TIP3   OH277428   3.916   0.433  13.329  0.0601  0.1652 -0.1434
18646TIP3    H177429   3.994   0.412  13.278  0.6411  1.3294  0.2468
18646TIP3    H277430   3.892   0.521  13.303 -0.2545  0.3799  0.8158
18647TIP3   OH277431   6.088   2.034   4.839  0.1321 -0.2008  0.0577
18647TIP3    H177432   6.077   2.108   4.899  0.3470 -0.5795  0.5722
18647TIP3    H277433   6.121   1.963   4.894 -0.6723 -0.8739 -0.3105
18648TIP3   OH277434   3.884   2.464   1.069 -0.1573 -0.4079  0.2400
18648TIP3    H177435   3.821   2.523   1.028  0.4663  0.1107  0.0010
18648TIP3    H277436   3.966   2.514   1.069 -0.2519 -0.0869  2.7572
18649TIP3   OH277437   5.742   3.916   1.508 -0.3660  0.3179 -0.4196
18649TIP3    H177438   5.809   3.975   1.473 -0.3146 -0.9100 -2.5479
18649TIP3    H277439   5.709   3.869   1.431 -1.6114 -1.2058  0.9822
18650TIP3   OH277440   3.179   5.432  13.331  0.0926  0.0912  0.4319
18650TIP3    H177441   3.262   5.402  13.368  0.9427  0.7985 -0.8308
18650TIP3    H277442   3.142   5.355  13.290  1.7958  0.4337 -1.9435
18651TIP3   OH277443   0.327   5.667  16.276 -0.0008 -0.6090 -0.1621
18651TIP3    H177444   0.239   5.688  16.307 -0.1541 -1.9521  0.3738
18651TIP3    H277445   0.345   5.733  16.208 -0.8427  0.5345  0.6935
18652TIP3   OH277446   0.342   4.092  11.852 -0.9802 -0.5028 -0.5157
18652TIP3    H177447   0.405   4.081  11.781 -0.5511  0.3168 -0.2727
18652TIP3    H277448   0.257   4.096  11.808 -0.8240 -1.0484 -0.8895
18653TIP3   OH277449   0.438   0.029   1.313  0.2469 -0.2564  0.6479
18653TIP3    H177450   0.494   0.033   1.391  0.9144 -0.2876  0.1812
18653TIP3    H277451   0.392  -0.054   1.320  1.3290 -0.9078  0.3338
18654TIP3   OH277452   2.408   6.709  13.684 -0.0968  0.0862 -0.1441
18654TIP3    H177453   2.503   6.697  13.681 -0.4555 -4.7837 -1.6082
18654TIP3    H277454   2.381   6.667  13.765 -1.1388 -2.6523 -1.7658
18655TIP3   OH277455   4.942   3.142  16.951 -0.0780 -0.3803  0.1433
18655TIP3    H177456   4.955   3.081  17.024  1.1692 -0.9522 -0.5200
18655TIP3    H277457   4.881   3.096  16.892  0.6635 -0.9029 -0.2347
18656TIP3   OH277458   0.355   4.472  14.363  0.1375 -0.4628  0.2614
18656TIP3    H177459   0.362   4.488  14.457 -1.5770  3.9708 -0.1496
18656TIP3    H277460   0.278   4.417  14.353  0.3099 -0.9299  1.4278
18657TIP3   OH277461   4.478   0.276  15.512  0.0987 -0.6257 -0.0036
18657TIP3    H177462   4.552   0.267  15.452 -0.5911 -0.3885 -0.9105
18657TIP3    H277463   4.401   0.284  15.455 -0.4640  0.6296  0.8833
18658TIP3   OH277464   1.476   3.836  15.623 -0.1744 -0.0941 -0.5857
18658TIP3    H177465   1.544   3.807  15.563  0.2125 -0.7860  0.1683
18658TIP3    H277466   1.420   3.759  15.635 -0.5328  0.1823 -0.4497
18659TIP3   OH277467   4.367   0.341   1.413  0.4175 -0.0584 -0.1765
18659TIP3    H177468   4.369   0.297   1.498 -0.6257 -0.9180 -0.5794
18659TIP3    H277469   4.416   0.282   1.355 -3.9952 -2.7813 -1.6072
18660TIP3   OH277470   1.679   1.533   5.811  0.1100  0.3744 -0.3064
18660TIP3    H177471   1.721   1.465   5.864  0.4430 -0.4504 -1.6049
18660TIP3    H277472   1.631   1.586   5.875  0.4285 -0.6460  0.8162
18661TIP3   OH277473   5.389   3.884  16.077  0.2049 -0.1038 -0.6410
18661TIP3    H177474   5.342   3.893  15.995  0.5173 -2.9497 -1.2651
18661TIP3    H277475   5.323   3.896  16.145 -0.5316  0.1040 -1.3863
18662TIP3   OH277476   4.896   5.620  15.606  0.6316 -0.0405  0.7178
18662TIP3    H177477   4.914   5.650  15.517  0.8652 -0.7488  0.5242
18662TIP3    H277478   4.853   5.695  15.648  2.7143  1.1850  0.7706
18663TIP3   OH277479   5.162   6.243  12.840  0.2225 -0.0048  0.6898
18663TIP3    H177480   5.114   6.320  12.870 -1.4720 -0.1462 -1.3846
18663TIP3    H277481   5.254   6.265  12.852 -0.1920  2.5890 -0.2948
18664TIP3   OH277482   2.041   2.715  16.164 -0.1078  0.4589 -0.3446
18664TIP3    H177483   1.976   2.648  16.184 -1.5779  1.5933 -1.1148
18664TIP3    H277484   2.121   2.685  16.207 -1.4038 -0.4591  1.5566
18665TIP3   OH277485   6.559   4.426  13.930 -0.8659 -0.0369  0.3985
18665TIP3    H177486   6.629   4.442  13.993 -0.7374 -1.1480  0.5606
18665TIP3    H277487   6.481   4.413  13.984 -1.2935  1.5074  0.2066
18666TIP3   OH277488   5.462   4.234   5.837  0.1010 -0.2638 -0.0663
18666TIP3    H177489   5.389   4.192   5.883  0.1201  0.1810  0.3795
18666TIP3    H277490   5.490   4.305   5.896  0.7338 -0.2773 -0.3463
18667TIP3   OH277491   5.829   5.931   5.100 -0.0054 -0.2210  0.4779
18667TIP3    H177492   5.756   5.950   5.158  0.3251  1.2354  0.4385
18667TIP3    H277493   5.870   6.015   5.084  1.0827 -0.8760 -0.3162
18668TIP3   OH277494   3.102   3.356  12.951  0.8670 -0.2589 -0.1065
18668TIP3    H177495   3.053   3.418  12.898 -0.0020 -0.3263  0.5967
18668TIP3    H277496   3.082   3.270  12.913  1.6567 -0.1656 -0.7562
18669TIP3   OH277497   3.070   2.708   2.278  0.6429  0.1534  1.0850
18669TIP3    H177498   3.008   2.768   2.236 -0.1840  0.3281  2.5029
18669TIP3    H277499   3.154   2.730   2.239 -0.3911 -1.6768 -2.6938
18670TIP3   OH277500   3.462   5.249  16.758  0.7569 -0.4226  0.2239
18670TIP3    H177501   3.424   5.330  16.723  1.1057 -0.1339  0.4971
18670TIP3    H277502   3.415   5.179  16.714  1.3307 -0.0712 -1.0176
18671TIP3   OH277503   2.541   3.368   5.494  0.5114 -0.4116 -0.2036
18671TIP3    H177504   2.594   3.420   5.433  0.2946 -0.7824 -0.7130
18671TIP3    H277505   2.530   3.283   5.450  1.6346 -1.2233  1.0027
18672TIP3   OH277506   1.720   0.502   5.883 -0.0275  0.5636  0.1638
18672TIP3    H177507   1.736   0.566   5.814  1.3587 -1.3963 -1.4824
18672TIP3    H277508   1.748   0.545   5.964  1.2760  1.8776 -0.9343
18673TIP3   OH277509   3.429   5.191   0.496  0.4815 -0.2762 -0.4487
18673TIP3    H177510   3.495   5.185   0.565  0.8441  0.8235 -0.6764
18673TIP3    H277511   3.480   5.189   0.414  0.1746 -0.1315 -0.6442
18674TIP3   OH277512   1.387   1.190  11.833  0.2570 -0.5202 -0.5043
18674TIP3    H177513   1.298   1.193  11.868  0.4222 -0.7861 -0.0651
18674TIP3    H277514   1.410   1.098  11.834  0.9946 -0.3333  0.5233
18675TIP3   OH277515   2.844   0.573   1.301  0.1602  0.1159  0.1355
18675TIP3    H177516   2.905   0.615   1.361 -2.0547  0.4534  2.3530
18675TIP3    H277517   2.789   0.644   1.269 -0.0896 -0.3712 -0.5381
18676TIP3   OH277518   3.235   4.825  15.646  0.0618 -0.5916  0.0641
18676TIP3    H177519   3.254   4.908  15.602  1.7941 -1.4253 -0.8841
18676TIP3    H277520   3.254   4.841  15.738 -0.3301  0.2458  0.0108
18677TIP3   OH277521   0.863   4.257   0.151  0.1441  0.2339  0.0582
18677TIP3    H177522   0.804   4.332   0.149  1.2960  1.1892  0.6770
18677TIP3    H277523   0.806   4.181   0.138 -0.7599  1.3202 -3.4702
18678TIP3   OH277524   6.172   6.372   4.826  0.3244 -0.0372  0.3208
18678TIP3    H177525   6.249   6.415   4.862 -0.3195  1.4257  0.0550
18678TIP3    H277526   6.100   6.403   4.881 -0.1906 -0.6980  0.0333
18679TIP3   OH277527   5.467   3.109   4.108  0.5253 -0.6478  0.1325
18679TIP3    H177528   5.520   3.043   4.153 -1.1261 -1.9960  0.2023
18679TIP3    H277529   5.525   3.144   4.040  2.0546 -0.7782  1.3105
18680TIP3   OH277530   1.852   3.968   2.224 -0.3537  0.2979  0.2692
18680TIP3    H177531   1.925   3.967   2.286 -0.0016 -1.0869 -0.1315
18680TIP3    H277532   1.891   3.941   2.140 -1.6473 -2.5884  0.4904
18681TIP3   OH277533   3.669   3.977   3.826 -0.0734 -0.3380 -0.4120
18681TIP3    H177534   3.623   3.954   3.745  0.8546 -0.5412 -0.8952
18681TIP3    H277535   3.762   3.971   3.803  0.2294 -1.4268  0.9392
18682TIP3   OH277536   4.653   3.027   5.361  0.1721 -0.1700  0.0491
18682TIP3    H177537   4.564   3.010   5.329  0.2087 -0.4341  0.0823
18682TIP3    H277538   4.709   2.980   5.299  0.3497  0.7779 -0.5293
18683TIP3   OH277539   3.993   3.184  14.194  0.0598  0.2273  1.1485
18683TIP3    H177540   4.088   3.196  14.194  0.0778  0.0888  0.9003
18683TIP3    H277541   3.975   3.138  14.112 -0.4199  1.8374  0.2992
18684TIP3   OH277542   1.344   0.088   4.217  0.3873  0.4537  0.4186
18684TIP3    H177543   1.260   0.049   4.242  0.8237 -0.7234  0.0796
18684TIP3    H277544   1.337   0.104   4.123  0.7016 -0.0792  0.2990
18685TIP3   OH277545   3.571   5.692   4.839 -0.4267  0.5129  0.2471
18685TIP3    H177546   3.515   5.751   4.888 -0.3515 -0.3707  1.4494
18685TIP3    H277547   3.521   5.672   4.760 -0.3213  2.3784 -0.3361
18686TIP3   OH277548   0.281   4.803   1.807  0.5849 -0.3055 -0.3244
18686TIP3    H177549   0.321   4.884   1.773  0.2823 -0.4478 -1.0463
18686TIP3    H277550   0.271   4.818   1.900 -1.1681  1.2349 -0.7137
18687TIP3   OH277551   2.609   5.729  12.268 -0.6122 -0.0799  0.2567
18687TIP3    H177552   2.569   5.808  12.306 -1.1271 -0.6982  1.0342
18687TIP3    H277553   2.655   5.689  12.341  1.3355  0.5206 -0.5828
18688TIP3   OH277554   3.029   4.016   1.370 -0.2960  0.0960 -0.7651
18688TIP3    H177555   2.992   4.095   1.410  1.5720 -0.2307  1.9548
18688TIP3    H277556   2.953   3.964   1.344 -1.6856  1.0885  1.0460
18689TIP3   OH277557   4.993   1.067  11.346  0.0185 -0.5233  0.1429
18689TIP3    H177558   4.904   1.072  11.311 -0.9416 -1.0355  2.3511
18689TIP3    H277559   5.007   0.974  11.364  0.3928 -0.2588  1.2792
18690TIP3   OH277560   4.382   4.293   1.395  0.3189  0.1655 -0.3749
18690TIP3    H177561   4.449   4.292   1.463  0.4140  1.4309 -0.4276
18690TIP3    H277562   4.311   4.345   1.433 -0.0481  0.0198 -0.8614
18691TIP3   OH277563   2.058   4.208  14.536 -0.7204 -0.0946  0.0572
18691TIP3    H177564   1.983   4.252  14.577  1.5919  1.0594  3.4973
18691TIP3    H277565   2.099   4.276  14.483 -1.7984 -0.6315 -1.5436
18692TIP3   OH277566   5.099   2.281   2.308  0.0502  0.1643 -0.8366
18692TIP3    H177567   5.117   2.235   2.226  1.5032 -0.7761 -0.0391
18692TIP3    H277568   5.159   2.355   2.307 -1.2064  1.1964 -1.4200
18693TIP3   OH277569   4.060   2.124  12.137 -0.0103 -0.3389 -0.1885
18693TIP3    H177570   4.108   2.158  12.062 -0.8126 -0.5162 -0.7839
18693TIP3    H277571   3.994   2.191  12.156 -0.3993 -0.7206 -0.2051
18694TIP3   OH277572   1.112   3.667   6.030 -0.6093 -0.2956  0.2099
18694TIP3    H177573   1.114   3.579   6.069 -0.5288  0.0400  0.9941
18694TIP3    H277574   1.178   3.716   6.079 -0.2953  0.0678 -0.5690
18695TIP3   OH277575   2.355   5.384   1.333  0.3274 -0.2888  0.4806
18695TIP3    H177576   2.319   5.416   1.251  1.8330 -0.1732 -0.1605
18695TIP3    H277577   2.298   5.312   1.358 -1.6640  1.2814  0.6739
18696TIP3   OH277578   1.298   0.156   3.930 -0.2304 -0.2193  0.0461
18696TIP3    H177579   1.299   0.217   4.004  1.6746 -0.0451 -0.0766
18696TIP3    H277580   1.221   0.183   3.879 -0.9598  0.3477  1.3744
18697TIP3   OH277581   3.226   2.320   3.075 -0.4921 -0.1291  0.0813
18697TIP3    H177582   3.234   2.412   3.099  0.3082 -0.1992  0.1122
18697TIP3    H277583   3.147   2.316   3.021  0.6503  0.9676 -1.7887
18698TIP3   OH277584   0.482   1.167  12.852 -0.2283  0.0300  0.3520
18698TIP3    H177585   0.544   1.121  12.796  0.1911  0.1123  0.7471
18698TIP3    H277586   0.399   1.121  12.837  0.1722 -0.8483  0.7014
18699TIP3   OH277587   2.146   1.133   5.384  0.6081  0.2894 -0.1231
18699TIP3    H177588   2.123   1.112   5.294 -0.0160 -0.8666  0.2747
18699TIP3    H277589   2.162   1.227   5.384 -1.8427  0.7693 -0.9330
18700TIP3   OH277590   3.747   6.162   5.482  0.0123  0.0985 -0.1846
18700TIP3    H177591   3.775   6.159   5.573  0.3624 -0.5318 -0.3041
18700TIP3    H277592   3.828   6.175   5.432 -0.0172 -0.7685 -0.4749
18701TIP3   OH277593   6.668   5.685   3.350 -0.3647  0.3359  0.0797
18701TIP3    H177594   6.620   5.609   3.384  1.7239 -1.4822 -0.7734
18701TIP3    H277595   6.748   5.688   3.402  0.2963  0.9647 -0.9436
18702TIP3   OH277596   1.955   5.540  13.472  0.8305  0.0767  0.0331
18702TIP3    H177597   1.995   5.558  13.557 -0.4683 -0.5683  0.8203
18702TIP3    H277598   2.008   5.589  13.409  2.3696 -0.1497  1.0965
18703TIP3   OH277599   0.816   2.530  15.673  0.1315  0.0839 -0.0263
18703TIP3    H177600   0.846   2.500  15.587  0.5690 -0.4514  0.3115
18703TIP3    H277601   0.891   2.580  15.708  0.2932 -0.4664  0.4239
18704TIP3   OH277602   6.091   1.626  11.860 -0.2280  0.3037  0.0842
18704TIP3    H177603   6.070   1.718  11.845  2.0343  0.9346  0.4100
18704TIP3    H277604   6.074   1.612  11.953 -0.3139  0.4767  0.0952
18705TIP3   OH277605   3.969   0.577  14.553  0.3754 -0.0903 -0.3084
18705TIP3    H177606   4.016   0.545  14.630 -1.0858 -0.4178  0.4906
18705TIP3    H277607   3.941   0.665  14.577 -1.9862 -0.9799  0.4787
18706TIP3   OH277608   2.328   4.351  11.798 -0.2198 -0.1700 -0.2863
18706TIP3    H177609   2.389   4.416  11.831  0.1462 -1.4741  1.8089
18706TIP3    H277610   2.383   4.288  11.752 -0.5074  0.6560 -1.8205
18707TIP3   OH277611   5.007   4.160  13.868  0.3078  0.6128  0.0750
18707TIP3    H177612   5.043   4.224  13.807  2.5688  0.0539  0.7436
18707TIP3    H277613   4.973   4.213  13.940  1.4728  1.1060  0.2772
18708TIP3   OH277614   0.237   3.852   4.141 -0.7168  0.4138  0.2273
18708TIP3    H177615   0.321   3.806   4.152 -0.7743  0.4883  1.0716
18708TIP3    H277616   0.258   3.943   4.159 -0.9339  0.4667  0.2110
18709TIP3   OH277617   1.853   3.129   2.633 -0.5948 -0.4913  0.2308
18709TIP3    H177618   1.904   3.197   2.588 -0.0203 -1.2995 -0.3708
18709TIP3    H277619   1.917   3.083   2.687 -0.8785 -0.8887  0.2315
18710TIP3   OH277620   5.815   5.791  12.834 -0.4049 -0.0169 -0.5923
18710TIP3    H177621   5.727   5.771  12.803 -0.9283  1.8731 -0.4907
18710TIP3    H277622   5.853   5.845  12.764 -0.0383  0.7624  0.1887
18711TIP3   OH277623   5.207   2.891  14.145 -0.0367  0.3891 -0.1007
18711TIP3    H177624   5.162   2.959  14.096  0.6817  0.4303 -0.7142
18711TIP3    H277625   5.281   2.935  14.186 -0.1444  0.1803  0.3311
18712TIP3   OH277626   5.281   2.665   0.386  0.1537 -0.2619 -0.2169
18712TIP3    H177627   5.345   2.647   0.317  0.7220  0.6114  0.0546
18712TIP3    H277628   5.196   2.662   0.342  0.4448 -0.5917 -0.7670
18713TIP3   OH277629   1.113   0.832  16.124 -0.0984  0.6398  0.1530
18713TIP3    H177630   1.101   0.908  16.069  1.6602  2.0858  1.6189
18713TIP3    H277631   1.205   0.808  16.111 -0.3501 -0.6007  0.5138
18714TIP3   OH277632   2.889   4.905  16.610 -0.6927 -0.4849 -0.5568
18714TIP3    H177633   2.835   4.861  16.675 -0.8616  1.9660  1.0864
18714TIP3    H277634   2.977   4.872  16.625 -0.3543  1.3762  2.3447
18715TIP3   OH277635   3.012   1.385   3.753 -0.3805 -0.1084 -0.2664
18715TIP3    H177636   2.969   1.300   3.739 -0.3479  0.0175 -1.1764
18715TIP3    H277637   3.061   1.400   3.672 -2.6364  2.1168 -1.3648
18716TIP3   OH277638   1.093   4.130   0.429  0.4781  0.7977  0.3043
18716TIP3    H177639   1.074   4.065   0.497  1.5108  0.0209 -0.1107
18716TIP3    H277640   1.057   4.093   0.349 -1.6682  2.1897  0.5375
18717TIP3   OH277641   1.309   1.639  12.484  0.1192  0.1862  0.1578
18717TIP3    H177642   1.307   1.688  12.402  0.9483 -0.0776 -0.0281
18717TIP3    H277643   1.345   1.554  12.459 -1.6264 -0.6734  0.4028
18718TIP3   OH277644   0.497   1.872  12.584  0.0104 -0.2362 -0.0561
18718TIP3    H177645   0.415   1.853  12.539  0.5219  1.8325 -2.0293
18718TIP3    H277646   0.474   1.933  12.653 -0.1681  0.0639 -0.3808
18719TIP3   OH277647   4.867   0.228  13.565  0.2001 -0.0300 -0.0707
18719TIP3    H177648   4.790   0.284  13.563  1.2378  1.5229  0.7366
18719TIP3    H277649   4.861   0.175  13.485 -1.3079  0.5483 -0.3753
18720TIP3   OH277650   0.731   4.024   0.084 -0.0571 -0.3275 -0.4592
18720TIP3    H177651   0.667   4.051   0.150  0.7397 -1.4824  0.8458
18720TIP3    H277652   0.679   3.984   0.015 -0.7590 -1.4213  0.6647
18721TIP3   OH277653   6.645   3.338  17.026  0.4392 -0.1259 -0.2454
18721TIP3    H177654   6.642   3.423  16.981  0.6763  0.6344  1.1013
18721TIP3    H277655   6.686   3.279  16.963 -0.8984  0.4307 -1.6939
18722TIP3   OH277656   4.786   3.355  11.665  0.3000 -0.2207  0.1443
18722TIP3    H177657   4.817   3.442  11.641 -2.0544  1.3487  2.2328
18722TIP3    H277658   4.721   3.334  11.598  1.6349 -0.9354 -0.9783
18723TIP3   OH277659   5.915   4.607  15.351  0.5048  0.3496 -0.4519
18723TIP3    H177660   5.968   4.672  15.398 -2.5496  2.4337  0.3938
18723TIP3    H277661   5.895   4.541  15.416  0.5974  0.4833 -0.2875
18724TIP3   OH277662   1.711   3.033  10.832 -0.1395  0.2444 -0.1534
18724TIP3    H177663   1.720   3.106  10.771 -0.8763 -1.4824 -2.4626
18724TIP3    H277664   1.682   2.960  10.778 -0.7633 -1.4349  2.2859
18725TIP3   OH277665   1.951   2.420  11.890  0.5322 -0.1834  0.4645
18725TIP3    H177666   1.973   2.409  11.983 -0.9655 -3.0425  0.5776
18725TIP3    H277667   1.868   2.468  11.891 -0.6622 -2.1594  0.7880
18726TIP3   OH277668   4.639   1.427  15.593 -0.1239  0.6280 -0.3163
18726TIP3    H177669   4.706   1.402  15.530  0.9187  0.6451  0.7519
18726TIP3    H277670   4.678   1.410  15.678 -1.5445  0.4998  0.3368
18727TIP3   OH277671   3.216   3.651   0.637 -0.0570  0.1123 -0.0120
18727TIP3    H177672   3.302   3.622   0.607 -0.1789 -0.2888  0.0176
18727TIP3    H277673   3.227   3.744   0.658  1.4274 -0.7201  3.7854
18728TIP3   OH277674   2.359   0.547   1.425  0.7916  0.8493  0.1177
18728TIP3    H177675   2.442   0.593   1.438  0.6376  0.6347  2.2711
18728TIP3    H277676   2.331   0.523   1.514 -0.4256 -1.1247 -0.7359
18729TIP3   OH277677   3.914   6.555  15.431  0.2205 -0.2636 -0.5447
18729TIP3    H177678   3.956   6.628  15.476  2.6491 -1.6351 -0.4355
18729TIP3    H277679   3.906   6.584  15.340  0.2299  0.4914 -0.3111
18730TIP3   OH277680   3.830   5.660   4.937 -0.4688  0.5660 -0.5656
18730TIP3    H177681   3.893   5.731   4.945  1.2736 -0.7840 -1.6549
18730TIP3    H277682   3.751   5.702   4.901  0.9301  1.7713 -2.3970
18731TIP3   OH277683   3.025   0.420   3.759  0.1200  0.1321  0.2468
18731TIP3    H177684   3.029   0.429   3.854 -1.7043  0.8883  0.3082
18731TIP3    H277685   3.082   0.490   3.725  0.1132  0.4052  0.7915
18732TIP3   OH277686   4.775   5.353  16.203  0.4867  0.0924  0.3463
18732TIP3    H177687   4.707   5.294  16.235  0.5770 -1.1351 -1.5364
18732TIP3    H277688   4.727   5.427  16.166  0.2773  0.1970  0.8171
18733TIP3   OH277689   0.459   1.949  13.082 -0.0294 -0.0175  0.1824
18733TIP3    H177690   0.503   1.878  13.034  0.3176 -1.5910  2.6192
18733TIP3    H277691   0.371   1.915  13.099 -0.0962  0.4242  0.7494
18734TIP3   OH277692   1.353   1.876   5.693  0.0899 -0.2738  0.1534
18734TIP3    H177693   1.346   1.818   5.617  0.0758  1.1742 -0.9942
18734TIP3    H277694   1.321   1.960   5.661  4.0560  1.5565  0.4389
18735TIP3   OH277695   3.956   0.524   2.534  0.4853 -0.5147  0.5483
18735TIP3    H177696   4.042   0.551   2.567  1.4875 -2.7528 -0.0668
18735TIP3    H277697   3.918   0.472   2.605  0.1067 -0.4806  0.3749
18736TIP3   OH277698   1.556   3.196  14.657 -0.2943  0.2319  0.9134
18736TIP3    H177699   1.513   3.151  14.730 -1.7454  0.8722  0.4786
18736TIP3    H277700   1.485   3.220  14.598  0.9417 -1.3856 -1.3866
18737TIP3   OH277701   2.345   6.526  14.243 -0.2878 -0.2624 -0.5175
18737TIP3    H177702   2.278   6.463  14.267 -1.3717  0.0690 -2.4217
18737TIP3    H277703   2.422   6.473  14.221 -0.2046 -0.6985  0.7430
18738TIP3   OH277704   1.634   2.645   2.326 -0.4739 -0.7816 -0.1579
18738TIP3    H177705   1.627   2.740   2.317 -2.2481 -0.9286 -0.6669
18738TIP3    H277706   1.571   2.610   2.263 -0.2431 -2.3008  0.4062
18739TIP3   OH277707   5.738   2.118   2.927 -0.5278 -0.2815 -0.4440
18739TIP3    H177708   5.750   2.175   3.003  0.4174 -0.2191 -0.6250
18739TIP3    H277709   5.785   2.038   2.949 -1.0448 -0.6280 -0.5840
18740TIP3   OH277710   4.585   0.566   5.719 -0.0465 -0.6204  0.4722
18740TIP3    H177711   4.498   0.604   5.705  0.6687  0.3303 -2.0497
18740TIP3    H277712   4.630   0.629   5.775 -0.5383 -0.4318  0.6655
18741TIP3   OH277713   2.976   4.435   2.912  0.0238 -0.3733 -0.6122
18741TIP3    H177714   2.913   4.371   2.879 -0.1554  0.2726 -1.5521
18741TIP3    H277715   3.013   4.476   2.834  1.0265 -0.1667 -0.0551
18742TIP3   OH277716   5.002   3.283   2.729  0.2078 -0.5485 -0.6858
18742TIP3    H177717   4.919   3.251   2.695 -0.0669 -2.1900  1.3246
18742TIP3    H277718   5.058   3.206   2.734  1.8828  0.5211 -1.9528
18743TIP3   OH277719   6.719   6.452   3.247 -0.4149 -0.2559  0.7647
18743TIP3    H177720   6.637   6.408   3.271  0.2037 -0.7807  2.0216
18743TIP3    H277721   6.699   6.545   3.253 -1.4461 -0.3445 -0.8758
18744TIP3   OH277722   5.563   0.995  11.820 -0.0456 -0.5817  0.0427
18744TIP3    H177723   5.572   1.088  11.840 -0.5116 -0.4634 -0.2881
18744TIP3    H277724   5.552   0.953  11.905  2.3687 -0.6111  0.4098
18745TIP3   OH277725   3.494   4.113   4.930 -0.5803 -0.1673  0.1208
18745TIP3    H177726   3.445   4.087   4.853 -0.5616 -1.3665  0.4865
18745TIP3    H277727   3.514   4.206   4.916 -1.9163  0.0414 -0.5703
18746TIP3   OH277728   2.521   3.997   3.434  0.0289  0.3924 -0.8415
18746TIP3    H177729   2.478   4.081   3.451  0.7571  1.2257 -2.8806
18746TIP3    H277730   2.611   4.009   3.463 -0.2496 -0.2496  0.3491
18747TIP3   OH277731   2.430   2.654   1.269  0.9325  0.4019 -0.3178
18747TIP3    H177732   2.386   2.597   1.332  0.5777 -0.6047 -1.4453
18747TIP3    H277733   2.442   2.599   1.191  1.5335  1.5568 -1.0630
18748TIP3   OH277734   0.926   2.109  12.556 -0.1323  0.0655  0.3316
18748TIP3    H177735   0.909   2.193  12.600  2.1367  1.0844 -0.6231
18748TIP3    H277736   0.993   2.067  12.610  1.8917  0.8509 -1.4459
18749TIP3   OH277737   0.563   6.210   3.039  0.2818  0.6048  0.7232
18749TIP3    H177738   0.592   6.120   3.056  0.8810  0.4192 -1.0317
18749TIP3    H277739   0.494   6.226   3.103 -0.3373 -1.3609  0.6089
18750TIP3   OH277740   4.363   2.330  13.348  0.2308  0.0579 -0.4722
18750TIP3    H177741   4.426   2.346  13.418  0.1038 -0.2540 -0.2850
18750TIP3    H277742   4.330   2.242  13.365  0.3647 -0.1058 -1.0553
18751TIP3   OH277743   3.421   3.367   4.859  0.0778 -0.1145 -0.2413
18751TIP3    H177744   3.357   3.304   4.825 -1.0915  0.9342 -0.0608
18751TIP3    H277745   3.404   3.447   4.808  1.1654  0.2262 -0.0894
18752TIP3   OH277746   2.539   5.005   4.169 -0.8051 -0.3214 -0.1830
18752TIP3    H177747   2.625   4.973   4.140 -1.0849  0.1535 -1.6458
18752TIP3    H277748   2.501   5.045   4.091 -1.6723  0.9893  0.8712
18753TIP3   OH277749   4.564   5.834   3.607 -0.1356  0.1798 -0.3983
18753TIP3    H177750   4.523   5.751   3.629 -0.1224 -0.0555 -1.2171
18753TIP3    H277751   4.511   5.900   3.650 -0.2994 -0.2373  0.0400
18754TIP3   OH277752   6.759   6.722   2.923  0.3482 -0.2033 -0.1068
18754TIP3    H177753   6.809   6.775   2.862  0.2886  0.7145  0.6196
18754TIP3    H277754   6.668   6.728   2.893  0.3064  0.3222  0.1126
18755TIP3   OH277755   4.444   0.601   3.270  0.3776 -0.1427 -0.2675
18755TIP3    H177756   4.477   0.690   3.276 -1.1821  0.6217 -2.0255
18755TIP3    H277757   4.490   0.563   3.195 -0.1493 -0.2796 -0.5214
18756TIP3   OH277758   5.489   6.452   5.773  0.0941 -0.0005 -0.5926
18756TIP3    H177759   5.435   6.440   5.852  0.0896  1.4781 -0.3472
18756TIP3    H277760   5.573   6.413   5.796 -0.3889 -1.0088 -0.4514
18757TIP3   OH277761   2.357   0.650   3.185  0.4828  0.3829  0.0749
18757TIP3    H177762   2.337   0.739   3.214 -0.8603  0.2053 -0.2700
18757TIP3    H277763   2.305   0.638   3.106  1.8050 -0.1958 -0.7491
18758TIP3   OH277764   0.039   2.130  15.918  0.2132 -0.2874 -0.5449
18758TIP3    H177765   0.126   2.101  15.889 -0.2727 -0.2307 -2.1761
18758TIP3    H277766   0.045   2.226  15.920  0.5981 -0.3222  0.7835
18759TIP3   OH277767   2.194   1.317  13.794 -0.1944 -0.7045 -0.1484
18759TIP3    H177768   2.242   1.261  13.734  1.5467 -0.2004  0.7173
18759TIP3    H277769   2.122   1.352  13.741 -0.2519 -2.2810 -1.1962
18760TIP3   OH277770   3.480   5.799  15.876  0.0241 -0.5618 -0.0580
18760TIP3    H177771   3.523   5.844  15.948 -1.4588  1.6162 -0.4043
18760TIP3    H277772   3.549   5.750  15.832  1.9448  1.8734  0.0383
18761TIP3   OH277773   5.885   6.228  11.036  0.3178  0.7522  0.2242
18761TIP3    H177774   5.915   6.209  11.125 -1.7183 -2.1630  0.4148
18761TIP3    H277775   5.790   6.231  11.043  0.0442 -0.8138 -2.0258
18762TIP3   OH277776   5.973   3.612  16.146 -0.0154 -0.4933 -0.1336
18762TIP3    H177777   6.008   3.541  16.092 -0.5386 -0.0533 -1.0782
18762TIP3    H277778   6.006   3.692  16.104 -1.1868 -0.1131 -0.3562
18763TIP3   OH277779   4.022   4.256  11.202 -0.0439  0.4038  0.1007
18763TIP3    H177780   3.941   4.306  11.214 -1.0827 -0.9466 -0.9759
18763TIP3    H277781   4.049   4.275  11.112  0.8841  0.8920  0.4737
18764TIP3   OH277782   5.419   2.544   4.005 -0.0066 -0.0258  0.9102
18764TIP3    H177783   5.394   2.492   4.081 -0.7607 -0.6299  0.2709
18764TIP3    H277784   5.447   2.479   3.940  2.6338  0.5763  1.3387
18765TIP3   OH277785   4.197   3.591  16.221 -0.4387 -0.1030 -0.9467
18765TIP3    H177786   4.246   3.566  16.299 -2.6006 -3.8046 -0.5435
18765TIP3    H277787   4.162   3.678  16.241  2.1446  0.6913  0.5372
18766TIP3   OH277788   6.179   5.634   2.705  0.3670 -0.1849 -0.3162
18766TIP3    H177789   6.125   5.582   2.645 -0.3078  0.1205  0.0048
18766TIP3    H277790   6.264   5.590   2.706  0.6029  0.1671 -1.9728
18767TIP3   OH277791   3.299   3.439   5.734  0.2510  0.4529 -0.2126
18767TIP3    H177792   3.294   3.359   5.681 -4.3319  0.9150 -0.8704
18767TIP3    H277793   3.333   3.409   5.818  2.6399 -1.3001 -1.6739
18768TIP3   OH277794   3.769   4.418   1.426 -0.2547 -0.0080  0.0617
18768TIP3    H177795   3.685   4.454   1.398  0.1800  1.3573  0.4244
18768TIP3    H277796   3.820   4.409   1.346 -0.3096  0.3616 -0.0168
18769TIP3   OH277797   2.746   2.057  13.971 -0.2137  0.5645 -0.1125
18769TIP3    H177798   2.788   2.096  14.048 -1.5094  1.1691  0.3167
18769TIP3    H277799   2.652   2.069  13.986 -0.5062  0.3799 -1.6332
18770TIP3   OH277800   0.929   5.599   6.280  0.4816 -0.1616 -0.3857
18770TIP3    H177801   0.937   5.504   6.284 -0.0333 -0.1911 -0.1067
18770TIP3    H277802   0.888   5.624   6.362 -3.4535 -0.1340 -2.1169
18771TIP3   OH277803   0.598   4.076  13.621  0.0961 -0.0854  0.0519
18771TIP3    H177804   0.537   4.149  13.620  0.0638 -0.1002  0.6237
18771TIP3    H277805   0.545   4.001  13.647 -0.1512 -0.5787 -1.7834
18772TIP3   OH277806   3.078   1.775  14.407  0.3861 -0.3901  0.4538
18772TIP3    H177807   3.000   1.725  14.431  0.6841 -1.1882 -0.2093
18772TIP3    H277808   3.054   1.867  14.423 -1.4823 -0.3929 -1.8315
18773TIP3   OH277809   6.030   2.334   4.486 -0.1809  0.4513  0.2828
18773TIP3    H177810   6.016   2.301   4.397 -2.6869  0.3663  0.6305
18773TIP3    H277811   6.000   2.425   4.483 -0.4198  0.4030  1.0736
18774TIP3   OH277812   4.392   0.549   0.156 -0.3659  0.1659  0.0051
18774TIP3    H177813   4.380   0.462   0.119 -1.7891 -0.3386  1.5212
18774TIP3    H277814   4.481   0.574   0.132 -0.3152 -1.2300 -1.3897
18775TIP3   OH277815   2.847   4.172  12.210 -0.2926 -0.2239  0.3359
18775TIP3    H177816   2.881   4.167  12.121 -2.3614 -3.3180 -0.4355
18775TIP3    H277817   2.788   4.248  12.208  0.6949  0.5561 -0.4964
18776TIP3   OH277818   6.444   1.411  16.983 -0.2915  0.5060  0.8162
18776TIP3    H177819   6.466   1.380  17.071  0.9690  0.3108  0.4480
18776TIP3    H277820   6.348   1.413  16.982 -0.3376 -0.1638  1.9593
18777TIP3   OH277821   5.235   5.720  12.262  0.6793  0.3545 -0.2699
18777TIP3    H177822   5.242   5.627  12.283 -0.8173  0.2461 -0.1098
18777TIP3    H277823   5.326   5.750  12.253  1.1632 -1.3107 -1.2573
18778TIP3   OH277824   2.302   2.162   3.031 -0.1451  0.2056 -0.0185
18778TIP3    H177825   2.250   2.119   3.099  1.7252  0.2791  1.5265
18778TIP3    H277826   2.239   2.219   2.987 -1.6067 -0.4815  1.0601
18779TIP3   OH277827   0.142   1.446   0.851  0.4175  0.8259 -0.1327
18779TIP3    H177828   0.061   1.395   0.859  1.7086 -1.1721  1.1882
18779TIP3    H277829   0.129   1.521   0.909 -0.3040  0.2518  0.4772
18780TIP3   OH277830   6.393   6.418  14.984  0.1265  0.6283  0.0097
18780TIP3    H177831   6.392   6.324  15.002 -0.5135  0.5207 -0.5652
18780TIP3    H277832   6.307   6.449  15.011 -0.5288  0.6245 -1.9192
18781TIP3   OH277833   5.245   0.406  11.625 -0.4737  0.4364  0.3630
18781TIP3    H177834   5.199   0.341  11.678 -2.4433  1.9540  0.6568
18781TIP3    H277835   5.334   0.409  11.661 -0.8699 -0.7838  1.5107
18782TIP3   OH277836   6.290   6.701   3.464  0.5481  0.7991  0.4107
18782TIP3    H177837   6.228   6.636   3.433  1.8289  0.1425 -0.9003
18782TIP3    H277838   6.247   6.742   3.538  0.4594 -2.8982  2.6420
18783TIP3   OH277839   3.375   2.465  11.337 -0.0459  0.9343 -0.2864
18783TIP3    H177840   3.418   2.457  11.252  0.7484 -1.1125  0.2389
18783TIP3    H277841   3.445   2.451  11.401 -0.8254  1.3563  0.6870
18784TIP3   OH277842   1.449   2.793   1.717 -0.4206 -0.1736 -0.2906
18784TIP3    H177843   1.368   2.777   1.668  0.7338  0.1198 -2.4149
18784TIP3    H277844   1.479   2.878   1.686  1.3667 -0.8427 -0.5128
18785TIP3   OH277845   1.301   5.945  11.226  0.7901 -0.0668 -0.1420
18785TIP3    H177846   1.221   5.987  11.194  0.9796  0.1085 -0.3962
18785TIP3    H277847   1.332   6.002  11.296  0.9721  0.1508 -0.3940
18786TIP3   OH277848   1.198   6.092  10.694  0.3838 -0.3699 -0.5146
18786TIP3    H177849   1.199   6.152  10.767  1.9959  1.2889 -1.8012
18786TIP3    H277850   1.122   6.118  10.641 -0.7663 -1.5540  0.4957
18787TIP3   OH277851   5.024   4.411   3.405  0.7633  0.0191  0.0963
18787TIP3    H177852   5.117   4.397   3.384  0.6138 -0.2957 -0.3586
18787TIP3    H277853   5.025   4.448   3.493  1.2947 -0.5462  0.3355
18788TIP3   OH277854   0.636   4.923   1.583 -0.1573  0.5185 -0.4149
18788TIP3    H177855   0.567   4.987   1.567 -1.8805 -1.3349 -0.8986
18788TIP3    H277856   0.613   4.883   1.667  0.4880  0.0836 -0.4408
18789TIP3   OH277857   3.873   3.692   4.490 -0.2410 -0.4707 -0.1001
18789TIP3    H177858   3.919   3.634   4.430 -0.6137 -1.5933  0.6810
18789TIP3    H277859   3.804   3.639   4.528 -0.1909  0.2933  1.1185
18790TIP3   OH277860   2.271   1.085   1.770 -0.2302  0.3289  0.1536
18790TIP3    H177861   2.362   1.057   1.762 -0.3049  0.4037 -1.0663
18790TIP3    H277862   2.272   1.150   1.840  0.7673  0.8008 -0.2821
18791TIP3   OH277863   3.212   6.836  11.665 -0.3020 -0.3541 -0.6391
18791TIP3    H177864   3.258   6.907  11.620  0.7002 -0.8388 -0.4112
18791TIP3    H277865   3.199   6.770  11.597 -0.0975 -0.4777 -0.5585
18792TIP3   OH277866   3.346   4.312   3.997 -0.3520 -0.4834 -0.0065
18792TIP3    H177867   3.263   4.329   3.953 -0.9792 -1.0687  0.9057
18792TIP3    H277868   3.413   4.344   3.936 -1.1966 -0.8621 -1.1657
18793TIP3   OH277869   0.062   4.140  16.463  0.0736  0.0045 -0.9295
18793TIP3    H177870   0.077   4.182  16.378 -1.1025 -0.4722 -1.3875
18793TIP3    H277871   0.047   4.047  16.442  1.2259 -0.4064 -0.0587
18794TIP3   OH277872   1.132   1.143   6.609 -0.5683  0.5036 -0.6716
18794TIP3    H177873   1.074   1.157   6.684  0.1658 -1.1389  0.2551
18794TIP3    H277874   1.112   1.215   6.549 -1.8968  1.2775  0.6461
18795TIP3   OH277875   0.898   6.333   4.792  0.2886 -0.2551  0.3207
18795TIP3    H177876   0.902   6.284   4.710 -1.0355  3.0582 -1.9304
18795TIP3    H277877   0.979   6.384   4.793  0.8759 -1.1361  1.8014
18796TIP3   OH277878   4.332   5.780  16.414 -0.4696 -0.7832  0.0668
18796TIP3    H177879   4.316   5.695  16.373 -1.4205 -1.1015  1.0601
18796TIP3    H277880   4.286   5.776  16.498 -2.7158  1.5930 -0.8772
18797TIP3   OH277881   1.445   0.486   3.935 -0.4774  0.0689 -0.6695
18797TIP3    H177882   1.527   0.529   3.956  0.4213 -1.3865 -1.0205
18797TIP3    H277883   1.441   0.486   3.839 -0.0154 -1.3595 -0.7123
18798TIP3   OH277884   3.543   1.924   2.692  0.0498  0.2711 -0.5332
18798TIP3    H177885   3.639   1.920   2.686  0.0521 -0.7474 -0.1028
18798TIP3    H277886   3.518   1.995   2.632  0.8162 -1.7670 -3.5073
18799TIP3   OH277887   0.141   2.515  14.401  0.0245  0.0873  0.6962
18799TIP3    H177888   0.054   2.540  14.369  0.3558  0.0139 -0.3040
18799TIP3    H277889   0.150   2.561  14.484 -0.4988  1.0430  0.2447
18800TIP3   OH277890   4.408   6.320   0.666 -0.7360 -0.4493  0.3133
18800TIP3    H177891   4.483   6.379   0.655  0.9832 -2.5650  0.0400
18800TIP3    H277892   4.392   6.317   0.760  0.8346 -1.4554  0.5767
18801TIP3   OH277893   4.463   2.314  16.634  0.5770 -0.0530 -0.4034
18801TIP3    H177894   4.383   2.351  16.673  0.2285 -0.3129 -0.8521
18801TIP3    H277895   4.431   2.248  16.572  1.1342 -0.0238 -0.7322
18802TIP3   OH277896   3.200   3.615  16.193 -0.1697  0.3814 -0.0887
18802TIP3    H177897   3.292   3.606  16.170  0.2525  0.2424  1.5738
18802TIP3    H277898   3.189   3.707  16.215  0.1688 -0.0169  1.9732
18803TIP3   OH277899   3.814   6.300   2.502  0.0002  0.5186  0.1210
18803TIP3    H177900   3.829   6.250   2.422  0.7178  1.7849 -0.5781
18803TIP3    H277901   3.896   6.347   2.516 -0.1929  0.4751  1.4917
18804TIP3   OH277902   4.737   2.569  13.148  0.4191 -0.5089 -0.3422
18804TIP3    H177903   4.657   2.519  13.138  0.9648 -1.1290 -1.9947
18804TIP3    H277904   4.709   2.661  13.147 -0.2655 -0.7121 -1.1494
18805TIP3   OH277905   0.799   4.925  12.450 -0.1947  0.1446 -0.1521
18805TIP3    H177906   0.877   4.947  12.399 -0.8897  1.2879 -0.7597
18805TIP3    H277907   0.731   4.908  12.384 -0.7367  0.2386  0.3741
18806TIP3   OH277908   3.264   3.449  14.757  0.9104  0.2136  0.4790
18806TIP3    H177909   3.274   3.514  14.688 -0.9371  0.3835  0.3110
18806TIP3    H277910   3.281   3.497  14.838  0.5839  0.6583  0.2881
18807TIP3   OH277911   3.701   5.723  16.672  0.2783  0.3573  0.4670
18807TIP3    H177912   3.689   5.764  16.586 -0.1445  1.7193  1.1555
18807TIP3    H277913   3.620   5.743  16.719  1.2436  1.2267  1.8231
18808TIP3   OH277914   5.899   2.906   6.008  0.5309  0.1790  0.4774
18808TIP3    H177915   5.990   2.922   6.032  0.7735 -1.3736  0.6735
18808TIP3    H277916   5.853   2.988   6.031  1.6502  0.5383  1.4973
18809TIP3   OH277917   3.434   0.445  13.303  0.6494  0.4181 -0.5222
18809TIP3    H177918   3.425   0.357  13.265  1.2995  0.7704 -1.5255
18809TIP3    H277919   3.519   0.443  13.348  0.4724  0.3971 -0.1941
18810TIP3   OH277920   3.244   0.461  15.646  0.0305 -0.8335 -0.7005
18810TIP3    H177921   3.204   0.379  15.675  1.0203 -0.2408  2.9083
18810TIP3    H277922   3.336   0.439  15.630  0.4348 -0.3997  0.8470
18811TIP3   OH277923   1.518   2.397  13.641 -0.5658 -0.1066 -0.5307
18811TIP3    H177924   1.538   2.468  13.580  1.5787 -0.8087 -0.7368
18811TIP3    H277925   1.445   2.350  13.600 -0.5367  0.6714 -1.5039
18812TIP3   OH277926   4.350   3.128  11.479 -0.1536  0.5123 -0.0219
18812TIP3    H177927   4.333   3.133  11.573  1.7903  0.1603  0.3857
18812TIP3    H277928   4.263   3.131  11.439 -1.1229 -0.8214  1.8364
18813TIP3   OH277929   1.091   2.533  14.795 -0.1763  0.2322  0.0969
18813TIP3    H177930   1.048   2.553  14.878  0.6515 -2.5079  1.3155
18813TIP3    H277931   1.139   2.452  14.812  2.2607  1.0080 -2.3136
18814TIP3   OH277932   5.385   0.510   5.345  0.0972  0.2960  0.1480
18814TIP3    H177933   5.475   0.492   5.318  0.6778  2.9481  0.0561
18814TIP3    H277934   5.373   0.459   5.425  0.9578 -1.6498 -0.8815
18815TIP3   OH277935   6.699   4.631   5.116 -0.4667 -0.0162  0.2497
18815TIP3    H177936   6.675   4.545   5.152  2.7206 -1.1311  0.0475
18815TIP3    H277937   6.676   4.625   5.023  1.1244 -1.3075 -0.1018
18816TIP3   OH277938   5.638   1.655  14.701 -0.5216 -0.1592 -0.3441
18816TIP3    H177939   5.726   1.619  14.707 -0.0520  0.9163 -0.4438
18816TIP3    H277940   5.647   1.729  14.640 -1.2075  0.7817  0.6568
18817TIP3   OH277941   3.820   1.402  15.199  0.5222 -0.4051 -0.3437
18817TIP3    H177942   3.823   1.479  15.143  0.3325  0.6117  0.9914
18817TIP3    H277943   3.870   1.427  15.277  0.0024 -1.4388  0.3509
18818TIP3   OH277944   6.445   0.406  13.654 -0.4192  0.4440 -0.0585
18818TIP3    H177945   6.446   0.342  13.725  1.1276  0.3509 -0.1320
18818TIP3    H277946   6.532   0.446  13.656 -0.6486  1.0792 -1.3384
18819TIP3   OH277947   2.502   2.105   3.928 -0.2124 -0.1829  0.1036
18819TIP3    H177948   2.435   2.106   3.997 -0.9327 -0.1207 -0.5731
18819TIP3    H277949   2.560   2.178   3.949 -0.7563  0.1933  0.3297
18820TIP3   OH277950   6.802   0.796  11.781 -0.0835 -0.3148 -0.3224
18820TIP3    H177951   6.813   0.814  11.875 -1.5076  1.3988 -0.4237
18820TIP3    H277952   6.708   0.803  11.766  0.3115  2.6416 -2.3935
18821TIP3   OH277953   4.631   0.130  11.120 -0.3540 -0.0527 -0.0269
18821TIP3    H177954   4.614   0.220  11.150 -2.3846 -0.4556  0.1589
18821TIP3    H277955   4.718   0.110  11.155 -1.8580  0.0510  4.4933
18822TIP3   OH277956   3.749   6.340  11.373 -0.0131  0.2525  0.1682
18822TIP3    H177957   3.689   6.333  11.447 -0.1241 -1.6074 -0.0323
18822TIP3    H277958   3.766   6.249  11.348  1.3957  0.7976 -0.9906
18823TIP3   OH277959   3.252   2.355   5.616  0.1529 -0.0001 -0.4080
18823TIP3    H177960   3.346   2.335   5.614  0.0827 -0.3102 -0.8160
18823TIP3    H277961   3.228   2.345   5.708  0.9078  1.9988  0.0604
18824TIP3   OH277962   0.252   2.559  12.618 -0.1301  0.3255 -0.4097
18824TIP3    H177963   0.219   2.613  12.546  0.2619  1.2155  0.0594
18824TIP3    H277964   0.325   2.511  12.580 -1.6338 -1.3513 -1.3472
18825TIP3   OH277965   0.118   3.716  12.405 -0.0158  0.2610  0.1693
18825TIP3    H177966   0.030   3.680  12.417 -0.8992  0.7395 -3.6726
18825TIP3    H277967   0.117   3.799  12.453 -0.3698 -1.2717  3.0505
18826TIP3   OH277968   0.709   5.633   1.290 -0.6640 -0.5115 -0.5810
18826TIP3    H177969   0.742   5.578   1.219  2.1619  1.4241 -0.9530
18826TIP3    H277970   0.779   5.631   1.356 -1.6797  0.4713  0.5784
18827TIP3   OH277971   3.048   4.511  15.267 -0.0869 -0.4112  0.1795
18827TIP3    H177972   3.092   4.539  15.348 -0.4232 -0.1697  0.2793
18827TIP3    H277973   2.956   4.531  15.282  0.1798  2.4003 -1.4208
18828TIP3   OH277974   6.284   2.699   5.419  0.4646 -0.4213 -1.1436
18828TIP3    H177975   6.207   2.644   5.436  0.8836 -0.5740  0.4584
18828TIP3    H277976   6.249   2.779   5.381 -0.2429 -1.4201 -2.6937
18829TIP3   OH277977   2.331   5.553  11.163 -0.5192  0.2941  0.1017
18829TIP3    H177978   2.420   5.565  11.129 -0.3869  2.5133  1.0351
18829TIP3    H277979   2.277   5.612  11.110 -0.9778  0.8516  1.1602
18830TIP3   OH277980   5.281   1.057   4.353  0.0799  0.3862  0.3360
18830TIP3    H177981   5.328   1.066   4.436  0.9203  1.8924 -0.2683
18830TIP3    H277982   5.322   0.982   4.310  0.3888  0.2927  0.7828
18831TIP3   OH277983   0.172   5.869   2.910 -0.6990  0.1383  0.2031
18831TIP3    H177984   0.234   5.936   2.882  1.5707 -1.9420 -0.0581
18831TIP3    H277985   0.136   5.903   2.992 -0.2830  2.0361 -0.3414
18832TIP3   OH277986   5.290   4.227   1.247  0.5657 -0.4170  0.0549
18832TIP3    H177987   5.258   4.167   1.314  1.4590  0.7168  1.5585
18832TIP3    H277988   5.240   4.205   1.168  0.6408 -2.8952  0.6244
18833TIP3   OH277989   3.219   5.837   5.306 -0.3613 -0.2245  0.0613
18833TIP3    H177990   3.194   5.928   5.293 -0.3300 -0.1349  0.6088
18833TIP3    H277991   3.152   5.787   5.260 -1.1688  0.0369  0.9195
18834TIP3   OH277992   0.118   1.431   6.410  0.2252  1.1539  0.4478
18834TIP3    H177993   0.070   1.352   6.385  0.2689  1.7320 -1.5950
18834TIP3    H277994   0.172   1.403   6.485  0.6594 -0.9119 -0.5523
18835TIP3   OH277995   0.467   0.957   6.576  0.6827 -0.4779 -0.0229
18835TIP3    H177996   0.495   1.046   6.556  1.8234 -0.7897  0.1120
18835TIP3    H277997   0.492   0.906   6.499 -3.6010 -0.0644 -1.9568
18836TIP3   OH277998   4.605   2.360  16.860  0.2435  0.1766  0.3443
18836TIP3    H177999   4.554   2.294  16.908 -1.0454  1.1452  0.3568
18836TIP3    H278000   4.600   2.331  16.769  1.5294 -0.9120  0.5933
18837TIP3   OH278001   2.872   3.913   4.945 -0.2540 -0.2668 -0.3171
18837TIP3    H178002   2.860   4.003   4.914 -1.4820 -0.4951 -0.5449
18837TIP3    H278003   2.928   3.922   5.022  1.9968  0.4185 -1.9359
18838TIP3   OH278004   5.831   2.601   5.019 -0.0121 -0.3462 -0.0258
18838TIP3    H178005   5.876   2.685   5.020  0.0338 -0.3406 -1.1041
18838TIP3    H278006   5.799   2.593   4.929 -2.0427 -0.4136  0.6583
18839TIP3   OH278007   2.070   0.177  10.775 -0.2814  0.2348  0.3621
18839TIP3    H178008   2.022   0.176  10.692 -0.0434  0.0836  0.2217
18839TIP3    H278009   2.089   0.084  10.792  3.9051  0.4184 -1.9225
18840TIP3   OH278010   1.067   3.411   5.209 -0.4486 -0.2035 -0.7431
18840TIP3    H178011   0.971   3.419   5.211 -0.3170  1.8748 -0.7368
18840TIP3    H278012   1.093   3.455   5.128  0.6111  1.1475  0.2783
18841TIP3   OH278013   5.129   2.122  15.254 -0.6266  0.6815  0.6973
18841TIP3    H178014   5.071   2.075  15.313 -0.9822  1.2024  0.7675
18841TIP3    H278015   5.185   2.174  15.312  0.4557 -0.4176  0.6724
18842TIP3   OH278016   1.778   2.965  12.343  0.0848 -0.1501 -0.0260
18842TIP3    H178017   1.770   2.964  12.248 -0.9584 -1.2989  0.0511
18842TIP3    H278018   1.848   3.028  12.361 -0.6896  1.1773 -1.4696
18843TIP3   OH278019   1.352   3.437   3.463  0.4085  0.3634  0.2001
18843TIP3    H178020   1.400   3.513   3.431  0.1977  0.9801  1.2931
18843TIP3    H278021   1.287   3.419   3.396  2.7745 -1.1607 -1.8665
18844TIP3   OH278022   1.891   5.951  16.038 -0.4353 -0.1609 -0.4662
18844TIP3    H178023   1.842   5.923  16.115 -0.5906  2.3279  0.4379
18844TIP3    H278024   1.845   6.028  16.007  0.3074 -0.4432 -2.3794
18845TIP3   OH278025   2.024   1.440  13.635 -0.5309  0.1642  0.5625
18845TIP3    H178026   1.933   1.424  13.613  0.1597  0.0150 -2.5815
18845TIP3    H278027   2.034   1.535  13.633 -0.0702  0.1187 -1.9735
18846TIP3   OH278028   6.221   5.602   4.378 -0.7778  0.4154 -0.3724
18846TIP3    H178029   6.130   5.609   4.349 -0.3343  4.6205 -1.4716
18846TIP3    H278030   6.262   5.545   4.314 -2.3081 -0.3071 -0.7601
18847TIP3   OH278031   5.614   4.182  10.775  0.1716 -0.1993 -0.1696
18847TIP3    H178032   5.701   4.147  10.760  0.0299  0.1627 -2.1564
18847TIP3    H278033   5.580   4.201  10.688 -1.0048  1.8463  0.6550
18848TIP3   OH278034   3.196   6.754  12.351 -0.0491 -0.1860  0.7897
18848TIP3    H178035   3.174   6.833  12.400  0.6464 -0.1554  1.0549
18848TIP3    H278036   3.223   6.690  12.417  2.1923  0.2767  0.3877
18849TIP3   OH278037   4.000   4.149   0.968 -0.1943  0.2278 -0.4801
18849TIP3    H178038   4.044   4.203   1.033 -0.6653 -0.4419  0.4199
18849TIP3    H278039   3.935   4.207   0.929  0.1740  0.6711 -0.4492
18850TIP3   OH278040   0.409   0.004   5.974 -0.2738 -0.0160 -0.3971
18850TIP3    H178041   0.408   0.097   5.998 -0.3623  0.7557 -2.9971
18850TIP3    H278042   0.356  -0.039   6.040 -2.3422  2.1949 -0.4676
18851TIP3   OH278043   6.773   4.340  14.679 -0.0921  0.1498  0.4525
18851TIP3    H178044   6.812   4.424  14.703 -0.3074  0.3554  0.0904
18851TIP3    H278045   6.692   4.363  14.635  0.6090 -0.1770 -1.1004
18852TIP3   OH278046   3.897   5.883   1.736 -0.1634 -0.7221  0.2507
18852TIP3    H178047   3.846   5.911   1.813 -0.5849  0.4155 -0.4133
18852TIP3    H278048   3.841   5.819   1.693 -2.2193  2.1318 -1.7181
18853TIP3   OH278049   4.309   4.005  14.602 -0.1448  0.7843 -0.2017
18853TIP3    H178050   4.278   4.010  14.511 -0.0327  0.1230 -0.2785
18853TIP3    H278051   4.372   4.076  14.609 -0.3893  1.0407 -0.5502
18854TIP3   OH278052   6.842   1.998   2.109  0.2824 -0.1806 -0.6160
18854TIP3    H178053   6.915   2.005   2.048  1.3485 -0.2766  0.6119
18854TIP3    H278054   6.883   1.992   2.195 -1.2044  2.3095  0.3662
18855TIP3   OH278055   0.412   1.299   0.192  0.7393 -0.1190  0.6521
18855TIP3    H178056   0.364   1.380   0.212  0.2188 -0.2678  0.0273
18855TIP3    H278057   0.370   1.232   0.246  0.9059 -0.0523  0.8651
18856TIP3   OH278058   3.731   3.141  13.284 -0.2388  0.6619  0.4963
18856TIP3    H178059   3.767   3.148  13.195  1.6341 -0.6759  1.0851
18856TIP3    H278060   3.697   3.051  13.288  1.5489 -0.0249  1.7024
18857TIP3   OH278061   0.544   5.429   0.053  0.4732  0.3979 -0.2575
18857TIP3    H178062   0.594   5.486  -0.005  0.0424  1.0571  0.0166
18857TIP3    H278063   0.467   5.405   0.001  0.7572 -0.1190 -0.4511
18858TIP3   OH278064   3.799   3.878  11.673 -0.2831  0.3202 -0.1414
18858TIP3    H178065   3.711   3.876  11.709 -0.5964  0.3336 -0.8768
18858TIP3    H278066   3.819   3.971  11.665 -0.3915  0.3251 -0.3953
18859TIP3   OH278067   5.091   1.008   6.530 -0.4223  0.0402  0.1838
18859TIP3    H178068   5.154   0.974   6.595 -0.4310  0.8155  0.6117
18859TIP3    H278069   5.086   0.939   6.464  0.7561 -0.1081  0.2256
18860TIP3   OH278070   5.464   4.750  11.372  0.1281  0.0545 -0.0973
18860TIP3    H178071   5.461   4.727  11.279  1.4975  3.5576 -1.1708
18860TIP3    H278072   5.396   4.816  11.382  1.5224  1.4091  0.7898
18861TIP3   OH278073   6.771   5.287  15.341 -0.2599 -0.1326  0.0715
18861TIP3    H178074   6.678   5.299  15.361 -0.3403  1.3410 -0.9996
18861TIP3    H278075   6.773   5.219  15.275 -0.9969  2.2585 -2.6189
18862TIP3   OH278076   1.952   5.936   6.064  0.0148 -0.1162 -0.4539
18862TIP3    H178077   1.975   6.026   6.040  1.0233  0.0064  0.8294
18862TIP3    H278078   2.005   5.882   6.005  0.9857  0.1643  0.1285
18863TIP3   OH278079   4.198   0.975   0.258  0.0305 -0.0208 -0.0334
18863TIP3    H178080   4.227   0.896   0.212 -2.7888 -2.0821  1.3975
18863TIP3    H278081   4.138   1.018   0.198 -0.0294 -0.1131 -0.0396
18864TIP3   OH278082   6.780   6.334  11.209 -0.4262  0.0315  0.0885
18864TIP3    H178083   6.812   6.360  11.295 -1.6113  2.2822 -0.0665
18864TIP3    H278084   6.827   6.391  11.148 -1.1057 -0.0658 -0.5381
18865TIP3   OH278085   1.916   5.013  16.899 -0.4292  0.9526  0.1969
18865TIP3    H178086   1.945   5.037  16.811 -1.1285 -0.0593 -0.3434
18865TIP3    H278087   1.821   5.026  16.897 -0.7281 -0.8467  0.1431
18866TIP3   OH278088   1.651   5.596  16.278 -0.1633  0.3272 -0.4557
18866TIP3    H178089   1.732   5.546  16.286 -0.0137  0.5463 -0.5708
18866TIP3    H278090   1.625   5.586  16.186 -1.1937 -1.1427 -0.0450
18867TIP3   OH278091   0.620   0.882  12.493 -0.3590 -0.4020  0.2151
18867TIP3    H178092   0.691   0.947  12.488  0.5488 -1.3147  0.8447
18867TIP3    H278093   0.661   0.806  12.534 -1.9161 -0.6831  1.3120
18868TIP3   OH278094   3.139   4.408  11.968  0.6259 -0.1144 -0.0102
18868TIP3    H178095   3.201   4.419  12.040  0.8474 -0.6294 -0.1123
18868TIP3    H278096   3.193   4.407  11.889  0.2423  1.9900 -0.3388
18869TIP3   OH278097   4.848   5.492   5.880 -0.5134  0.4332 -0.2222
18869TIP3    H178098   4.852   5.586   5.896 -0.9374  0.0808  2.3425
18869TIP3    H278099   4.774   5.480   5.820 -0.2026  1.7367 -0.8975
18870TIP3   OH278100   6.480   6.658  16.051  0.0248  0.3717 -0.8462
18870TIP3    H178101   6.503   6.611  16.130  0.9017  0.4272 -1.0636
18870TIP3    H278102   6.549   6.637  15.988 -1.0087 -0.2308 -1.8311
18871TIP3   OH278103   1.817   2.859  15.433 -0.5848 -0.0087 -0.3885
18871TIP3    H178104   1.878   2.929  15.456  0.2091 -0.4529 -1.0553
18871TIP3    H278105   1.752   2.859  15.503  1.0394 -0.5322  1.1702
18872TIP3   OH278106   1.150   5.973  15.213 -0.6860  0.5206 -0.0674
18872TIP3    H178107   1.212   5.915  15.169 -0.5303 -0.2350  1.1004
18872TIP3    H278108   1.114   5.920  15.284 -3.6654  0.4778 -1.4579
18873TIP3   OH278109   1.440   3.280   1.250  0.4815 -0.0809 -0.0400
18873TIP3    H178110   1.516   3.249   1.299 -0.9885  0.8620  3.0915
18873TIP3    H278111   1.440   3.375   1.264  0.6389  0.4630 -3.0403
18874TIP3   OH278112   2.766   0.977  14.132 -0.3184  0.0468 -0.0790
18874TIP3    H178113   2.748   0.883  14.130  2.8198 -0.6693 -0.3349
18874TIP3    H278114   2.758   1.004  14.040 -0.6301 -0.0987 -0.0972
18875TIP3   OH278115   5.789   6.012   1.346  0.1972  0.4137  0.0477
18875TIP3    H178116   5.834   5.973   1.422  1.3213 -0.9485 -1.2609
18875TIP3    H278117   5.756   6.096   1.379 -0.8586 -0.8625  2.5211
18876TIP3   OH278118   0.776   6.424   2.641  0.3409 -0.9337  0.0148
18876TIP3    H178119   0.785   6.359   2.570 -1.1137 -2.8466  1.4667
18876TIP3    H278120   0.684   6.418   2.667  0.8184 -0.2384  2.0013
18877TIP3   OH278121   1.521   4.063  14.743 -0.6839  0.3465  0.2260
18877TIP3    H178122   1.545   4.087  14.832 -0.7036  1.7223 -0.1103
18877TIP3    H278123   1.602   4.029  14.704 -0.8750 -1.0290  0.9979
18878TIP3   OH278124   3.205   4.884  16.225  0.6605  0.2285 -0.2588
18878TIP3    H178125   3.145   4.823  16.182  0.1802  0.3225  0.2681
18878TIP3    H278126   3.150   4.959  16.248  0.5489 -0.4536  1.8788
18879TIP3   OH278127   2.244   1.756   2.963 -0.2328 -0.6012  0.4774
18879TIP3    H178128   2.227   1.668   2.929  0.5636  0.0738 -1.7964
18879TIP3    H278129   2.168   1.807   2.937  0.9263  0.2130 -1.5151
18880TIP3   OH278130   6.577   4.208   1.807  0.1179  0.8981 -0.3636
18880TIP3    H178131   6.657   4.259   1.820  1.0494 -0.7440  0.8000
18880TIP3    H278132   6.507   4.273   1.807  1.5012  2.5360 -2.6573
18881TIP3   OH278133   4.646   4.892   6.340 -0.8260  0.3821 -0.5943
18881TIP3    H178134   4.609   4.831   6.404 -1.1400  0.3815 -0.7757
18881TIP3    H278135   4.728   4.852   6.313 -0.1085  0.9339  0.6676
18882TIP3   OH278136   2.082   4.625  11.411  0.9941  0.3886  0.5860
18882TIP3    H178137   2.077   4.546  11.358  0.0030  2.3224 -2.5130
18882TIP3    H278138   2.090   4.594  11.501 -0.4547 -3.2090 -0.3586
18883TIP3   OH278139   4.933   6.113   5.097  0.0710 -0.1599 -0.3213
18883TIP3    H178140   4.920   6.145   5.186 -1.5740 -0.7720 -0.3181
18883TIP3    H278141   4.952   6.020   5.107  1.9118  0.1635 -0.5142
18884TIP3   OH278142   4.754   0.167   5.153 -0.6257  0.2354 -0.1974
18884TIP3    H178143   4.685   0.184   5.217 -0.7679  0.6983 -0.4644
18884TIP3    H278144   4.741   0.076   5.127  0.9217 -0.7680  2.1887
18885TIP3   OH278145   6.455   5.518  13.769  0.0360 -0.0901  0.5526
18885TIP3    H178146   6.443   5.573  13.691 -2.4922  0.7498  1.4101
18885TIP3    H278147   6.420   5.433  13.743  0.3998 -0.1912  0.3881
18886TIP3   OH278148   3.235   0.130   4.737  0.3208 -0.2152  0.0390
18886TIP3    H178149   3.149   0.137   4.779  0.7351 -1.9672  1.2692
18886TIP3    H278150   3.218   0.145   4.644 -1.3428 -0.6875  0.2364
18887TIP3   OH278151   3.215   3.281  13.744 -0.1524 -0.1046 -0.3289
18887TIP3    H178152   3.131   3.300  13.786 -1.1302 -0.9759 -1.7923
18887TIP3    H278153   3.213   3.187  13.729  0.9918 -0.0914 -0.6029
18888TIP3   OH278154   4.712   1.881   1.022 -0.1813  0.0606  0.2878
18888TIP3    H178155   4.687   1.965   1.060 -0.1062  0.6282 -0.8509
18888TIP3    H278156   4.677   1.885   0.932  0.7700 -0.6592 -0.1283
18889TIP3   OH278157   2.279   4.451  16.468 -0.3558 -0.4611 -0.1933
18889TIP3    H178158   2.335   4.387  16.513 -0.1076  0.6626  1.1522
18889TIP3    H278159   2.306   4.536  16.504  0.6733  0.6859 -3.2950
18890TIP3   OH278160   0.090   4.509   0.285 -0.2848 -0.1573 -0.1191
18890TIP3    H178161   0.074   4.418   0.308 -0.6956 -0.3099 -0.9835
18890TIP3    H278162   0.100   4.553   0.369 -0.4497 -0.9304  0.3172
18891TIP3   OH278163   2.139   5.404  10.457  0.1486 -0.6223  0.1007
18891TIP3    H178164   2.187   5.321  10.459  1.8721  0.3401 -0.3484
18891TIP3    H278165   2.048   5.377  10.442  0.3363 -2.5434  1.9107
18892TIP3   OH278166   6.831   2.845  13.974 -1.0329  0.3163 -0.4582
18892TIP3    H178167   6.919   2.808  13.978 -1.3034 -0.4019 -0.8471
18892TIP3    H278168   6.825   2.903  14.049 -0.3692  0.0461 -0.1914
18893TIP3   OH278169   4.811   3.918  13.155 -0.5849  0.0506 -0.2855
18893TIP3    H178170   4.884   3.932  13.094 -0.6396 -0.1297 -0.3908
18893TIP3    H278171   4.803   4.002  13.201 -1.4611  0.6623 -1.5063
18894TIP3   OH278172   0.582   2.516  12.293  0.4513  0.3862  0.1049
18894TIP3    H178173   0.536   2.477  12.218  1.1290  0.1995 -0.2199
18894TIP3    H278174   0.640   2.447  12.324 -0.1462  0.3191  1.0903
18895TIP3   OH278175   2.179   5.232   2.402 -0.0085  0.1144  0.5798
18895TIP3    H178176   2.258   5.246   2.349 -1.9094  1.5802 -2.1024
18895TIP3    H278177   2.120   5.182   2.345 -1.2728 -0.4469  2.2947
18896TIP3   OH278178   0.162   4.732  16.506  0.5067  0.1738 -0.4215
18896TIP3    H178179   0.164   4.780  16.423  2.7146  1.9685  0.5749
18896TIP3    H278180   0.120   4.791  16.568  1.8751  0.2678  0.4740
18897TIP3   OH278181   2.835   6.023  12.281  0.3077  1.1028  0.0670
18897TIP3    H178182   2.911   5.965  12.290  0.0472  0.7280 -0.0825
18897TIP3    H278183   2.828   6.067  12.365  0.2549  0.5919  0.3349
18898TIP3   OH278184   4.283   0.826   5.761  0.3126 -0.4399 -0.2181
18898TIP3    H178185   4.347   0.896   5.772  0.8648 -0.4647 -2.6755
18898TIP3    H278186   4.328   0.747   5.791  0.9913 -0.2680 -0.7775
18899TIP3   OH278187   0.932   5.405  12.995 -0.4654  0.2822 -0.0998
18899TIP3    H178188   0.924   5.349  12.918  0.4402  0.6277 -0.4527
18899TIP3    H278189   0.878   5.481  12.975 -1.0437 -0.0774  0.0439
18900TIP3   OH278190   6.503   4.400   5.861 -0.6485  0.1011  0.3194
18900TIP3    H178191   6.478   4.492   5.850 -1.7107  0.1767  2.6160
18900TIP3    H278192   6.531   4.395   5.953  1.5402 -1.4317 -0.3743
18901TIP3   OH278193   4.221   6.653  15.274 -0.1881  0.0294  0.0597
18901TIP3    H178194   4.295   6.708  15.299  0.0960  0.3153 -1.2931
18901TIP3    H278195   4.153   6.674  15.338  0.8709 -0.1999  1.2870
18902TIP3   OH278196   5.046   2.552   0.811  0.1936  0.2481 -0.6513
18902TIP3    H178197   5.101   2.605   0.754 -0.9771  1.6802 -0.5061
18902TIP3    H278198   5.067   2.582   0.900  1.1159 -1.1061 -0.3888
18903TIP3   OH278199   0.304   1.899  15.196 -0.7160  0.7090  0.8162
18903TIP3    H178200   0.241   1.864  15.259 -2.1214 -0.1630 -0.9835
18903TIP3    H278201   0.255   1.965  15.147 -0.2078  0.1193 -0.5278
18904TIP3   OH278202   6.550   0.625  12.021  0.1293  0.5029 -0.0035
18904TIP3    H178203   6.466   0.581  12.035  0.5744  0.6133  4.3051
18904TIP3    H278204   6.533   0.716  12.047  1.2039  0.9531 -0.8090
18905TIP3   OH278205   2.701   2.226   0.170 -0.4419 -0.1545 -0.1948
18905TIP3    H178206   2.752   2.162   0.218 -0.0298  1.1697  1.2164
18905TIP3    H278207   2.653   2.275   0.237  1.4076  2.8599 -0.8382
18906TIP3   OH278208   2.826   3.301  11.970 -0.2243  0.0995  0.7986
18906TIP3    H178209   2.739   3.339  11.962 -0.1482  0.1287 -0.0466
18906TIP3    H278210   2.886   3.375  11.963 -0.0926 -0.0951 -0.2864
18907TIP3   OH278211   1.096   5.452  11.481 -0.0605 -0.4414 -0.1335
18907TIP3    H178212   1.090   5.395  11.405 -0.6214  0.7312 -0.9945
18907TIP3    H278213   1.008   5.453  11.518  0.0892 -0.5950  0.2349
18908TIP3   OH278214   0.167   6.715   0.395 -0.3838  0.3965  0.2564
18908TIP3    H178215   0.104   6.669   0.340 -0.5274  0.7150  0.1486
18908TIP3    H278216   0.149   6.808   0.379 -0.2102  0.4901  0.5946
18909TIP3   OH278217   2.802   1.123  16.597  0.1245  0.0076 -0.5172
18909TIP3    H178218   2.752   1.189  16.646  0.6719  0.5903 -0.7243
18909TIP3    H278219   2.894   1.149  16.610  0.3018 -0.1495 -1.3961
18910TIP3   OH278220   3.408   6.464  12.010  0.4356 -0.3056 -0.1931
18910TIP3    H178221   3.316   6.488  12.007  0.8514  1.3855 -0.2290
18910TIP3    H278222   3.408   6.369  12.021 -1.3230 -0.1232  1.9852
18911TIP3   OH278223   1.349   1.992  16.366 -0.4937  0.1038 -0.6163
18911TIP3    H178224   1.418   2.016  16.303 -0.2415  0.7673 -0.1027
18911TIP3    H278225   1.396   1.973  16.447 -0.9101  0.5703 -0.2582
18912TIP3   OH278226   0.334   1.423   5.148  0.1699  0.3915  0.1837
18912TIP3    H178227   0.300   1.334   5.138 -0.1626  0.1912  2.5530
18912TIP3    H278228   0.264   1.480   5.115 -0.4781 -0.1670  0.5871
18913TIP3   OH278229   0.534   4.306   5.569 -0.7334 -0.0608  0.5822
18913TIP3    H178230   0.467   4.304   5.638  0.5014  1.0139  1.8668
18913TIP3    H278231   0.597   4.372   5.598 -0.0141  0.2277 -1.4600
18914TIP3   OH278232   1.408   1.874  11.957 -0.1684 -0.0851 -0.6041
18914TIP3    H178233   1.453   1.807  12.008 -1.4661 -0.2497  0.3771
18914TIP3    H278234   1.342   1.826  11.907  0.3795  0.2081 -1.6438
18915TIP3   OH278235   4.950   5.347  13.686  0.0576 -0.2649  0.4104
18915TIP3    H178236   5.024   5.395  13.723 -0.2787 -0.5370  1.4473
18915TIP3    H278237   4.985   5.260  13.667  1.0297  0.6365 -2.6520
18916TIP3   OH278238   0.158   5.038  11.500  0.0266  0.0526  0.1916
18916TIP3    H178239   0.074   4.999  11.478 -0.5136  2.2577 -2.1101
18916TIP3    H278240   0.223   4.983  11.456 -0.6464  0.9936 -2.1311
18917TIP3   OH278241   0.318   4.333   0.133 -0.2868 -0.2325  0.2771
18917TIP3    H178242   0.263   4.268   0.090 -0.2570 -0.4759  0.6067
18917TIP3    H278243   0.323   4.304   0.224 -0.1174  0.1248  0.3834
18918TIP3   OH278244   4.982   2.368  14.507  0.2579 -0.0715 -0.0895
18918TIP3    H178245   4.939   2.282  14.512 -0.6972  0.3138 -1.1691
18918TIP3    H278246   4.941   2.419  14.577  1.3962 -0.7092  1.0783
18919TIP3   OH278247   4.146   2.391  11.100 -0.3695  0.0728 -0.5301
18919TIP3    H178248   4.101   2.475  11.113  0.2529  0.2700  0.4261
18919TIP3    H278249   4.198   2.404  11.020 -2.2219 -0.2697 -1.8639
18920TIP3   OH278250   4.939   0.429   5.327 -0.2698  0.2519 -0.1241
18920TIP3    H178251   4.990   0.510   5.335 -0.0642  0.0284  0.9704
18920TIP3    H278252   5.005   0.359   5.325 -0.4422  0.1033 -1.1840
18921TIP3   OH278253   4.485   3.918   1.824  0.1102 -0.2030 -0.3850
18921TIP3    H178254   4.485   4.009   1.793 -0.1877  0.0209  0.2424
18921TIP3    H278255   4.406   3.880   1.786 -0.6029  0.2561  0.5931
18922TIP3   OH278256   2.512   1.714  14.399 -0.2465  0.7481  0.5905
18922TIP3    H178257   2.502   1.634  14.451 -0.5280 -0.1890 -0.8453
18922TIP3    H278258   2.425   1.754  14.401 -0.5666  0.1083 -0.0930
18923TIP3   OH278259   4.515   6.482   4.190 -0.1689 -0.0802 -0.4558
18923TIP3    H178260   4.516   6.575   4.167 -1.2438 -0.3000 -1.4945
18923TIP3    H278261   4.581   6.442   4.134  0.3337  0.0654  0.0322
18924TIP3   OH278262   1.124   1.621  15.348  0.2005  0.4041 -0.0697
18924TIP3    H178263   1.136   1.547  15.407  0.6622  0.2447 -0.3649
18924TIP3    H278264   1.088   1.690  15.404  0.6096  0.2427  0.3919
18925TIP3   OH278265   4.987   2.995  13.545 -0.1204  0.0807 -0.0780
18925TIP3    H178266   5.018   3.024  13.459 -0.7061 -0.2486 -0.3983
18925TIP3    H278267   5.063   2.950  13.583 -0.5628 -1.9355 -1.4099
18926TIP3   OH278268   3.298   3.825  15.641 -0.1459  0.2630 -0.6273
18926TIP3    H178269   3.384   3.785  15.631 -1.3419 -3.1896  1.2783
18926TIP3    H278270   3.263   3.830  15.552  0.5623 -1.9072 -1.0774
18927TIP3   OH278271   4.390   4.557  14.345  0.8088 -0.5536 -0.0397
18927TIP3    H178272   4.475   4.550  14.300  0.8797 -0.6082  0.1014
18927TIP3    H278273   4.388   4.481  14.403  1.3135  0.2461  1.0608
18928TIP3   OH278274   5.278   5.848  12.618 -0.2869  0.2642 -0.4364
18928TIP3    H178275   5.245   5.933  12.648  0.0235  0.5709 -0.9480
18928TIP3    H278276   5.201   5.793  12.613 -0.6617  0.8311 -1.1373
18929TIP3   OH278277   0.338   2.634   3.875  0.1795  0.0013  0.2455
18929TIP3    H178278   0.314   2.669   3.961 -0.3904 -0.5803  0.3305
18929TIP3    H278279   0.259   2.590   3.844  0.3088  0.3810 -0.6725
18930TIP3   OH278280   3.998   3.609  13.444 -0.2502 -0.6382  0.2666
18930TIP3    H178281   3.980   3.521  13.476  0.6320 -1.1486 -0.5916
18930TIP3    H278282   3.937   3.665  13.493  0.4056 -1.4788  2.1563
18931TIP3   OH278283   4.965   1.982  15.449 -0.2141 -0.1453 -0.3305
18931TIP3    H178284   5.044   1.966  15.501  0.6106  2.3250 -0.6524
18931TIP3    H278285   4.932   2.066  15.482 -0.5021  0.7702 -2.7648
18932TIP3   OH278286   6.618   4.500  11.703 -0.2771 -0.4821 -0.2217
18932TIP3    H178287   6.582   4.412  11.699 -0.2593 -0.4536 -1.2095
18932TIP3    H278288   6.630   4.517  11.797 -1.6489 -0.9565  0.0557
18933TIP3   OH278289   5.036   2.551   3.290  0.6424  0.2435  0.1858
18933TIP3    H178290   4.954   2.599   3.278 -0.6658 -1.7507  0.7171
18933TIP3    H278291   5.094   2.614   3.331 -0.9408  1.4485  0.6940
18934TIP3   OH278292   0.253   2.741   5.462  0.3940  0.2031 -0.4425
18934TIP3    H178293   0.296   2.672   5.512 -2.0476 -1.3678 -0.3035
18934TIP3    H278294   0.221   2.802   5.529 -0.2638 -0.3083 -0.2720
18935TIP3   OH278295   3.271   4.556   0.469 -0.0033  0.1482  0.2945
18935TIP3    H178296   3.309   4.479   0.510  0.1953  0.0043 -0.1426
18935TIP3    H278297   3.298   4.549   0.377 -0.1849  0.6109  0.2032
18936TIP3   OH278298   2.085   4.904   0.460 -0.0494  0.1315 -0.0687
18936TIP3    H178299   2.115   4.924   0.371 -1.1489  1.5084 -0.1606
18936TIP3    H278300   2.164   4.910   0.514  0.3169  1.1411 -0.6823
18937TIP3   OH278301   1.244   2.816  10.703  0.3502  0.1909  0.0686
18937TIP3    H178302   1.267   2.857  10.619  0.4824  0.9665  0.4709
18937TIP3    H278303   1.234   2.723  10.682 -1.5672  0.6341 -1.2026
18938TIP3   OH278304   3.735   4.381  16.289  0.4066  0.3905  0.1551
18938TIP3    H178305   3.659   4.424  16.250 -1.3982 -1.1317  1.7355
18938TIP3    H278306   3.748   4.302  16.237 -1.0138 -0.8364  1.5542
18939TIP3   OH278307   4.549   6.292   1.108  0.4231  0.6453 -0.1195
18939TIP3    H178308   4.462   6.272   1.072  0.0280 -0.8228  1.4873
18939TIP3    H278309   4.604   6.304   1.031 -0.9819  0.5291 -1.1944
18940TIP3   OH278310   1.523   1.068  14.889  0.3328  0.6151  0.2116
18940TIP3    H178311   1.459   1.077  14.960 -0.6029  0.2535 -0.5561
18940TIP3    H278312   1.470   1.046  14.812  1.0800  2.9147 -1.0554
18941TIP3   OH278313   4.483   6.560   0.068 -0.3360 -1.0018 -0.0749
18941TIP3    H178314   4.449   6.492   0.010 -0.4602 -1.4365  0.5055
18941TIP3    H278315   4.551   6.604   0.016  0.0109 -1.8119 -0.3279
18942TIP3   OH278316   6.858   0.590  14.837 -0.4696  0.7557  0.4751
18942TIP3    H178317   6.892   0.648  14.769 -1.3147 -0.5185 -1.1398
18942TIP3    H278318   6.916   0.602  14.911  1.1848  1.4086 -0.8572
18943TIP3   OH278319   4.364   6.316  14.113 -0.3543 -0.6904  0.1983
18943TIP3    H178320   4.344   6.385  14.050 -1.4885 -1.7278 -0.6166
18943TIP3    H278321   4.394   6.363  14.191  0.0714  0.6577 -0.7350
18944TIP3   OH278322   5.175   2.002   1.344 -0.3442 -0.4498  0.0003
18944TIP3    H178323   5.147   2.093   1.343 -0.4351 -0.4448  1.4204
18944TIP3    H278324   5.229   1.994   1.422 -0.2603 -1.5951 -0.1529
18945TIP3   OH278325   6.688   6.629   0.891 -0.1200  0.0486 -0.0610
18945TIP3    H178326   6.710   6.537   0.877  0.1585  0.0596  0.2991
18945TIP3    H278327   6.652   6.658   0.806 -2.1834 -0.9450  0.3981
18946TIP3   OH278328   3.824   4.451  10.524 -0.5259  0.1904  0.0483
18946TIP3    H178329   3.888   4.481  10.458  2.1197  1.2624  2.8323
18946TIP3    H278330   3.792   4.532  10.564  0.0955 -0.4036  1.8729
18947TIP3   OH278331   4.192   5.308  12.459 -0.1690 -0.1502 -0.3368
18947TIP3    H178332   4.171   5.290  12.551  0.5999  0.4154 -0.0398
18947TIP3    H278333   4.162   5.230  12.412  0.6063 -1.0073  0.5552
18948TIP3   OH278334   3.920   2.469  12.859  0.2538  0.8043  0.5946
18948TIP3    H178335   3.994   2.491  12.916 -1.1871  1.9200  2.1544
18948TIP3    H278336   3.935   2.520  12.780  1.7495  0.0725  0.3762
18949TIP3   OH278337   2.829   3.624  13.369 -0.3065  0.0832 -0.0214
18949TIP3    H178338   2.858   3.543  13.410  2.3188  0.5658 -0.7706
18949TIP3    H278339   2.764   3.660  13.430 -1.2067 -2.3027  0.5296
18950TIP3   OH278340   1.936   0.116   5.291 -0.0390 -0.4047  0.3925
18950TIP3    H178341   1.887   0.069   5.358 -0.3394 -1.0023 -0.2280
18950TIP3    H278342   1.958   0.048   5.226  0.5503  0.0888  0.0683
18951TIP3   OH278343   1.800   1.211  13.373 -0.3308 -0.1608 -0.8018
18951TIP3    H178344   1.889   1.190  13.403  0.1116 -0.3782 -2.1912
18951TIP3    H278345   1.765   1.128  13.342 -1.8292 -0.5154  1.5656
18952TIP3   OH278346   1.152   1.448  12.592  0.2993  0.3190 -0.1821
18952TIP3    H178347   1.199   1.531  12.596  0.5293  0.2627 -1.4771
18952TIP3    H278348   1.214   1.384  12.628  0.1092  0.6820  0.8498
18953TIP3   OH278349   2.650   3.070  15.255  0.4370 -0.2677 -0.0306
18953TIP3    H178350   2.609   2.997  15.209 -0.8775  0.0110  0.6592
18953TIP3    H278351   2.582   3.102  15.314  1.1966  1.1095  0.1291
18954TIP3   OH278352   6.044   4.839   3.644 -0.7354 -0.4114 -0.2283
18954TIP3    H178353   6.095   4.823   3.565 -0.3128 -2.0983  0.3480
18954TIP3    H278354   6.060   4.762   3.699 -1.6323  0.3666  1.1739
18955TIP3   OH278355   4.240   1.386   5.130 -0.7941 -0.5228  0.6403
18955TIP3    H178356   4.165   1.339   5.166 -0.7019 -2.4440 -1.4524
18955TIP3    H278357   4.202   1.445   5.065 -0.5597 -0.9916  0.0731
18956TIP3   OH278358   4.811   0.444  12.190  0.1316  0.2951  0.6598
18956TIP3    H178359   4.898   0.456  12.153  0.1158  2.4017  1.1988
18956TIP3    H278360   4.825   0.442  12.285 -0.2327 -1.3350  0.7129
18957TIP3   OH278361   5.830   3.087  12.631 -0.5024 -0.4720 -0.1212
18957TIP3    H178362   5.773   3.164  12.637 -2.5388 -1.7931 -1.1086
18957TIP3    H278363   5.784   3.020  12.681  1.1597 -1.1257  0.5945
18958TIP3   OH278364   5.905   1.889  14.866  0.0262 -1.0092  0.4603
18958TIP3    H178365   5.817   1.923  14.855  0.4363 -0.4900 -1.4911
18958TIP3    H278366   5.929   1.914  14.956 -1.0232  0.7061  0.3091
18959TIP3   OH278367   4.299   0.852   0.036 -0.1958  0.1611 -0.1397
18959TIP3    H178368   4.310   0.849  -0.059  0.1748 -0.4979 -0.0812
18959TIP3    H278369   4.389   0.849   0.070 -0.3557 -0.5188  0.2419
18960TIP3   OH278370   5.795   4.806   0.510 -0.0718 -0.7107  0.8214
18960TIP3    H178371   5.798   4.901   0.527 -2.4181 -0.1413 -1.4157
18960TIP3    H278372   5.785   4.799   0.415 -0.2567 -3.2166  0.9700
18961TIP3   OH278373   0.652   2.409   1.919 -0.0070  0.0766  0.0883
18961TIP3    H178374   0.703   2.470   1.973  0.4585 -0.3903  0.1848
18961TIP3    H278375   0.667   2.438   1.829 -1.4427  1.3697  0.2203
18962TIP3   OH278376   2.870   6.102  15.868 -0.7653  0.0368  0.6663
18962TIP3    H178377   2.931   6.072  15.801 -0.9106 -1.8959  1.3502
18962TIP3    H278378   2.926   6.147  15.932 -0.5611  1.4036 -0.4123
18963TIP3   OH278379   5.568   1.237  12.697 -0.3193 -0.0676  0.0422
18963TIP3    H178380   5.595   1.271  12.612  1.6599 -0.4208  0.4846
18963TIP3    H278381   5.484   1.281  12.715 -0.4247  0.5332 -1.7485
18964TIP3   OH278382   3.178   2.330  13.318 -0.4244  0.2999  0.5979
18964TIP3    H178383   3.145   2.285  13.395 -1.3564  0.0558  0.0735
18964TIP3    H278384   3.105   2.329  13.256  0.2149  0.7186 -0.1926
18965TIP3   OH278385   4.754   0.491   2.990 -0.1227 -0.4381 -0.3016
18965TIP3    H178386   4.664   0.523   3.003  0.2561  1.8919 -2.4880
18965TIP3    H278387   4.744   0.406   2.949 -1.2990 -0.8826  0.8560
18966TIP3   OH278388   2.809   1.909   4.441  0.2445  0.4034 -0.3825
18966TIP3    H178389   2.755   1.931   4.366  0.0507  0.5027 -0.2161
18966TIP3    H278390   2.862   1.834   4.413  0.6023  0.8135 -0.8162
18967TIP3   OH278391   2.983   1.352  11.927 -0.1479  0.1803  0.2363
18967TIP3    H178392   3.075   1.328  11.919 -0.6371 -1.5993 -0.6151
18967TIP3    H278393   2.945   1.284  11.982 -1.2357 -0.0089 -0.7081
18968TIP3   OH278394   0.352   3.729  16.080 -0.1588  0.4182 -0.3363
18968TIP3    H178395   0.333   3.639  16.053  0.0132  0.5904 -1.0528
18968TIP3    H278396   0.296   3.744  16.157  1.3070 -0.9722  1.0720
18969TIP3   OH278397   4.980   5.692  16.063  0.1274 -0.1061 -0.7151
18969TIP3    H178398   4.987   5.736  15.979  0.3558 -0.6856 -1.0030
18969TIP3    H278399   4.987   5.763  16.128  2.0999  0.1291 -1.1160
18970TIP3   OH278400   5.812   0.633   1.354  0.2253  1.1965  0.1982
18970TIP3    H178401   5.771   0.718   1.342  0.8085  1.6934  1.5461
18970TIP3    H278402   5.742   0.570   1.336 -0.1553  1.9342 -1.0030
18971TIP3   OH278403   1.663   2.250  14.016  0.3279  0.2799  0.2479
18971TIP3    H178404   1.680   2.200  13.936  0.8671  3.5005 -1.7949
18971TIP3    H278405   1.726   2.214  14.079  1.4779 -0.8699 -1.4351
18972TIP3   OH278406   4.431   3.188   4.408  0.4792  0.4977  0.2121
18972TIP3    H178407   4.368   3.205   4.478  0.0559  1.5843 -0.4104
18972TIP3    H278408   4.501   3.252   4.424  0.2984  0.8656 -0.4396
18973TIP3   OH278409   0.340   4.774   2.287 -0.1716 -0.9536  0.1884
18973TIP3    H178410   0.431   4.767   2.260 -0.0141 -1.4463  0.8295
18973TIP3    H278411   0.335   4.725   2.369 -1.1619 -1.5051 -0.1867
18974TIP3   OH278412   6.808   1.329  13.819  0.1191  0.1389  0.3308
18974TIP3    H178413   6.900   1.320  13.798  0.0345 -1.4965  0.5139
18974TIP3    H278414   6.785   1.246  13.861 -0.8953  1.3543  2.3297
18975TIP3   OH278415   2.614   1.267  14.993 -0.1334 -0.0540 -0.3314
18975TIP3    H178416   2.648   1.347  14.953  2.0747 -0.8556 -0.2055
18975TIP3    H278417   2.656   1.265  15.080 -0.1075 -1.3543 -0.3632
18976TIP3   OH278418   6.569   3.998  14.830  1.0204 -0.0129  0.5032
18976TIP3    H178419   6.634   4.014  14.762  2.3266 -0.3962  1.6023
18976TIP3    H278420   6.547   3.905  14.822 -0.5180  0.4273 -0.7827
18977TIP3   OH278421   2.139   4.471  15.937  0.2099  0.2147 -0.0023
18977TIP3    H178422   2.126   4.559  15.900  2.9882 -0.0041 -1.7964
18977TIP3    H278423   2.214   4.481  15.997  0.3316 -0.8628  0.0482
18978TIP3   OH278424   2.565   5.104   3.136 -0.1275  0.7361 -0.3683
18978TIP3    H178425   2.624   5.030   3.125 -0.3736  0.6942 -1.5917
18978TIP3    H278426   2.490   5.069   3.184  0.4273  0.5719  0.3954
18979TIP3   OH278427   5.772   3.495   5.719  0.2196  1.4909 -0.3330
18979TIP3    H178428   5.745   3.469   5.807  0.5900  1.8897 -0.0943
18979TIP3    H278429   5.867   3.501   5.724  0.3346  0.3934 -1.0837
18980TIP3   OH278430   2.398   2.740   0.220 -0.2507 -0.3184  0.3255
18980TIP3    H178431   2.463   2.744   0.150 -0.3628 -0.9925  0.1821
18980TIP3    H278432   2.319   2.778   0.181  0.0246  0.4324  0.4763
18981TIP3   OH278433   3.194   0.399  16.605 -0.0040  0.1496 -0.3959
18981TIP3    H178434   3.124   0.420  16.544 -0.3172 -0.9545 -0.4441
18981TIP3    H278435   3.269   0.450  16.575 -0.7116  1.1361 -0.4968
18982TIP3   OH278436   4.658   6.776  17.102  0.2381 -0.0632  0.4065
18982TIP3    H178437   4.668   6.868  17.125  0.5641  0.6893 -2.3601
18982TIP3    H278438   4.738   6.734  17.135  1.0452  1.0684 -0.0554
18983TIP3   OH278439   6.847   4.769  17.022 -0.1507 -0.3782 -0.2579
18983TIP3    H178440   6.754   4.790  17.027 -0.3629 -1.4131  0.9570
18983TIP3    H278441   6.849   4.677  16.996  0.7319  0.8864 -5.9421
18984TIP3   OH278442   1.461   0.276  13.483  1.0621 -0.4339 -0.0185
18984TIP3    H178443   1.425   0.195  13.518  1.0566  0.6558  2.7956
18984TIP3    H278444   1.386   0.321  13.445  0.2533 -0.1574  1.7941
18985TIP3   OH278445   5.055   0.227  11.716  0.7167 -0.0311 -0.0245
18985TIP3    H178446   4.982   0.165  11.719 -0.1317  0.9808  1.2261
18985TIP3    H278447   5.133   0.173  11.731  0.1975 -1.0484 -0.8432
18986TIP3   OH278448   3.078   4.894  12.136  0.3108 -0.4734 -0.4598
18986TIP3    H178449   3.104   4.947  12.211 -0.7868  0.5947 -0.8010
18986TIP3    H278450   3.015   4.832  12.172 -0.2536  0.0711 -0.4973
18987TIP3   OH278451   2.967   6.806  15.663  0.4579  0.3661  0.2472
18987TIP3    H178452   2.933   6.823  15.751 -0.3450  2.8675 -0.4499
18987TIP3    H278453   3.055   6.843  15.664  0.2254  0.9450 -0.1441
18988TIP3   OH278454   0.798   2.574  16.696 -0.0322 -0.3026 -0.3051
18988TIP3    H178455   0.826   2.653  16.742 -0.2121 -1.2392  1.4974
18988TIP3    H278456   0.844   2.503  16.740  0.1123 -1.2388 -1.8755
18989TIP3   OH278457   2.535   3.408  11.080 -0.7153 -0.0548 -0.1213
18989TIP3    H178458   2.579   3.390  10.997 -1.1632 -2.7552  0.1274
18989TIP3    H278459   2.587   3.478  11.120  1.5900 -1.0741 -1.1513
18990TIP3   OH278460   0.802   2.759   3.314 -0.3480  0.6019  0.3923
18990TIP3    H178461   0.776   2.722   3.399 -0.6748 -0.2393 -0.0675
18990TIP3    H278462   0.720   2.767   3.266 -0.2129  1.4389  0.2796
18991TIP3   OH278463   6.601   5.243   5.000 -0.3949  0.4122  0.4918
18991TIP3    H178464   6.626   5.315   4.943  0.1861 -0.8521 -0.9336
18991TIP3    H278465   6.509   5.225   4.977  0.0163 -0.4905 -0.5477
18992TIP3   OH278466   5.749   3.309   5.524 -0.9133 -0.1311  0.5159
18992TIP3    H178467   5.799   3.234   5.556  0.6685 -0.0395 -1.4668
18992TIP3    H278468   5.766   3.379   5.587  1.9910  0.0283 -0.3010
18993TIP3   OH278469   6.237   1.971  12.043  0.1642  0.6152  0.1371
18993TIP3    H178470   6.172   2.039  12.027  0.5722  0.8370 -0.6262
18993TIP3    H278471   6.320   2.010  12.014  0.1803 -0.7756 -1.8826
18994TIP3   OH278472   2.729   0.405   1.513 -0.1768 -0.0681  0.6441
18994TIP3    H178473   2.665   0.347   1.471  1.6473 -1.7012 -0.0559
18994TIP3    H278474   2.770   0.451   1.440 -0.5208  0.9796  1.0916
18995TIP3   OH278475   1.861   3.780  11.262  0.5530 -0.0734 -0.1486
18995TIP3    H178476   1.895   3.735  11.185 -1.7292  1.5867 -2.3073
18995TIP3    H278477   1.899   3.868  11.257 -0.8868  0.5725 -0.4163
18996TIP3   OH278478   5.744   6.570  15.196 -0.2213 -0.5032 -0.4367
18996TIP3    H178479   5.771   6.576  15.104 -2.3454 -0.2629 -1.1179
18996TIP3    H278480   5.758   6.658  15.230  0.5925 -0.5955 -0.5217
18997TIP3   OH278481   3.422   1.139   4.464 -0.3950  0.1833 -0.7274
18997TIP3    H178482   3.329   1.129   4.484  0.0828  1.2234  2.6095
18997TIP3    H278483   3.425   1.212   4.402 -1.7285  0.9675  0.0929
18998TIP3   OH278484   1.583   0.978   3.435 -0.0602  0.6667 -0.3200
18998TIP3    H178485   1.586   0.891   3.475  1.1832  0.6712 -0.3784
18998TIP3    H278486   1.565   0.961   3.342 -1.5635  0.5847 -0.0358
18999TIP3   OH278487   6.856   2.263  16.481  0.3387 -0.3583  0.1145
18999TIP3    H178488   6.950   2.282  16.478 -0.0432  2.0802  0.8481
18999TIP3    H278489   6.850   2.175  16.516  2.3428 -0.3021  0.7294
19000TIP3   OH278490   5.728   6.528   0.493  0.5171  0.1939 -0.2590
19000TIP3    H178491   5.766   6.442   0.510  1.0875  0.6104  0.7056
19000TIP3    H278492   5.670   6.515   0.418  1.5202 -0.7566 -0.8928
19001TIP3   OH278493   6.265   3.703   3.526 -0.4433 -0.2051 -0.1526
19001TIP3    H178494   6.321   3.778   3.540 -0.5817 -0.0113 -0.6219
19001TIP3    H278495   6.228   3.684   3.612  0.8083 -0.7191  0.2847
19002TIP3   OH278496   4.127   3.290  16.969  0.3150  0.0313  0.1308
19002TIP3    H178497   4.173   3.210  16.996  0.3037  0.1337  0.4606
19002TIP3    H278498   4.195   3.358  16.968  0.1219  0.2482  0.9132
19003TIP3   OH278499   3.664   5.199  16.034 -0.0842 -0.0872  0.0214
19003TIP3    H178500   3.624   5.113  16.040 -0.2222 -0.0715 -0.6195
19003TIP3    H278501   3.711   5.199  15.950 -2.8683  1.5975 -1.7040
19004TIP3   OH278502   1.242   6.073   4.620  0.0429  0.3551 -0.1013
19004TIP3    H178503   1.307   6.105   4.684 -0.2773  0.1721  0.3180
19004TIP3    H278504   1.239   5.979   4.634 -1.4402  0.5292  0.9603
19005TIP3   OH278505   2.667   5.872   5.678 -0.2871 -1.0336 -0.2861
19005TIP3    H178506   2.605   5.860   5.749 -1.0736 -0.1159 -0.7934
19005TIP3    H278507   2.614   5.874   5.599  0.5050 -1.3711 -0.8438
19006TIP3   OH278508   1.714   0.863  14.469  0.0897  0.2532 -1.0250
19006TIP3    H178509   1.689   0.945  14.510  0.9216 -0.7458  1.7158
19006TIP3    H278510   1.693   0.796  14.534  0.9795 -1.5589 -2.4917
19007TIP3   OH278511   2.379   4.160   1.559  0.1460 -0.0041  0.3922
19007TIP3    H178512   2.408   4.089   1.503  0.7422  1.3604 -1.1142
19007TIP3    H278513   2.311   4.204   1.508  0.8853  1.4318  0.6000
19008TIP3   OH278514   1.939   5.525   2.991  0.6687  0.5476 -0.2225
19008TIP3    H178515   1.887   5.601   3.020  1.4443  1.5525 -1.3534
19008TIP3    H278516   1.942   5.534   2.896  2.2404  0.0655 -0.2365
19009TIP3   OH278517   1.318   0.887   5.922 -0.1096 -0.3541  0.6271
19009TIP3    H178518   1.366   0.927   5.850 -0.2112 -1.3550 -0.0238
19009TIP3    H278519   1.260   0.823   5.880 -1.2980  0.1211  1.4723
19010TIP3   OH278520   4.666   1.710   1.241 -0.3471  0.2838  0.5202
19010TIP3    H178521   4.745   1.688   1.291  0.4836  1.2006 -0.3659
19010TIP3    H278522   4.690   1.787   1.190 -2.1828  1.2939  1.0965
19011TIP3   OH278523   1.709   2.651   1.867  0.1422 -0.1254  0.3932
19011TIP3    H178524   1.707   2.707   1.789 -0.5409  0.0703  0.5361
19011TIP3    H278525   1.727   2.712   1.939 -0.3111 -0.1283  0.5135
19012TIP3   OH278526   1.782   0.895  11.293  0.4068 -0.5890 -0.3675
19012TIP3    H178527   1.848   0.962  11.276  0.5677 -0.6298  0.1056
19012TIP3    H278528   1.701   0.933  11.256  0.7395 -0.6606 -1.1898
19013TIP3   OH278529   3.403   1.972   0.807  0.3511  0.0204 -0.3767
19013TIP3    H178530   3.437   1.888   0.839  0.6959  0.0367 -0.6956
19013TIP3    H278531   3.308   1.963   0.816  0.1678 -1.4400 -2.8183
19014TIP3   OH278532   5.311   1.236  16.011  0.7608 -0.0695 -0.4172
19014TIP3    H178533   5.327   1.323  16.050  1.2151 -0.2371 -0.2223
19014TIP3    H278534   5.386   1.183  16.040  1.0256 -0.2422 -1.3964
19015TIP3   OH278535   3.833   0.012  13.810  0.6156 -0.5573 -0.3677
19015TIP3    H178536   3.753  -0.024  13.773  0.5684 -1.6458  0.7341
19015TIP3    H278537   3.804   0.069  13.882  0.7639  0.5194 -1.1359
19016TIP3   OH278538   6.608   2.488   0.902 -0.0823  0.0438 -0.0968
19016TIP3    H178539   6.532   2.446   0.863 -0.2821  0.0506  0.2802
19016TIP3    H278540   6.572   2.541   0.974  0.2301  0.3742 -0.1784
19017TIP3   OH278541   5.223   0.007   0.577 -0.3667  0.2653 -0.2993
19017TIP3    H178542   5.307  -0.011   0.617 -0.8783 -3.3307 -0.5502
19017TIP3    H278543   5.161   0.012   0.650 -0.3727 -0.0855 -0.2797
19018TIP3   OH278544   6.553   3.917   4.248 -0.4237 -0.3592 -0.0700
19018TIP3    H178545   6.589   3.915   4.336 -2.2386  0.4482  0.7313
19018TIP3    H278546   6.629   3.926   4.191  0.8239 -1.3672  1.3587
19019TIP3   OH278547   2.567   4.718  12.214 -0.4182 -0.1614  0.1733
19019TIP3    H178548   2.660   4.740  12.218 -0.3307 -0.7036  1.8498
19019TIP3    H278549   2.556   4.673  12.130  1.1791 -1.5416  0.6436
19020TIP3   OH278550   0.295   6.054   5.182 -0.2124 -0.0960  0.2145
19020TIP3    H178551   0.300   6.110   5.105 -1.8261 -0.6593 -0.3497
19020TIP3    H278552   0.226   5.991   5.161  0.1420 -1.0136  1.6455
19021TIP3   OH278553   2.905   0.357   4.013 -0.0371 -0.5593 -0.2196
19021TIP3    H178554   2.809   0.356   4.013 -0.1092 -2.7334  2.5349
19021TIP3    H278555   2.930   0.271   3.980  1.0098  0.0475 -1.0687
19022TIP3   OH278556   0.623   5.112  15.948  0.2535  0.0145 -0.7668
19022TIP3    H178557   0.531   5.141  15.950  0.1180 -0.4505  0.4053
19022TIP3    H278558   0.663   5.153  16.024  0.3850 -1.7543  0.1678
19023TIP3   OH278559   6.815   5.108  16.457  0.0619  0.2674  0.1981
19023TIP3    H178560   6.735   5.071  16.419  0.3650 -0.9956  0.7617
19023TIP3    H278561   6.835   5.183  16.400 -1.4346  0.5298 -0.0294
19024TIP3   OH278562   2.270   6.589   0.184  0.0757  0.2025  0.0078
19024TIP3    H178563   2.326   6.516   0.158 -0.4849  0.1674 -1.1775
19024TIP3    H278564   2.181   6.559   0.164 -0.3196  0.5362  1.1839
19025TIP3   OH278565   5.678   1.971   5.563  0.2336 -0.2564 -0.3288
19025TIP3    H178566   5.757   1.932   5.525 -0.6029 -0.8535 -1.5184
19025TIP3    H278567   5.606   1.920   5.526 -0.6851 -0.1936  1.3063
19026TIP3   OH278568   2.962   2.630   6.525  0.1480 -0.5386  0.6336
19026TIP3    H178569   2.883   2.614   6.576 -0.7662  0.5128 -0.4153
19026TIP3    H278570   2.931   2.663   6.441  1.6823 -0.6080 -0.0013
19027TIP3   OH278571   0.664   5.270   1.466  0.5324 -0.6910 -0.7108
19027TIP3    H178572   0.616   5.232   1.392  0.2775  0.7695 -1.3404
19027TIP3    H278573   0.735   5.208   1.483  1.5025 -0.3832 -3.1743
19028TIP3   OH278574   0.554   3.846  16.631  0.4364 -0.0827 -0.1625
19028TIP3    H178575   0.649   3.840  16.636  0.3452 -0.4581  2.3677
19028TIP3    H278576   0.533   3.926  16.678 -0.5735 -1.0044  1.0194
19029TIP3   OH278577   6.149   6.086  13.208  0.3896  0.1521  0.1404
19029TIP3    H178578   6.091   6.040  13.269  1.0142  0.2252  0.7969
19029TIP3    H278579   6.194   6.151  13.262 -0.2570  1.3419 -0.7178
19030TIP3   OH278580   1.291   2.256   3.647  0.3904  0.0528  0.1709
19030TIP3    H178581   1.370   2.204   3.665 -0.5879 -2.3270 -1.8181
19030TIP3    H278582   1.306   2.293   3.561  0.1066  1.2436  0.6141
19031TIP3   OH278583   1.254   2.417   0.501 -0.0439  0.5126 -0.4557
19031TIP3    H178584   1.205   2.477   0.445  2.2983  1.5269 -1.5310
19031TIP3    H278585   1.284   2.348   0.442  1.1031  0.7485 -0.1790
19032TIP3   OH278586   4.151   5.005   2.291 -0.1553  1.0928  0.1312
19032TIP3    H178587   4.203   4.926   2.298 -0.3983  0.4354 -3.6310
19032TIP3    H278588   4.101   5.008   2.373  0.4023 -2.2193  0.7226
19033TIP3   OH278589   0.192   0.135  12.488  0.0351 -0.1488 -0.0825
19033TIP3    H178590   0.251   0.164  12.558  0.4560 -1.9826  0.3809
19033TIP3    H278591   0.109   0.179  12.506  0.4844  0.3294  0.8640
19034TIP3   OH278592   1.013   0.022  13.568 -0.2496  0.0091  0.0838
19034TIP3    H178593   1.080   0.043  13.634  0.6498 -1.7692 -0.1970
19034TIP3    H278594   1.062   0.014  13.486 -0.7314 -1.5067 -0.0956
19035TIP3   OH278595   5.154   6.774  16.751 -0.3955  0.1636 -0.3828
19035TIP3    H178596   5.243   6.765  16.783  0.4508  1.3399 -2.2736
19035TIP3    H278597   5.106   6.703  16.794  1.2627 -0.0632  1.2061
19036TIP3   OH278598   6.024   4.293  17.110  0.2916  0.5240 -0.5359
19036TIP3    H178599   5.975   4.372  17.088  0.0188  0.1256 -1.4102
19036TIP3    H278600   6.112   4.323  17.132  1.0289  0.8701 -3.5648
19037TIP3   OH278601   5.417   3.888  11.959  0.6593  0.1767  0.4932
19037TIP3    H178602   5.438   3.805  12.003  0.3794  0.1039  0.4897
19037TIP3    H278603   5.359   3.933  12.020 -1.7439 -0.9747 -0.8223
19038TIP3   OH278604   2.647   4.781   1.571  0.2730  0.1865  0.1788
19038TIP3    H178605   2.559   4.760   1.601  0.1246  0.9036  0.2599
19038TIP3    H278606   2.635   4.843   1.499  0.6247 -1.4801 -1.3990
19039TIP3   OH278607   5.880   4.538   0.438  0.0287 -0.2982 -0.4521
19039TIP3    H178608   5.877   4.628   0.470 -0.8206  0.0519 -1.4628
19039TIP3    H278609   5.913   4.545   0.349  0.6913 -1.0781 -0.2818
19040TIP3   OH278610   1.298   4.884   1.659  0.2989  0.1246  0.1498
19040TIP3    H178611   1.224   4.841   1.617  0.8916  0.7795 -1.6290
19040TIP3    H278612   1.263   4.914   1.743 -1.1335 -0.5290 -0.1806
19041TIP3   OH278613   4.867   6.087   2.119 -0.4461  0.3067 -0.3124
19041TIP3    H178614   4.780   6.054   2.144 -0.2715 -0.1581 -0.3071
19041TIP3    H278615   4.854   6.181   2.106 -1.2933  0.0157 -1.7910
19042TIP3   OH278616   2.208   6.062  13.528 -0.4015  0.5798  0.5400
19042TIP3    H178617   2.233   6.044  13.619  0.4032 -0.4937  0.1290
19042TIP3    H278618   2.114   6.080  13.532 -0.4805  0.0171  1.5101
19043TIP3   OH278619   1.225   1.888  16.109 -0.1893  0.3259 -0.8618
19043TIP3    H178620   1.303   1.844  16.077 -0.7486 -1.6714  0.3357
19043TIP3    H278621   1.247   1.915  16.198 -0.4297  0.9859 -0.9905
19044TIP3   OH278622   6.645   2.999  14.399 -0.4013  0.1535  0.6242
19044TIP3    H178623   6.705   2.925  14.387  0.3845  1.2282 -3.2077
19044TIP3    H278624   6.698   3.076  14.381 -2.2544  1.3442 -0.0054
19045TIP3   OH278625   1.883   1.345  17.089 -0.3563  0.5525 -0.3071
19045TIP3    H178626   1.838   1.302  17.162  1.6152 -1.0563  0.0645
19045TIP3    H278627   1.932   1.416  17.130 -1.0666  1.1219 -0.4318
19046TIP3   OH278628   5.582   3.987  10.507  0.3916 -0.7078 -0.6125
19046TIP3    H178629   5.675   3.988  10.488 -0.0480 -0.8905 -3.0943
19046TIP3    H278630   5.555   4.079  10.501  0.6199 -0.4358  1.6319
19047TIP3   OH278631   3.420   6.150  12.270  0.1134 -0.1107 -0.2825
19047TIP3    H178632   3.442   6.230  12.317 -0.1944  0.4254 -1.0368
19047TIP3    H278633   3.480   6.084  12.306  1.0118  0.6674 -0.3108
19048TIP3   OH278634   1.044   3.180  12.008 -0.1621  0.4326  0.3143
19048TIP3    H178635   1.088   3.261  11.983 -0.5939  1.0136  1.3454
19048TIP3    H278636   1.097   3.147  12.081  0.0990 -0.3097 -0.1968
19049TIP3   OH278637   1.151   4.559   0.776 -0.3304 -0.0768 -0.4276
19049TIP3    H178638   1.224   4.617   0.796 -0.3923 -0.3341  0.6241
19049TIP3    H278639   1.180   4.473   0.806 -1.2017 -0.1086  0.3708
19050TIP3   OH278640   0.188   0.933  12.328  0.1633 -0.2717  0.0648
19050TIP3    H178641   0.120   0.869  12.306  0.6768 -0.8637  0.1784
19050TIP3    H278642   0.235   0.948  12.246 -0.8043  1.0055 -0.2870
19051TIP3   OH278643   1.384   0.856  13.413 -0.0927 -0.1662  0.2320
19051TIP3    H178644   1.478   0.842  13.426  0.2569  2.2478  0.9622
19051TIP3    H278645   1.345   0.770  13.426  1.8364 -0.8941  1.8168
19052TIP3   OH278646   0.835   6.637  12.229 -0.1464  0.1208 -0.1192
19052TIP3    H178647   0.851   6.589  12.311 -0.1892  2.3736  1.3120
19052TIP3    H278648   0.786   6.715  12.256 -1.2702  0.3279 -2.5065
19053TIP3   OH278649   1.687   4.353  16.167  0.0087  0.1349 -0.0172
19053TIP3    H178650   1.779   4.330  16.158  0.0030  0.3933 -0.8095
19053TIP3    H278651   1.639   4.276  16.136 -0.0302  0.4257 -0.6803
19054TIP3   OH278652   5.400   2.866   6.097 -0.1585  0.4812 -0.7621
19054TIP3    H178653   5.392   2.772   6.113 -0.3400  0.7997  1.2226
19054TIP3    H278654   5.467   2.873   6.028  1.1714 -1.0440  0.3059
19055TIP3   OH278655   0.654   5.676  10.604 -0.1442 -0.3947 -0.2018
19055TIP3    H178656   0.680   5.716  10.521  0.8845 -1.0269 -0.2085
19055TIP3    H278657   0.718   5.605  10.617 -0.4137 -0.4302  1.0315
19056TIP3   OH278658   2.605   5.836   4.086  0.2011 -0.1660 -0.1599
19056TIP3    H178659   2.677   5.774   4.100 -1.2684 -1.7678  0.6642
19056TIP3    H278660   2.581   5.824   3.994  1.0601  0.5023 -0.4880
19057TIP3   OH278661   2.549   6.505   5.011 -0.1729 -0.8880  0.2504
19057TIP3    H178662   2.497   6.584   5.030  0.9283 -0.5590  2.1425
19057TIP3    H278663   2.525   6.443   5.080  0.3711 -1.5186 -0.1132
19058TIP3   OH278664   1.149   2.225  14.206 -0.2459 -0.7336 -0.7601
19058TIP3    H178665   1.128   2.291  14.140 -1.2239  0.3355  0.5647
19058TIP3    H278666   1.244   2.232  14.219 -0.6337  2.4771  1.3518
19059TIP3   OH278667   1.996   0.209   1.949  0.0948 -0.0683 -0.0367
19059TIP3    H178668   2.062   0.148   1.984  1.3647  0.0484 -2.0493
19059TIP3    H278669   2.044   0.291   1.935 -1.5209  1.4009  2.3356
19060TIP3   OH278670   6.067   4.797   1.228 -0.1600  0.1128  0.2769
19060TIP3    H178671   5.996   4.855   1.256 -0.1705 -0.2793  1.0936
19060TIP3    H278672   6.034   4.754   1.150  0.5910  2.6498 -1.5729
19061TIP3   OH278673   5.866   5.767   1.987  0.3297 -0.2785 -0.1951
19061TIP3    H178674   5.861   5.672   1.998 -0.1496 -0.2100  0.2503
19061TIP3    H278675   5.849   5.782   1.894 -2.2898 -0.4806  0.1782
19062TIP3   OH278676   4.278   4.172  11.952 -0.4759  0.8969  0.0758
19062TIP3    H178677   4.243   4.151  11.865 -0.5803  0.2560  0.2688
19062TIP3    H278678   4.296   4.266  11.948 -0.4685  0.8723 -0.6443
19063TIP3   OH278679   2.173   2.907   0.176  0.7929  0.4440 -0.5442
19063TIP3    H178680   2.216   2.942   0.254  0.0750  0.5777 -0.1925
19063TIP3    H278681   2.101   2.968   0.159  1.4633  0.8926 -1.8338
19064TIP3   OH278682   6.208   4.652  13.287  0.0397 -0.3082  0.5457
19064TIP3    H178683   6.121   4.610  13.283  0.9619 -2.3945  1.1535
19064TIP3    H278684   6.267   4.582  13.316  2.0911  0.8218 -0.6772
19065TIP3   OH278685   1.940   1.884  16.847  0.4660 -0.4260 -0.2107
19065TIP3    H178686   1.976   1.829  16.778  0.2840  1.2442 -1.7230
19065TIP3    H278687   1.858   1.917  16.811  0.0669  0.0294  1.0534
19066TIP3   OH278688   1.832   3.176  13.896  0.2563  0.0874  0.2024
19066TIP3    H178689   1.905   3.181  13.958  0.1936 -0.6385  0.3375
19066TIP3    H278690   1.874   3.170  13.810  0.4684 -2.8456  0.4021
19067TIP3   OH278691   6.181   0.786   3.318  0.0893  0.3403  0.5073
19067TIP3    H178692   6.197   0.840   3.395  2.0027 -0.7705  0.9516
19067TIP3    H278693   6.101   0.737   3.340  0.5165  0.1510  1.7477
19068TIP3   OH278694   1.117   2.262  16.130 -0.0166 -0.2560  0.0000
19068TIP3    H178695   1.037   2.316  16.128  0.4958  0.5719  1.1413
19068TIP3    H278696   1.181   2.313  16.081  0.2662 -0.1820  0.4516
19069TIP3   OH278697   2.381   4.674   1.656 -1.0300  0.5863 -0.1543
19069TIP3    H178698   2.388   4.715   1.570 -1.7073  1.4461  0.1988
19069TIP3    H278699   2.287   4.668   1.673 -0.8923  0.9371  0.7692
19070TIP3   OH278700   1.688   5.023   5.656 -0.2580 -0.3755 -0.1560
19070TIP3    H178701   1.723   5.111   5.670  1.8455 -0.6309 -2.9880
19070TIP3    H278702   1.640   5.003   5.737  0.1184  2.8867  1.0231
19071TIP3   OH278703   5.881   0.165   3.204  0.9527 -0.4072  0.0448
19071TIP3    H178704   5.852   0.074   3.213  0.2124  0.0198  2.6684
19071TIP3    H278705   5.972   0.158   3.176  0.7290 -1.9097 -0.4328
19072TIP3   OH278706   6.221   2.737  11.498 -0.2921  0.5254 -0.3097
19072TIP3    H178707   6.227   2.828  11.467 -0.0185  0.4827 -0.3818
19072TIP3    H278708   6.257   2.740  11.587 -0.1698  0.4624 -0.3584
19073TIP3   OH278709   4.697   6.539  12.673  0.0138 -0.7572  0.1596
19073TIP3    H178710   4.634   6.467  12.680  0.4204 -1.2246 -0.7230
19073TIP3    H278711   4.665   6.591  12.599  0.1714 -0.4938  0.2791
19074TIP3   OH278712   4.862   3.012  13.192  0.2649  0.2283 -0.1403
19074TIP3    H178713   4.873   3.102  13.223  0.2888  0.6407 -1.2678
19074TIP3    H278714   4.927   3.004  13.121  0.2987 -0.6956 -0.0161
19075TIP3   OH278715   3.167   5.247   5.773  0.9249  0.7063  0.0429
19075TIP3    H178716   3.181   5.295   5.691 -0.1792  2.3625  0.7525
19075TIP3    H278717   3.163   5.316   5.839 -2.0439 -0.2133  0.9471
19076TIP3   OH278718   6.388   3.187   1.238 -0.7876  0.2506 -0.9452
19076TIP3    H178719   6.408   3.139   1.158 -0.1471  0.4707 -0.9229
19076TIP3    H278720   6.409   3.125   1.308 -2.3321 -0.3192 -0.9435
19077TIP3   OH278721   1.090   2.876  16.958  0.4640  0.0074  0.4315
19077TIP3    H178722   1.139   2.807  16.915  1.5056  1.3516 -0.6130
19077TIP3    H278723   1.130   2.958  16.927 -1.6789  1.1336  0.4393
19078TIP3   OH278724   3.729   5.670   3.600 -0.5293 -0.2779 -0.7137
19078TIP3    H178725   3.742   5.763   3.584 -3.0593  0.0418 -1.3217
19078TIP3    H278726   3.676   5.640   3.527  0.1205 -2.1790 -0.4464
19079TIP3   OH278727   1.682   2.979   2.301 -0.7015  0.4154 -0.3716
19079TIP3    H178728   1.709   2.951   2.388  1.1326 -2.4718 -1.7296
19079TIP3    H278729   1.741   3.052   2.280  0.4313 -0.3731 -0.0413
19080TIP3   OH278730   4.870   0.019   0.292  0.1313  0.2979  0.1434
19080TIP3    H178731   4.785   0.014   0.335 -1.6284  0.8602 -2.9675
19080TIP3    H278732   4.885   0.113   0.279  1.6391  0.2550  1.2431
19081TIP3   OH278733   2.992   0.256   1.901 -0.2256 -0.1289 -0.3360
19081TIP3    H178734   2.982   0.336   1.849 -1.9744 -0.0142  0.0979
19081TIP3    H278735   3.028   0.287   1.985 -0.5706  0.1778 -0.2934
19082TIP3   OH278736   4.745   6.696  11.747 -0.0858 -0.2798 -0.1031
19082TIP3    H178737   4.799   6.751  11.690 -1.5971 -0.6681 -2.0701
19082TIP3    H278738   4.806   6.657  11.809  1.9148 -0.7023 -2.1803
19083TIP3   OH278739   6.192   3.589  11.709  0.1429  0.2203  0.1160
19083TIP3    H178740   6.199   3.505  11.664  0.7784  0.2944  0.0681
19083TIP3    H278741   6.125   3.637  11.660  0.7523  0.2588 -0.7068
19084TIP3   OH278742   0.351   2.142  12.524  0.1227 -0.0217  0.1799
19084TIP3    H178743   0.367   2.124  12.616 -1.3052  3.5230  1.2994
19084TIP3    H278744   0.437   2.164  12.488  0.8150 -2.1847  0.3825
19085TIP3   OH278745   6.791   5.323   2.612  0.6499  0.3067 -0.0737
19085TIP3    H178746   6.719   5.385   2.613  0.0897 -0.3326  0.1182
19085TIP3    H278747   6.864   5.369   2.655  0.9001  1.5764 -1.7658
19086TIP3   OH278748   2.467   3.446  10.213 -0.3704  0.1597 -0.4554
19086TIP3    H178749   2.528   3.444  10.139 -1.0689  2.4177 -1.1803
19086TIP3    H278750   2.507   3.390  10.279  3.3152  2.6984 -0.2647
19087TIP3   OH278751   2.899   6.310  15.538  0.5176 -0.4204 -0.4558
19087TIP3    H178752   2.854   6.392  15.558  0.6536 -0.6133  0.7424
19087TIP3    H278753   2.971   6.308  15.601  0.2915 -1.6393 -0.2253
19088TIP3   OH278754   6.747   6.439   3.992 -0.1788 -0.3112  0.0690
19088TIP3    H178755   6.775   6.489   4.069 -0.7673  0.3322 -0.1310
19088TIP3    H278756   6.805   6.469   3.922 -1.0461  0.6715 -0.2339
19089TIP3   OH278757   3.147   0.362   2.475  0.2262  0.3305  0.1912
19089TIP3    H178758   3.087   0.290   2.492  1.1942 -0.3310  0.8632
19089TIP3    H278759   3.118   0.432   2.534 -0.6282  0.4683 -0.3689
19090TIP3   OH278760   4.749   5.301  14.391 -0.4311  0.2771 -0.2641
19090TIP3    H178761   4.655   5.300  14.411 -0.1972 -0.1611  0.8643
19090TIP3    H278762   4.791   5.271  14.471  0.6438 -0.2136 -0.9897
19091TIP3   OH278763   0.641   6.552   5.104  0.2695 -0.0685  0.4043
19091TIP3    H178764   0.654   6.606   5.183  0.9090 -1.3955  1.2438
19091TIP3    H278765   0.716   6.493   5.103  0.5238  0.2235 -1.4951
19092TIP3   OH278766   3.685   3.742   2.254 -0.5561 -0.0552 -0.0133
19092TIP3    H178767   3.615   3.699   2.205 -0.6958  1.0272 -0.7977
19092TIP3    H278768   3.643   3.779   2.331 -0.4848 -1.0599  0.5209
19093TIP3   OH278769   5.151   5.453  16.095  0.4834  0.3214  0.3512
19093TIP3    H178770   5.090   5.516  16.057  0.0659 -0.9830 -1.2203
19093TIP3    H278771   5.096   5.378  16.119  1.0355  0.3558  1.7957
19094TIP3   OH278772   4.170   0.367   4.556 -0.6656  0.3822  0.4932
19094TIP3    H178773   4.159   0.357   4.651 -1.2928  1.0624  0.5069
19094TIP3    H278774   4.229   0.442   4.547 -3.6353  2.9255  0.3757
19095TIP3   OH278775   2.524   3.667   2.090  0.2666  0.3750  0.5184
19095TIP3    H178776   2.500   3.579   2.119 -0.1268  0.6876  1.1472
19095TIP3    H278777   2.615   3.658   2.061 -0.3940 -0.7013 -1.4099
19096TIP3   OH278778   0.631   1.342  15.087  0.2552  0.5534  0.0302
19096TIP3    H178779   0.632   1.283  15.163  1.0913 -0.5922 -0.8255
19096TIP3    H278780   0.542   1.337  15.054  0.6049 -1.2835 -0.7697
19097TIP3   OH278781   0.726   5.245   2.798 -0.4484 -0.1689 -0.0988
19097TIP3    H178782   0.660   5.270   2.734 -0.5412 -0.4896 -0.1303
19097TIP3    H278783   0.682   5.253   2.883  0.1936  2.0044  0.0964
19098TIP3   OH278784   2.089   2.954  16.788  0.1238  0.3008 -0.0155
19098TIP3    H178785   2.076   3.014  16.715  0.7408  0.6114  0.1245
19098TIP3    H278786   2.179   2.925  16.779 -0.0075 -0.1968  0.2319
19099TIP3   OH278787   0.009   5.894   1.345 -0.5001 -0.2680 -0.2113
19099TIP3    H178788   0.103   5.882   1.355 -0.2468  1.3104 -0.4020
19099TIP3    H278789  -0.029   5.845   1.417  0.4582 -1.0266 -0.2061
19100TIP3   OH278790   1.658   0.868   1.088  0.3893 -0.4843  0.2945
19100TIP3    H178791   1.718   0.794   1.081  0.9334 -0.0159 -0.1671
19100TIP3    H278792   1.614   0.871   1.003  0.7004 -0.0196  0.1389
19101TIP3   OH278793   4.554   0.111  12.658  0.1438 -0.1921  0.0824
19101TIP3    H178794   4.558   0.027  12.611  0.9638  0.4821 -1.1059
19101TIP3    H278795   4.462   0.122  12.680  0.2390 -2.2394  1.8539
19102TIP3   OH278796   5.059   5.116   0.049 -0.2581 -0.2504 -0.5339
19102TIP3    H178797   5.083   5.024   0.034 -0.4306 -0.2839 -0.6005
19102TIP3    H278798   4.965   5.114   0.068 -0.1849 -0.1307 -0.1474
19103TIP3   OH278799   4.480   1.901   2.749 -0.2924 -0.0158 -0.1923
19103TIP3    H178800   4.474   1.908   2.653  0.2242  1.5690 -0.1451
19103TIP3    H278801   4.540   1.828   2.764 -0.3539 -0.2612 -1.0765
19104TIP3   OH278802   3.218   3.715  16.901  0.1458 -0.2981  0.8263
19104TIP3    H178803   3.295   3.733  16.847  0.0645 -2.5305 -0.1632
19104TIP3    H278804   3.225   3.622  16.922 -1.3610 -0.1406  2.2527
19105TIP3   OH278805   4.247   0.664  13.107  0.1536 -0.2584 -0.4052
19105TIP3    H178806   4.197   0.629  13.033 -0.7939 -0.3044  0.2401
19105TIP3    H278807   4.277   0.586  13.153 -0.0630 -0.2309 -0.2162
19106TIP3   OH278808   0.391   1.299   3.134  0.3750  0.0403 -0.0927
19106TIP3    H178809   0.417   1.271   3.222  1.8463 -1.0706 -0.8313
19106TIP3    H278810   0.372   1.217   3.087  1.5256  0.4543 -1.3525
19107TIP3   OH278811   4.717   4.408   4.734  0.1574  0.2542  0.0908
19107TIP3    H178812   4.661   4.348   4.782 -2.7346  0.6187 -2.5368
19107TIP3    H278813   4.730   4.367   4.648 -1.2820  2.8707 -1.5134
19108TIP3   OH278814   1.337   2.790  13.326  0.6992 -0.2993 -0.2991
19108TIP3    H178815   1.280   2.824  13.395  1.1779 -0.4706  0.1828
19108TIP3    H278816   1.283   2.794  13.247  0.7307  1.5652 -0.2767
19109TIP3   OH278817   4.943   4.066  13.358 -0.5226  0.3097 -0.2499
19109TIP3    H178818   4.986   4.143  13.393 -1.1749  0.2490  0.7117
19109TIP3    H278819   5.015   4.007  13.334 -0.0527 -0.0439  1.8866
19110TIP3   OH278820   4.617   6.605   6.524  0.0671  0.2378 -0.7803
19110TIP3    H178821   4.550   6.642   6.467 -1.2857 -1.3981 -0.3239
19110TIP3    H278822   4.579   6.523   6.557  2.7251 -1.4334 -1.4871
19111TIP3   OH278823   5.090   2.015   3.397  0.1922  0.2655 -0.2966
19111TIP3    H178824   5.181   2.007   3.425  0.2095 -0.2933 -0.4852
19111TIP3    H278825   5.082   2.105   3.366  0.4975  0.5252  0.3444
19112TIP3   OH278826   1.913   4.232  12.520 -0.1219  0.0436 -0.1396
19112TIP3    H178827   1.827   4.244  12.480  0.4015 -1.0303 -1.6633
19112TIP3    H278828   1.942   4.321  12.541 -1.7420  0.4010  0.7709
19113TIP3   OH278829   4.655   6.010  14.443 -0.1219  0.0741 -0.1582
19113TIP3    H178830   4.712   6.050  14.376 -0.3264 -0.0106 -0.3829
19113TIP3    H278831   4.633   5.924  14.408  0.7885 -0.4775  0.5915
19114TIP3   OH278832   6.208   1.118  10.668  0.0389 -0.9665 -0.5451
19114TIP3    H178833   6.250   1.204  10.672  2.1402 -1.6420 -3.7994
19114TIP3    H278834   6.115   1.137  10.662  0.2493  0.9095  1.2561
19115TIP3   OH278835   2.283   5.091   4.268  0.5241 -0.0227 -0.4087
19115TIP3    H178836   2.215   5.030   4.238 -1.1356  0.4623  1.9808
19115TIP3    H278837   2.365   5.052   4.240 -0.6119 -2.0644 -1.1167
19116TIP3   OH278838   1.305   4.241  14.263  0.3743  0.3192  0.5497
19116TIP3    H178839   1.319   4.265  14.171  1.2125 -2.0177  0.0044
19116TIP3    H278840   1.261   4.157  14.259  0.6951  0.0420  2.2929
19117TIP3   OH278841   4.262   0.229  14.288 -0.2390 -0.0674 -0.0886
19117TIP3    H178842   4.166   0.220  14.292 -0.0766 -1.7983  0.8212
19117TIP3    H278843   4.279   0.318  14.318 -1.4790 -0.4075  1.8392
19118TIP3   OH278844   2.988   2.239   1.721 -0.7522  0.2749  0.4203
19118TIP3    H178845   2.957   2.149   1.732  1.1876 -0.6805 -1.1359
19118TIP3    H278846   3.069   2.243   1.771  0.3972  0.3758 -1.3399
19119TIP3   OH278847   2.538   1.910   0.696  0.7226 -0.3580  0.2193
19119TIP3    H178848   2.536   1.833   0.754  1.2382  0.6304  1.5874
19119TIP3    H278849   2.488   1.882   0.619 -2.2795 -0.8970  2.1789
19120TIP3   OH278850   4.655   6.770  11.406 -0.1895 -0.8751  0.4563
19120TIP3    H178851   4.620   6.784  11.493  0.5263 -0.8044  0.7419
19120TIP3    H278852   4.708   6.848  11.388 -0.9030 -0.5569 -0.3321
19121TIP3   OH278853   0.039   3.690  15.726 -0.2312  0.7593  0.0949
19121TIP3    H178854  -0.021   3.718  15.796 -0.3097  0.1396  0.2835
19121TIP3    H278855  -0.018   3.647  15.662  0.0872 -0.6164  0.6808
19122TIP3   OH278856   5.738   4.612  16.343 -0.5510 -0.2561 -0.1428
19122TIP3    H178857   5.699   4.699  16.353  0.1743  0.2472 -1.4675
19122TIP3    H278858   5.751   4.602  16.249  0.0494 -1.5083  0.0582
19123TIP3   OH278859   1.379   4.929  16.267 -0.2321 -0.5905  0.6088
19123TIP3    H178860   1.470   4.908  16.245 -1.3458 -4.4458 -1.2627
19123TIP3    H278861   1.364   4.887  16.352 -0.1891  0.3841  1.1078
19124TIP3   OH278862   1.310   4.483   3.022 -0.4230 -0.1473  0.0524
19124TIP3    H178863   1.329   4.390   3.008  1.5311  0.0738  0.8647
19124TIP3    H278864   1.381   4.513   3.080 -1.2318  1.7600  0.1205
19125TIP3   OH278865   0.696   3.915   6.214 -0.2795  0.3338  0.2757
19125TIP3    H178866   0.671   3.863   6.137  1.2605 -1.1118  0.6941
19125TIP3    H278867   0.654   3.870   6.287  0.5037  0.0432  0.5623
19126TIP3   OH278868   4.125   4.211   5.152 -0.5235  0.0541 -0.2516
19126TIP3    H178869   4.051   4.264   5.121 -1.7073 -2.1546 -1.4754
19126TIP3    H278870   4.118   4.129   5.103  1.2766 -1.2275  1.4580
19127TIP3   OH278871   2.664   6.335  12.379 -0.1228 -0.2581 -0.1585
19127TIP3    H178872   2.685   6.364  12.290  2.0052  0.4916  0.5265
19127TIP3    H278873   2.624   6.412  12.420  0.4621 -0.0474  0.0252
19128TIP3   OH278874   5.691   2.125  16.097  0.1756  0.2801 -0.1743
19128TIP3    H178875   5.767   2.080  16.132 -0.8201 -0.7667  0.7236
19128TIP3    H278876   5.628   2.127  16.169  0.3378  3.6614  0.0514
19129TIP3   OH278877   4.481   2.535   0.825  0.8255  0.2052  0.3341
19129TIP3    H178878   4.482   2.566   0.915  0.9739  1.7156 -0.1510
19129TIP3    H278879   4.557   2.576   0.785  0.7416 -0.4184 -0.4913
19130TIP3   OH278880   2.045   4.993   2.877  0.3609  0.3438 -0.1252
19130TIP3    H178881   1.965   5.024   2.918  1.8144  2.7775  1.1086
19130TIP3    H278882   2.069   5.063   2.815  0.1255 -1.6127 -2.5972
19131TIP3   OH278883   2.791   0.595   0.929 -1.0142  0.1576 -0.6034
19131TIP3    H178884   2.750   0.517   0.891 -0.1883 -0.7594  0.3374
19131TIP3    H278885   2.830   0.641   0.854 -1.2806 -0.4730 -1.1337
19132TIP3   OH278886   1.924   6.207  16.647 -0.1340 -0.7117 -0.2938
19132TIP3    H178887   1.871   6.264  16.591 -1.0649 -0.7185  0.5439
19132TIP3    H278888   1.946   6.262  16.722 -0.3381 -1.1896  0.1272
19133TIP3   OH278889   1.098   2.077  16.318  0.1052 -0.6434 -0.2208
19133TIP3    H178890   1.183   2.037  16.336  0.8060  1.0304  0.4244
19133TIP3    H278891   1.115   2.138  16.247 -0.7237 -0.7907 -0.5564
19134TIP3   OH278892   1.981   4.812   2.436  0.0750  0.3143  0.2294
19134TIP3    H178893   1.925   4.885   2.461 -1.1465  1.2774 -4.4390
19134TIP3    H278894   2.049   4.851   2.381 -0.5731 -1.9392 -2.3873
19135TIP3   OH278895   1.151   4.578  11.556 -0.1945  0.6393  0.3699
19135TIP3    H178896   1.144   4.522  11.478 -2.4875 -0.2102  1.1014
19135TIP3    H278897   1.129   4.665  11.524  0.1264  0.5350 -0.1598
19136TIP3   OH278898   3.537   2.337   6.086  0.1987  0.3524  0.3069
19136TIP3    H178899   3.531   2.345   5.991 -2.4755 -0.4664  0.3317
19136TIP3    H278900   3.565   2.247   6.101 -0.8877 -0.0063  0.2718
19137TIP3   OH278901   6.724   0.536   5.059  0.3556  0.4091 -0.0763
19137TIP3    H178902   6.746   0.446   5.084 -0.0768  0.2356 -0.3023
19137TIP3    H278903   6.757   0.590   5.131 -1.0556 -0.0920  0.9737
19138TIP3   OH278904   4.453   4.045   0.820 -0.3684  0.2518  0.0002
19138TIP3    H178905   4.533   4.052   0.766 -0.6255  0.6615 -0.3336
19138TIP3    H278906   4.485   4.041   0.910  0.0655 -0.3674 -0.1722
19139TIP3   OH278907   5.548   4.979  13.833  0.0684  0.6157  0.3728
19139TIP3    H178908   5.640   4.968  13.855 -0.0363 -1.0206  0.1106
19139TIP3    H278909   5.524   4.897  13.790 -0.9479  1.8449 -1.5509
19140TIP3   OH278910   4.055   6.698   1.771  0.4572  0.2636 -0.1839
19140TIP3    H178911   3.960   6.694   1.777  0.5218  0.3453  1.0770
19140TIP3    H278912   4.081   6.764   1.835  1.3320  0.5696 -0.8415
19141TIP3   OH278913   3.692   2.141  13.873  0.4126  0.4238  0.0659
19141TIP3    H178914   3.607   2.140  13.915 -0.0418 -0.1962 -0.8325
19141TIP3    H278915   3.754   2.162  13.943 -0.3907  0.0848  0.8900
19142TIP3   OH278916   3.145   6.460   1.974  0.7637 -0.4371 -0.0742
19142TIP3    H178917   3.199   6.422   2.043  2.6662  0.9036 -0.7482
19142TIP3    H278918   3.130   6.550   2.001 -0.8885 -0.6736 -0.0826
19143TIP3   OH278919   5.675   0.919   1.900 -0.4578 -0.2821  0.0190
19143TIP3    H178920   5.759   0.890   1.864 -0.9845  0.3836 -1.8599
19143TIP3    H278921   5.649   0.849   1.960  0.9049 -1.0407 -0.2342
19144TIP3   OH278922   1.101   1.637  16.475 -0.5458  0.1573  0.2513
19144TIP3    H178923   1.064   1.719  16.444 -0.6590  0.4050  1.0307
19144TIP3    H278924   1.155   1.661  16.550  1.6770 -0.1285 -1.1680
19145TIP3   OH278925   2.045   1.733  14.015 -0.2594 -0.5680 -0.3776
19145TIP3    H178926   2.120   1.782  14.051 -0.2978 -0.9639  0.2599
19145TIP3    H278927   2.070   1.642  14.024 -0.6846 -0.6958 -0.4743
19146TIP3   OH278928   1.387   4.091   0.337  0.0609 -0.5637 -0.5283
19146TIP3    H178929   1.304   4.084   0.289  0.6916 -1.1165 -1.5722
19146TIP3    H278930   1.390   4.012   0.390 -0.1677 -0.4422 -0.3293
19147TIP3   OH278931   5.979   0.924  14.363 -0.1419  0.5481 -0.1932
19147TIP3    H178932   6.052   0.970  14.322 -0.4519  0.8501 -0.4137
19147TIP3    H278933   5.994   0.935  14.457  0.7870 -0.4908 -0.2045
19148TIP3   OH278934   3.781   1.902  15.401  0.6679 -0.2841  0.0987
19148TIP3    H178935   3.737   1.939  15.478 -0.4109  1.4674 -1.3040
19148TIP3    H278936   3.745   1.813  15.394 -0.2330  0.0043  0.8474
19149TIP3   OH278937   5.669   2.622  13.006  0.0468 -0.4418 -0.2365
19149TIP3    H178938   5.727   2.657  12.939 -0.0178 -2.2967 -1.3261
19149TIP3    H278939   5.590   2.596  12.958 -0.1263 -1.5003  0.5899
19150TIP3   OH278940   4.525   5.374   0.676 -0.5593  0.0730  0.5603
19150TIP3    H178941   4.527   5.311   0.748 -1.2273  1.4209  1.7967
19150TIP3    H278942   4.437   5.366   0.640  0.6902 -3.0116 -2.4480
19151TIP3   OH278943   3.349   2.090  17.039 -0.0788 -0.0029  0.2512
19151TIP3    H178944   3.425   2.128  17.084 -0.5411  1.1834  0.0839
19151TIP3    H278945   3.285   2.076  17.109 -0.9752  2.2860 -0.0119
19152TIP3   OH278946   4.929   6.269   5.313  0.8847  0.8025  0.1477
19152TIP3    H178947   4.852   6.298   5.263  2.1055  0.1717 -2.2313
19152TIP3    H278948   4.964   6.350   5.351  1.1339  1.7032 -1.8610
19153TIP3   OH278949   0.531   5.491   0.807  0.5917  0.5745 -0.3535
19153TIP3    H178950   0.563   5.501   0.717  0.0425  1.3603 -0.4708
19153TIP3    H278951   0.451   5.544   0.810 -1.4411 -2.2575 -0.4216
19154TIP3   OH278952   5.459   5.822   2.887  0.0858  0.0503 -0.2021
19154TIP3    H178953   5.504   5.879   2.949 -0.7685  0.8004 -0.2518
19154TIP3    H278954   5.366   5.834   2.906 -0.1155 -1.5658 -0.0214
19155TIP3   OH278955   0.991   4.229  14.164 -0.4113  0.0183  0.1252
19155TIP3    H178956   1.065   4.168  14.163 -0.0433  0.4402 -1.0627
19155TIP3    H278957   0.932   4.197  14.096 -0.7695  0.3294  0.2831
19156TIP3   OH278958   0.294   5.117   3.160  0.1992 -0.4479 -0.5455
19156TIP3    H178959   0.237   5.111   3.083  0.8104  0.7878 -1.1253
19156TIP3    H278960   0.308   5.210   3.172 -0.3342 -0.5802  1.4366
19157TIP3   OH278961   5.333   6.404   4.899  0.0083 -0.1081  0.3249
19157TIP3    H178962   5.352   6.360   4.817  0.9568  0.8781 -0.0047
19157TIP3    H278963   5.295   6.336   4.955  1.6194 -1.4057 -0.0799
19158TIP3   OH278964   4.666   3.762  14.230  0.1707  0.0952 -0.4297
19158TIP3    H178965   4.647   3.675  14.265 -0.1390 -0.2149 -1.3354
19158TIP3    H278966   4.580   3.799  14.209  0.3468  0.2718 -0.8497
19159TIP3   OH278967   5.975   5.296  13.640  0.1714 -0.1492 -0.1562
19159TIP3    H178968   5.903   5.288  13.578 -0.8439 -1.3980  1.1088
19159TIP3    H278969   5.937   5.271  13.724  1.8329  0.1645  0.7319
19160TIP3   OH278970   6.206   0.694  15.962 -0.3865  0.3884 -0.2954
19160TIP3    H178971   6.212   0.650  16.046 -0.0017 -0.9834 -1.0113
19160TIP3    H278972   6.258   0.774  15.973  2.4762 -1.3630 -0.1835
19161TIP3   OH278973   1.968   4.325  16.111 -0.2713 -0.0703 -0.0587
19161TIP3    H178974   2.036   4.312  16.177  0.4400  2.6237 -0.1354
19161TIP3    H278975   2.016   4.356  16.033 -1.1242 -2.8149 -1.7921
19162TIP3   OH278976   3.425   3.818   3.392  0.1415 -0.1304 -0.1264
19162TIP3    H178977   3.376   3.829   3.311  0.7732 -1.0475 -0.6529
19162TIP3    H278978   3.380   3.748   3.439 -0.9460  1.1959  0.9203
19163TIP3   OH278979   4.615   2.458   2.599  0.0659  0.0706 -0.8093
19163TIP3    H178980   4.569   2.383   2.562 -0.9484  1.3107 -2.1466
19163TIP3    H278981   4.702   2.424   2.621 -0.2220 -1.3885 -1.7985
19164TIP3   OH278982   6.385   4.047   3.307 -0.7382  0.4183 -0.4086
19164TIP3    H178983   6.428   4.081   3.228 -0.7382  0.8229 -0.2365
19164TIP3    H278984   6.344   4.123   3.346 -0.9420  0.1715 -0.1438
19165TIP3   OH278985   2.756   1.209   3.962  0.1008 -0.1923  0.0500
19165TIP3    H178986   2.808   1.130   3.974 -2.7424 -1.9264  2.8316
19165TIP3    H278987   2.817   1.281   3.975  2.3288 -1.9740  0.0106
19166TIP3   OH278988   6.763   3.343  15.027 -0.5394 -0.3977  0.1810
19166TIP3    H178989   6.845   3.319  15.070  0.3635  0.0158 -1.2298
19166TIP3    H278990   6.790   3.400  14.955 -2.0763 -0.2677 -0.3284
19167TIP3   OH278991   6.150   3.079   5.558 -0.3220 -0.9521 -0.2290
19167TIP3    H178992   6.174   3.071   5.650 -0.8235 -0.2954 -0.0277
19167TIP3    H278993   6.229   3.111   5.515 -0.5092  0.2205  0.2482
19168TIP3   OH278994   1.410   3.363   4.626 -0.0076  0.3633  0.0619
19168TIP3    H178995   1.445   3.445   4.592  4.0884 -0.1632  2.3720
19168TIP3    H278996   1.427   3.299   4.557  0.2283  0.7824 -0.2711
19169TIP3   OH278997   0.277   4.578   5.709 -0.2861 -0.1519  0.2633
19169TIP3    H178998   0.291   4.539   5.795 -0.1500 -1.9693 -0.5411
19169TIP3    H278999   0.364   4.592   5.674 -0.3295 -1.3419 -0.3775
19170TIP3   OH279000   3.248   3.118  11.479 -0.1246  0.8866  0.0508
19170TIP3    H179001   3.303   3.186  11.439  0.4906  0.7935  0.7112
19170TIP3    H279002   3.310   3.050  11.506 -0.7157  0.1475 -0.4287
19171TIP3   OH279003   5.801   0.736   3.991  0.7396 -0.7036  0.4033
19171TIP3    H179004   5.725   0.795   3.990  2.4445  1.6407 -1.1013
19171TIP3    H279005   5.764   0.649   3.978 -1.6010  0.5670 -2.4186
19172TIP3   OH279006   6.776   0.171  15.002 -0.3130  0.3470  0.2385
19172TIP3    H179007   6.797   0.079  14.985 -0.6200  0.4134 -0.5439
19172TIP3    H279008   6.844   0.221  14.957 -1.1646  0.5263 -0.8982
19173TIP3   OH279009   4.895   6.283  14.460  0.6400 -0.0552  0.2511
19173TIP3    H179010   4.930   6.285  14.371  0.7263  1.1212  0.2916
19173TIP3    H279011   4.973   6.292  14.516  0.4425  1.0185  0.3814
19174TIP3   OH279012   1.026   1.532   1.544  0.2159  0.2390 -0.0376
19174TIP3    H179013   0.946   1.503   1.501  1.2013 -2.4087 -0.2962
19174TIP3    H279014   1.034   1.624   1.521 -1.0779 -0.2156 -2.7143
19175TIP3   OH279015   3.407   5.671   6.241  0.1173  0.2964  0.1362
19175TIP3    H179016   3.421   5.690   6.148 -2.1416  0.8850 -0.1334
19175TIP3    H279017   3.419   5.755   6.285  4.3283 -0.4937  0.9222
19176TIP3   OH279018   1.873   1.260   1.435  0.2436  0.4595 -0.5605
19176TIP3    H179019   1.857   1.338   1.488  1.0014 -0.4407  1.0834
19176TIP3    H279020   1.788   1.216   1.432  0.1688  0.5716 -0.1696
19177TIP3   OH279021   5.581   3.713   1.743 -0.4958 -0.4207 -0.3004
19177TIP3    H179022   5.569   3.658   1.665  1.0510  2.2554 -2.6292
19177TIP3    H279023   5.672   3.740   1.739 -0.8597  1.2796  1.4196
19178TIP3   OH279024   3.208   1.485   5.752 -0.1385 -0.8715 -0.1730
19178TIP3    H179025   3.270   1.535   5.805 -0.0743 -0.7414 -0.3692
19178TIP3    H279026   3.198   1.402   5.799  0.8002 -1.2127 -0.5548
19179TIP3   OH279027   0.309   1.824  11.485 -0.5005 -0.1270 -0.0116
19179TIP3    H179028   0.268   1.907  11.461 -0.3155  0.5546  1.8964
19179TIP3    H279029   0.249   1.757  11.451 -0.0584  0.7001 -2.6428
19180TIP3   OH279030   3.627   3.885   0.633  0.3798  0.5117 -0.1170
19180TIP3    H179031   3.667   3.799   0.626 -0.4123  0.1734 -0.6530
19180TIP3    H279032   3.600   3.891   0.725 -0.8684 -0.4301 -0.3966
19181TIP3   OH279033   1.588   3.072  13.718 -0.0542  0.1038 -0.4915
19181TIP3    H179034   1.656   3.068  13.784 -0.9607  2.5507  0.7328
19181TIP3    H279035   1.543   2.988  13.723  1.8941 -0.9572 -0.2861
19182TIP3   OH279036   1.419   2.700   1.443  0.3206 -0.0429  0.0352
19182TIP3    H179037   1.453   2.674   1.357  0.4922  1.0276 -0.2286
19182TIP3    H279038   1.493   2.689   1.503 -0.2438 -2.4242  0.4095
19183TIP3   OH279039   6.436   4.393   4.754 -0.4373  0.0129 -0.3439
19183TIP3    H179040   6.356   4.345   4.775  0.1734 -0.6779  0.4792
19183TIP3    H279041   6.466   4.355   4.672 -0.1813 -0.7273  0.0884
19184TIP3   OH279042   4.777   4.712  15.295  0.0359  0.7110  0.1145
19184TIP3    H179043   4.712   4.668  15.348  2.4784 -2.0020  1.1304
19184TIP3    H279044   4.806   4.786  15.348 -0.0195  0.0724  1.0582
19185TIP3   OH279045   4.232   0.216  15.405 -0.1579  0.8601  0.1013
19185TIP3    H179046   4.193   0.276  15.342 -1.7981  1.4607  1.6308
19185TIP3    H279047   4.158   0.167  15.441  0.8135  0.0849  1.1098
19186TIP3   OH279048   3.534   3.736   0.387  0.2129  0.3012 -0.0227
19186TIP3    H179049   3.557   3.709   0.298  0.5476  0.6199 -0.0351
19186TIP3    H279050   3.607   3.791   0.415  0.4418 -0.3627  0.7151
19187TIP3   OH279051   6.285   3.569  15.059 -0.0149  0.2122  0.3777
19187TIP3    H179052   6.259   3.585  15.150 -0.5797 -0.3445  0.3241
19187TIP3    H279053   6.251   3.481  15.040  0.6092  0.0827 -0.1874
19188TIP3   OH279054   1.704   3.500   0.616 -0.3374 -1.0149  0.0115
19188TIP3    H179055   1.669   3.479   0.530 -0.2304  0.4083 -0.4107
19188TIP3    H279056   1.657   3.580   0.642  1.6393  0.2226 -0.0090
19189TIP3   OH279057   5.785   2.125  11.552  0.0439 -0.3920  0.0224
19189TIP3    H179058   5.792   2.220  11.551  0.6469 -0.4382 -0.1357
19189TIP3    H279059   5.765   2.101  11.462  1.8130 -0.5543 -0.3478
19190TIP3   OH279060   2.597   5.839   3.093  0.2727 -0.1283 -0.1834
19190TIP3    H179061   2.598   5.798   3.006 -0.2905  0.8527 -0.6781
19190TIP3    H279062   2.534   5.911   3.084  1.0211  0.6649  0.7239
19191TIP3   OH279063   6.789   5.093  12.162  0.4546  0.1915 -0.4074
19191TIP3    H179064   6.834   5.083  12.246 -1.6364 -0.6365  0.7025
19191TIP3    H279065   6.808   5.012  12.115 -0.6932 -0.6554  0.5189
19192TIP3   OH279066   4.036   0.103   5.655  0.4427  0.3768  0.1466
19192TIP3    H179067   4.092   0.124   5.730  1.4580 -2.2660  0.2415
19192TIP3    H279068   3.966   0.049   5.692  0.3438 -0.0459 -0.6381
19193TIP3   OH279069   5.933   0.329   5.606  0.0660 -0.2603  0.7024
19193TIP3    H179070   5.851   0.360   5.567  1.1371  1.9142  0.0272
19193TIP3    H279071   5.940   0.377   5.689  1.4935  0.9993 -0.0984
19194TIP3   OH279072   5.888   3.119   5.655 -0.3171  0.4882  0.5318
19194TIP3    H179073   5.980   3.103   5.632 -0.7579  0.9372 -1.7102
19194TIP3    H279074   5.846   3.034   5.645 -0.6585  0.8267 -1.2820
19195TIP3   OH279075   4.809   0.769  12.212 -0.0619  0.0703  0.2167
19195TIP3    H179076   4.887   0.823  12.226  0.2498  0.3812 -2.1812
19195TIP3    H279077   4.842   0.690  12.169 -0.7687 -1.0928  1.7522
19196TIP3   OH279078   2.147   4.864   4.132  0.4100 -0.0411  0.9774
19196TIP3    H179079   2.158   4.897   4.043 -0.1561 -1.5578  0.3197
19196TIP3    H279080   2.136   4.770   4.123  0.0069 -0.1991  2.6249
19197TIP3   OH279081   0.888   4.142   3.439  0.0606 -0.0636 -0.5503
19197TIP3    H179082   0.885   4.238   3.442  0.7706  0.0138 -1.7373
19197TIP3    H279083   0.796   4.116   3.432 -0.2338  0.4518  1.1161
19198TIP3   OH279084   2.760   2.335  16.281  0.0694  0.4186 -0.5850
19198TIP3    H179085   2.760   2.245  16.315  0.0172  1.2264  1.7043
19198TIP3    H279086   2.844   2.344  16.237 -0.3430 -1.0406 -1.7857
19199TIP3   OH279087   2.426   5.152   4.943  0.0691 -0.0271 -0.0154
19199TIP3    H179088   2.422   5.089   4.872  0.8551 -0.3589  0.2230
19199TIP3    H279089   2.453   5.100   5.020 -0.2442  0.4154  0.3995
19200TIP3   OH279090   1.275   2.703  15.922  0.1861 -0.3958 -0.1411
19200TIP3    H179091   1.355   2.753  15.941  0.9570 -1.5593 -0.2172
19200TIP3    H279092   1.269   2.640  15.993 -1.6070  0.7478  0.7684
19201TIP3   OH279093   5.813   1.830  15.888 -0.0077 -0.3342 -0.2081
19201TIP3    H179094   5.760   1.761  15.849  0.1752 -0.8560  0.4560
19201TIP3    H279095   5.895   1.787  15.913 -0.8137 -0.4935  2.4720
19202TIP3   OH279096   2.394   1.217  11.427 -0.0359 -0.6301  0.2836
19202TIP3    H179097   2.480   1.179  11.409  0.0973 -0.9731  1.5415
19202TIP3    H279098   2.332   1.160  11.382  0.2725 -1.5233  0.9568
19203TIP3   OH279099   4.415   2.752   1.558 -0.0947  0.4297  0.0641
19203TIP3    H179100   4.463   2.831   1.532 -0.1661  0.1732 -0.8952
19203TIP3    H279101   4.479   2.700   1.607 -0.3442  1.5373  1.6616
19204TIP3   OH279102   3.596   2.951   3.882  0.7803 -0.4445 -0.1442
19204TIP3    H179103   3.502   2.934   3.888  0.4790 -1.0088 -3.9033
19204TIP3    H279104   3.635   2.865   3.867  1.1939  0.1454 -3.2513
19205TIP3   OH279105   2.512   0.373  13.118 -0.2687  0.3907 -0.0108
19205TIP3    H179106   2.533   0.421  13.038  0.5760 -0.2529 -0.1835
19205TIP3    H279107   2.513   0.281  13.091 -0.0988  0.1801  0.7147
19206TIP3   OH279108   0.075   6.459  12.605  0.2973  0.0507  0.5244
19206TIP3    H179109   0.095   6.548  12.574 -0.8851  1.8989  4.3837
19206TIP3    H279110  -0.012   6.440  12.570  1.0360 -0.1527 -1.2846
19207TIP3   OH279111   1.894   1.746   5.672  0.8273 -0.7999 -0.1632
19207TIP3    H179112   1.981   1.767   5.703 -0.3112  0.7947  2.2338
19207TIP3    H279113   1.875   1.660   5.709  0.0979  0.3966  2.4597
19208TIP3   OH279114   0.314   4.717   0.888  0.4852 -0.3879  0.0816
19208TIP3    H179115   0.227   4.743   0.918  0.2799  0.3388 -1.0757
19208TIP3    H279116   0.298   4.656   0.816  0.8871  0.7578 -1.0121
19209TIP3   OH279117   1.118   4.287   4.575 -0.2598  0.1151  0.5448
19209TIP3    H179118   1.209   4.265   4.557 -0.3723  1.1187 -1.3972
19209TIP3    H279119   1.071   4.268   4.494 -1.9197 -0.8643  1.6473
19210TIP3   OH279120   2.815   5.298  15.183 -0.2435  0.7829  0.1730
19210TIP3    H179121   2.786   5.215  15.145 -0.3009  0.3034  1.2214
19210TIP3    H279122   2.735   5.334  15.222 -0.0764  1.0028  0.3078
19211TIP3   OH279123   3.819   1.658   3.347  0.9362  0.6596 -0.1793
19211TIP3    H179124   3.836   1.571   3.382 -0.7112  0.2245 -0.3738
19211TIP3    H279125   3.891   1.673   3.285 -0.1222 -1.7512 -2.2115
19212TIP3   OH279126   1.034   0.263  10.445  0.4390  0.0769  0.7268
19212TIP3    H179127   1.040   0.174  10.411  0.3589  0.3098  0.0987
19212TIP3    H279128   0.941   0.286  10.437  0.4758  0.2508  0.7936
19213TIP3   OH279129   3.956   5.794  12.285 -0.0080  0.2340  0.7648
19213TIP3    H179130   3.978   5.725  12.348  1.3481 -0.2295 -0.1787
19213TIP3    H279131   3.871   5.769  12.250  1.1298 -1.8592 -0.6975
19214TIP3   OH279132   0.091   0.677   1.843 -0.3090  0.0581 -0.4367
19214TIP3    H179133   0.099   0.671   1.748 -1.2511 -0.9085 -0.4750
19214TIP3    H279134   0.020   0.616   1.865  1.7301 -1.9144  1.1779
19215TIP3   OH279135   4.264   0.836  14.389  0.4039  0.1363  0.0601
19215TIP3    H179136   4.304   0.809  14.471  2.7193  1.7524 -0.4528
19215TIP3    H279137   4.292   0.771  14.325 -1.2882 -1.0455  0.4508
19216TIP3   OH279138   5.838   2.688  12.810 -0.0310  0.4777  0.2936
19216TIP3    H179139   5.928   2.702  12.841 -0.5001  0.3457  1.7845
19216TIP3    H279140   5.836   2.596  12.785  0.4723  0.6904 -0.5862
19217TIP3   OH279141   3.737   5.556   5.428  1.3305  0.6284  0.6742
19217TIP3    H179142   3.701   5.503   5.357  0.3236  1.6652  0.3807
19217TIP3    H279143   3.730   5.501   5.506 -0.5697  0.6347  0.5497
19218TIP3   OH279144   6.566   2.535   0.012 -0.5728  0.3689  0.1425
19218TIP3    H179145   6.498   2.598   0.035 -0.3759  0.3192  0.8667
19218TIP3    H279146   6.610   2.574  -0.064 -0.6482  0.9596  0.3948
19219TIP3   OH279147   6.851   6.250  11.723  0.2312 -0.5978  0.0668
19219TIP3    H179148   6.809   6.175  11.765  0.1878 -0.1893  0.7818
19219TIP3    H279149   6.915   6.281  11.788  0.3313 -0.0926 -0.2644
19220TIP3   OH279150   3.869   3.685  11.441 -0.2072  0.0217  0.6531
19220TIP3    H179151   3.794   3.693  11.382  0.7668 -1.0916 -0.7934
19220TIP3    H279152   3.841   3.730  11.521 -2.5474 -0.6951  0.3007
19221TIP3   OH279153   2.510   5.908  11.728  0.0783 -0.3397  0.2166
19221TIP3    H179154   2.445   5.862  11.674 -1.8281  1.4216  0.8412
19221TIP3    H279155   2.479   5.897  11.817  1.5702 -0.7889  0.7002
19222TIP3   OH279156   1.588   6.099   1.263 -0.1905 -0.0731 -0.1306
19222TIP3    H179157   1.672   6.123   1.302 -0.7421  2.5033 -0.3088
19222TIP3    H279158   1.524   6.114   1.333 -0.6695 -0.3924 -0.4957
19223TIP3   OH279159   0.278   6.054  12.842 -0.1502 -0.1579 -0.0256
19223TIP3    H179160   0.249   5.988  12.904 -0.7417  0.1950  0.0720
19223TIP3    H279161   0.374   6.050  12.845 -0.1847 -0.5317  0.4844
19224TIP3   OH279162   3.951   4.633  14.432 -0.1395  0.2365  0.2131
19224TIP3    H179163   4.002   4.621  14.353 -0.0992 -0.3708  0.3235
19224TIP3    H279164   3.993   4.707  14.477 -0.1841  0.6043 -0.3376
19225TIP3   OH279165   1.209   3.074   0.893  0.2814 -0.1460  0.7209
19225TIP3    H179166   1.221   3.167   0.876  0.9432 -0.1416  1.1641
19225TIP3    H279167   1.247   3.061   0.980 -0.0287 -0.7840  0.7648
19226TIP3   OH279168   3.562   6.480  15.860 -0.1259  0.5740 -0.4588
19226TIP3    H179169   3.576   6.568  15.894  1.8473 -0.3523  1.4218
19226TIP3    H279170   3.529   6.430  15.935  0.1782 -0.5950 -1.0795
19227TIP3   OH279171   6.392   5.139  13.698 -0.1210 -0.1430 -0.4959
19227TIP3    H179172   6.297   5.140  13.685  0.1400  0.3214 -3.0536
19227TIP3    H279173   6.424   5.077  13.633  1.2898 -1.2214  1.1473
19228TIP3   OH279174   1.461   2.490   4.060 -0.0078  0.6992 -0.4651
19228TIP3    H179175   1.418   2.441   3.990  0.5873 -0.0204 -0.3335
19228TIP3    H279176   1.467   2.580   4.027  0.4299  0.3282 -1.3998
19229TIP3   OH279177   1.953   1.164   2.507 -0.0691  0.9516  0.6610
19229TIP3    H179178   2.008   1.090   2.485 -0.5555  0.5057  0.9123
19229TIP3    H279179   2.011   1.240   2.505  0.9152  0.3010  2.4553
19230TIP3   OH279180   1.446   4.888  15.340  0.0474  0.0828  0.6490
19230TIP3    H179181   1.497   4.945  15.283  1.0815 -1.6475 -0.2692
19230TIP3    H279182   1.355   4.900  15.314  0.3222  0.7834  0.0060
19231TIP3   OH279183   5.464   2.336   6.398 -0.1928  0.2485  0.0040
19231TIP3    H179184   5.424   2.417   6.429  1.1594  1.3738 -1.0409
19231TIP3    H279185   5.450   2.273   6.469 -0.7892  1.5512  1.0805
19232TIP3   OH279186   4.975   6.770   0.043  0.3759  0.1350 -0.0286
19232TIP3    H179187   5.056   6.727   0.069  0.7844  0.7933 -0.1837
19232TIP3    H279188   4.937   6.803   0.124  0.8865  0.8829 -0.0868
19233TIP3   OH279189   5.542   6.336  11.917 -0.2041 -0.0288 -0.3999
19233TIP3    H179190   5.502   6.251  11.896 -0.8325  0.5647 -1.7475
19233TIP3    H279191   5.469   6.398  11.912  0.2906  0.6209  0.3724
19234TIP3   OH279192   3.656   0.813  14.786 -0.3814  1.2082  0.2402
19234TIP3    H179193   3.575   0.762  14.782  0.1088  0.2420  1.6819
19234TIP3    H279194   3.628   0.899  14.817 -1.0647  1.4683 -1.0201
19235TIP3   OH279195   2.778   3.986   4.661 -0.4878  0.0389 -0.4822
19235TIP3    H179196   2.830   4.048   4.612  0.2801  0.1718  0.4666
19235TIP3    H279197   2.749   4.035   4.739 -0.2484 -0.6422  0.0485
19236TIP3   OH279198   5.141   4.142  16.495 -0.1864  0.2379  0.0941
19236TIP3    H179199   5.171   4.054  16.473 -0.7390 -0.3048  1.4344
19236TIP3    H279200   5.051   4.145  16.461  0.2499  0.7444 -1.0668
19237TIP3   OH279201   2.886   4.608  13.772  0.1173  0.6582  0.5730
19237TIP3    H179202   2.919   4.612  13.862 -1.1450 -0.4007  1.1170
19237TIP3    H279203   2.852   4.519  13.764  0.4888  0.6368 -1.0736
19238TIP3   OH279204   6.434   1.129   3.187  0.2561  0.5658  0.0984
19238TIP3    H179205   6.528   1.112   3.186  0.1580  0.0010 -0.0671
19238TIP3    H279206   6.396   1.055   3.141 -0.1227  1.7741 -1.6130
19239TIP3   OH279207   5.987   0.391  11.434 -0.1095  0.5112 -0.5932
19239TIP3    H179208   5.933   0.395  11.355 -1.4416 -0.4321  0.2198
19239TIP3    H279209   5.938   0.442  11.499  0.0330 -0.2311  0.1153
19240TIP3   OH279210   4.010   2.573   2.275 -0.1174 -0.1935 -0.0703
19240TIP3    H179211   3.942   2.511   2.303 -0.6486  0.5700  0.3771
19240TIP3    H279212   4.092   2.528   2.291 -0.4689 -0.4678  1.0717
19241TIP3   OH279213   4.435   4.475   5.025 -0.0718  0.5684  0.0194
19241TIP3    H179214   4.459   4.500   4.936  0.4964 -0.5687 -0.1642
19241TIP3    H279215   4.490   4.530   5.080  0.8817  0.0322 -0.3707
19242TIP3   OH279216   1.323   2.861  14.616  0.6081 -0.6077 -0.1473
19242TIP3    H179217   1.308   2.946  14.574 -1.0730 -1.2579 -0.9939
19242TIP3    H279218   1.331   2.881  14.709  2.3651  0.6715 -0.5336
19243TIP3   OH279219   0.926   0.158   0.775 -0.3515  0.1038  0.2300
19243TIP3    H179220   0.924   0.252   0.793 -1.3963  0.3794 -1.1042
19243TIP3    H279221   0.837   0.128   0.794  0.8715 -1.5218  4.6292
19244TIP3   OH279222   4.346   0.201  14.025  0.0189 -0.4572  0.1574
19244TIP3    H179223   4.303   0.122  13.994 -0.9352  0.4238 -0.8660
19244TIP3    H279224   4.322   0.207  14.117  0.8635 -1.8306  0.4859
19245TIP3   OH279225   5.330   4.734  16.870  0.1027 -0.5659  0.0398
19245TIP3    H179226   5.339   4.650  16.823  1.6813  0.3447 -1.4311
19245TIP3    H279227   5.411   4.741  16.920 -0.0761  0.0459  0.2425
19246TIP3   OH279228   4.984   2.949   0.049  0.0468  0.5725  0.1621
19246TIP3    H179229   5.077   2.935   0.066  0.3360  0.5569 -1.2801
19246TIP3    H279230   4.955   2.869   0.006  0.1149  1.6648 -2.0660
19247TIP3   OH279231   5.663   1.961   1.081 -0.2239  0.0345 -0.2935
19247TIP3    H179232   5.572   1.931   1.078  0.4808 -2.6039  1.2127
19247TIP3    H279233   5.714   1.886   1.050  1.6069  0.0985  2.2040
19248TIP3   OH279234   3.096   5.535   5.863  0.1079  0.3324  0.0842
19248TIP3    H179235   3.096   5.521   5.957 -0.1140  0.7847  0.1570
19248TIP3    H279236   3.029   5.601   5.849 -0.8045 -0.7065 -0.5479
19249TIP3   OH279237   0.714   0.443  13.479 -0.0337  0.1366 -0.0349
19249TIP3    H179238   0.772   0.519  13.472  0.4897 -0.1776  0.7171
19249TIP3    H279239   0.652   0.453  13.408  0.2247  1.1069 -0.1319
19250TIP3   OH279240   1.859   2.631  16.664 -0.2199 -0.0026  0.4325
19250TIP3    H179241   1.884   2.682  16.587 -0.0168 -1.3996 -0.4563
19250TIP3    H279242   1.843   2.697  16.732  2.1591  1.1444 -0.0252
19251TIP3   OH279243   4.616   5.347  12.424  0.0898  0.3131  0.3524
19251TIP3    H179244   4.549   5.409  12.453 -0.6732  0.7667 -2.1882
19251TIP3    H279245   4.593   5.265  12.468  1.5694  1.8298  4.4264
19252TIP3   OH279246   3.620   3.451  16.570 -0.7501  0.1136  0.4564
19252TIP3    H179247   3.558   3.508  16.615 -0.9218 -0.4597  0.9686
19252TIP3    H279248   3.576   3.427  16.489 -1.0382  0.0215  0.6376
19253TIP3   OH279249   2.402   0.812  16.210 -0.0985  0.4764 -0.3186
19253TIP3    H179250   2.448   0.871  16.151  2.6757 -1.0764  0.1366
19253TIP3    H279251   2.419   0.848  16.297  0.6857 -0.3495 -0.1177
19254TIP3   OH279252   3.890   2.241   2.146 -0.4739 -0.0217  0.0148
19254TIP3    H179253   3.982   2.253   2.120 -0.3569 -1.1410 -0.1369
19254TIP3    H279254   3.848   2.201   2.071 -0.8120 -0.6172  0.5119
19255TIP3   OH279255   6.535   3.045  16.621  0.1145  0.2154 -0.2235
19255TIP3    H179256   6.457   3.090  16.653  0.4802 -0.1488  1.2216
19255TIP3    H279257   6.546   2.971  16.680  1.5590  0.2558 -0.4197
19256TIP3   OH279258   5.763   5.017   1.782  0.0352  0.1670 -0.0800
19256TIP3    H179259   5.733   5.025   1.691 -2.1948 -0.3178  0.5754
19256TIP3    H279260   5.813   4.935   1.783 -0.0965  0.0657 -0.8000
19257TIP3   OH279261   4.334   1.505   3.101  0.2562 -0.3651 -0.0430
19257TIP3    H179262   4.358   1.593   3.130  0.0934 -0.6700  1.0548
19257TIP3    H279263   4.288   1.467   3.175 -0.8473 -0.9199 -0.9828
19258TIP3   OH279264   2.675   2.262  15.935  0.4433 -0.2645  0.4693
19258TIP3    H179265   2.650   2.354  15.929  1.1607  0.0729  2.0302
19258TIP3    H279266   2.601   2.214  15.899 -0.4932  0.8879  0.8037
19259TIP3   OH279267   5.161   2.696   6.246  0.2512  0.1450 -0.1107
19259TIP3    H179268   5.077   2.719   6.284 -1.4205 -3.2770 -1.3155
19259TIP3    H279269   5.156   2.727   6.156 -0.5718 -1.5908 -0.7135
19260TIP3   OH279270   2.344   5.369   3.811  0.4361 -0.0976  0.1984
19260TIP3    H179271   2.417   5.318   3.775  0.5158 -1.2454  1.8728
19260TIP3    H279272   2.384   5.423   3.880 -0.4480 -1.8990  2.2372
19261TIP3   OH279273   6.740   6.836  15.547 -0.0340  0.4552 -0.4512
19261TIP3    H179274   6.796   6.777  15.597  0.3361  0.2291 -1.1194
19261TIP3    H279275   6.762   6.818  15.455 -0.4263  1.1294 -0.6844
19262TIP3   OH279276   3.989   2.872   1.874  0.7043  0.1462 -0.0236
19262TIP3    H179277   4.071   2.921   1.871  0.1862  1.0077 -0.8776
19262TIP3    H279278   3.966   2.868   1.967  0.1332  2.6586  0.0156
19263TIP3   OH279279   6.556   4.334   1.072  0.4634  0.0901 -0.3319
19263TIP3    H179280   6.605   4.253   1.059  0.2963 -0.2456  1.0087
19263TIP3    H279281   6.484   4.329   1.010  0.5670 -0.6937 -0.3958
19264TIP3   OH279282   0.175   3.248  11.226  0.6265  0.6235  0.0491
19264TIP3    H179283   0.243   3.181  11.226  0.3509  0.2045  2.8425
19264TIP3    H279284   0.117   3.224  11.154  2.4961  0.0093 -1.3137
19265TIP3   OH279285   2.161   5.036   0.215 -0.1138 -0.0956  0.0627
19265TIP3    H179286   2.135   5.007   0.127  0.7325 -1.0781  0.1204
19265TIP3    H279287   2.167   5.131   0.208 -0.2044 -0.1503 -0.9061
19266TIP3   OH279288   2.584   5.144  12.865  0.2456 -0.0337  0.3161
19266TIP3    H179289   2.515   5.120  12.804 -0.6952  2.4344  0.2878
19266TIP3    H279290   2.612   5.061  12.904 -0.4485 -1.4531 -2.0273
19267TIP3   OH279291   6.311   0.208   2.326  0.1042  0.7653 -0.1513
19267TIP3    H179292   6.356   0.293   2.321  3.5050 -0.6236  2.3237
19267TIP3    H279293   6.356   0.153   2.262 -0.0950  0.1081  0.2591
19268TIP3   OH279294   3.092   2.644  15.183 -0.2480 -0.6108  0.2311
19268TIP3    H179295   3.082   2.585  15.109  1.5832  0.9931 -1.4001
19268TIP3    H279296   3.018   2.704  15.177  0.0591 -0.2988 -0.5076
19269TIP3   OH279297   0.024   0.389   0.385 -0.3042  0.4560  0.4348
19269TIP3    H179298  -0.014   0.353   0.466  1.1683  0.4960  1.1850
19269TIP3    H279299  -0.004   0.480   0.384  0.0261  0.5749  1.1603
19270TIP3   OH279300   4.810   4.304   5.856  0.3836 -0.1072  0.3951
19270TIP3    H179301   4.849   4.270   5.937  0.1639 -0.0777  0.5155
19270TIP3    H279302   4.860   4.263   5.786 -0.3316 -1.2479  0.5221
19271TIP3   OH279303   1.455   1.599  16.571 -0.1070 -0.2798  0.0827
19271TIP3    H179304   1.505   1.618  16.492  0.6175  0.6709  0.7380
19271TIP3    H279305   1.426   1.508  16.561  1.3068 -0.6824 -0.5666
19272TIP3   OH279306   0.455   6.070  16.756 -0.0792 -0.0989  0.2920
19272TIP3    H179307   0.484   5.979  16.757  2.1050  0.5572  0.5126
19272TIP3    H279308   0.517   6.116  16.813 -0.7412  1.6623 -0.3378
19273TIP3   OH279309   1.486   4.510   4.728 -0.2270  0.4801 -0.4212
19273TIP3    H179310   1.429   4.438   4.756  0.4735 -0.2593 -0.8488
19273TIP3    H279311   1.433   4.589   4.741 -1.0488 -0.1157 -0.0441
19274TIP3   OH279312   0.051   2.232   4.297  0.0186  0.2348  0.4063
19274TIP3    H179313   0.027   2.176   4.371  0.8366 -0.6100  0.0485
19274TIP3    H279314   0.102   2.303   4.337  0.6467 -0.3335  0.6324
19275TIP3   OH279315   3.055   0.058   0.362 -0.5289 -0.3399 -0.7969
19275TIP3    H179316   3.125   0.122   0.348 -0.1220 -0.9787 -1.7811
19275TIP3    H279317   3.096  -0.011   0.415 -1.2956  0.7304  1.3198
19276TIP3   OH279318   3.677   4.844  14.565 -1.0548 -0.1236 -0.3331
19276TIP3    H179319   3.682   4.784  14.490 -0.9534  2.6461 -2.7314
19276TIP3    H279320   3.585   4.874  14.565 -0.9641  0.1757  0.4207
19277TIP3   OH279321   6.073   2.312   0.469  0.0094  0.3252  0.2232
19277TIP3    H179322   5.989   2.344   0.502  0.1101 -0.1460  0.9585
19277TIP3    H279323   6.056   2.220   0.445  0.7076 -0.3194  2.0006
19278TIP3   OH279324   0.252   2.332   0.967  0.0423  0.1409  0.3714
19278TIP3    H179325   0.181   2.395   0.957 -0.5750 -0.0360  3.0292
19278TIP3    H279326   0.220   2.269   1.031  2.0196 -0.8426  0.4758
19279TIP3   OH279327   0.497   4.936   5.715  0.7041 -0.3510 -0.0373
19279TIP3    H179328   0.556   4.876   5.760 -1.5420 -1.0130  2.2798
19279TIP3    H279329   0.504   5.019   5.764  0.2537 -0.2238 -0.1778
19280TIP3   OH279330   5.386   5.243   2.628  0.1960 -0.8777  0.1147
19280TIP3    H179331   5.432   5.178   2.576 -0.4624 -0.8110 -0.5766
19280TIP3    H279332   5.294   5.214   2.627 -0.1447  0.1749 -0.3995
19281TIP3   OH279333   6.302   1.532   2.292 -0.0921 -0.2061  0.2545
19281TIP3    H179334   6.384   1.537   2.243 -1.0225 -0.9577 -1.4614
19281TIP3    H279335   6.315   1.458   2.352  0.3031 -0.6278 -0.3449
19282TIP3   OH279336   2.714   3.000  12.843  0.2890  0.1252 -0.1548
19282TIP3    H179337   2.657   3.074  12.822  1.2042  0.8426 -0.2124
19282TIP3    H279338   2.765   2.986  12.763 -0.8947 -1.5603 -0.6672
19283TIP3   OH279339   3.244   2.146  15.489  0.4450 -0.7854  0.3327
19283TIP3    H179340   3.154   2.175  15.481 -0.0759 -2.5311 -0.8406
19283TIP3    H279341   3.271   2.173  15.576 -0.8085  0.7895  0.2604
19284TIP3   OH279342   5.543   4.987   3.053 -0.3479 -0.2305 -0.5277
19284TIP3    H179343   5.638   4.995   3.067 -0.3617 -0.2181 -0.4382
19284TIP3    H279344   5.506   5.058   3.105 -0.2923  0.9644 -2.0745
19285TIP3   OH279345   1.851   6.381  15.805  0.1176 -0.5823 -0.2609
19285TIP3    H179346   1.813   6.305  15.847 -0.6074  0.2823  0.7026
19285TIP3    H279347   1.832   6.454  15.864 -0.8418  0.6823 -2.0311
19286TIP3   OH279348   4.268   6.196  12.638  0.2744 -0.4421  0.2235
19286TIP3    H179349   4.341   6.255  12.657  0.7338 -0.5330 -1.1885
19286TIP3    H279350   4.283   6.166  12.549 -2.3049  0.7577 -0.7006
19287TIP3   OH279351   2.369   2.602  14.891 -0.1637 -0.2026 -0.3498
19287TIP3    H179352   2.354   2.585  14.984 -0.7561  0.2257 -0.3668
19287TIP3    H279353   2.302   2.552  14.846 -0.3055  0.1362 -0.5161
19288TIP3   OH279354   4.387   0.513   1.702  0.3504 -0.2977 -0.4043
19288TIP3    H179355   4.306   0.520   1.754 -0.0779 -1.5187 -0.8677
19288TIP3    H279356   4.376   0.577   1.633 -0.4375 -0.7451 -0.7132
19289TIP3   OH279357   5.123   3.320  15.982 -0.1930 -0.2588  0.2841
19289TIP3    H179358   5.082   3.388  16.036 -0.7800 -0.1438 -0.2916
19289TIP3    H279359   5.050   3.280  15.934  0.4972  0.8528 -1.7946
19290TIP3   OH279360   1.567   0.092  16.099  0.1260 -0.1719  0.3571
19290TIP3    H179361   1.484   0.053  16.073 -0.4253  0.7462  0.6978
19290TIP3    H279362   1.625   0.018  16.115 -0.8292 -0.8351  0.7844
19291TIP3   OH279363   3.732   4.710  16.693  0.5824 -0.3396 -0.3717
19291TIP3    H179364   3.667   4.658  16.740 -0.0541  1.2189  0.5860
19291TIP3    H279365   3.690   4.734  16.611 -0.5391  1.5070  0.6698
19292TIP3   OH279366   4.925   6.570  16.117  0.2011 -0.2096 -0.6200
19292TIP3    H179367   4.993   6.635  16.132 -0.7667  0.7016 -0.0771
19292TIP3    H279368   4.844   6.620  16.111 -0.1576 -0.9911 -3.9688
19293TIP3   OH279369   4.522   5.203  16.871  0.4072  0.2158 -0.0599
19293TIP3    H179370   4.460   5.255  16.821 -0.5150  0.7738  1.5685
19293TIP3    H279371   4.468   5.158  16.936  1.5049 -0.7447  0.2093
19294TIP3   OH279372   3.371   1.743   4.967 -0.0806 -0.2678 -0.0444
19294TIP3    H179373   3.379   1.652   4.940  0.3657 -0.3220  0.2509
19294TIP3    H279374   3.293   1.745   5.022 -0.2350 -0.4195 -0.2562
19295TIP3   OH279375   5.560   6.798   0.475 -0.6227 -0.1412  0.2522
19295TIP3    H179376   5.517   6.718   0.445 -0.3396  0.0121 -0.5772
19295TIP3    H279377   5.550   6.860   0.403 -0.0486  0.2796  0.5235
19296TIP3   OH279378   3.597   6.101   4.453  0.5459 -0.1420 -0.2188
19296TIP3    H179379   3.506   6.131   4.454  0.7554  0.5015  0.5648
19296TIP3    H279380   3.649   6.181   4.460  1.1126 -0.6626  3.5356
19297TIP3   OH279381   1.759   0.509   2.709  0.1499 -0.0104 -0.1604
19297TIP3    H179382   1.691   0.571   2.737 -0.6527 -0.4200 -1.1546
19297TIP3    H279383   1.778   0.534   2.618  0.7424 -0.4325 -0.1589
19298TIP3   OH279384   3.406   2.119   3.033 -0.0255  0.5720  0.0388
19298TIP3    H179385   3.480   2.162   3.075 -0.1323 -1.0232  2.0346
19298TIP3    H279386   3.329   2.161   3.070 -0.1153 -0.2075  0.7646
19299TIP3   OH279387   2.138   1.538  15.560  0.2557 -0.2470  0.4690
19299TIP3    H179388   2.134   1.494  15.475  1.5838  0.2339  0.1301
19299TIP3    H279389   2.205   1.606  15.549 -1.6238  1.7929  1.0116
19300TIP3   OH279390   6.250   5.221  14.587  0.1582 -1.0648 -0.0367
19300TIP3    H179391   6.296   5.302  14.566  1.0964 -0.8742  2.4424
19300TIP3    H279392   6.168   5.226  14.538  0.9052  0.5977 -1.2014
19301TIP3   OH279393   2.480   6.852  16.941 -0.3943 -0.4331 -0.4131
19301TIP3    H179394   2.571   6.822  16.950 -0.3239  0.1763  1.3973
19301TIP3    H279395   2.439   6.830  17.025 -1.4214  0.8958 -0.5327
19302TIP3   OH279396   0.310   0.130   0.597 -0.4098  0.7207  0.1550
19302TIP3    H179397   0.351   0.086   0.522  0.4314  0.1134  0.9428
19302TIP3    H279398   0.216   0.125   0.580 -0.2023  1.6420 -1.4271
19303TIP3   OH279399   5.855   4.826   4.512  0.2406 -0.3136 -0.0871
19303TIP3    H179400   5.788   4.886   4.480  0.9812  0.6304  0.0917
19303TIP3    H279401   5.896   4.791   4.433 -0.6422 -1.1232 -0.2016
19304TIP3   OH279402   0.436   3.476  13.910  0.1175 -0.3990  0.6479
19304TIP3    H179403   0.362   3.518  13.953 -0.8678 -2.5367  1.2148
19304TIP3    H279404   0.399   3.437  13.830  1.2189  0.7060 -0.4425
19305TIP3   OH279405   0.890   5.999   0.932  0.3385  0.2065  0.1138
19305TIP3    H179406   0.827   5.928   0.926 -0.2045  0.6850  0.0878
19305TIP3    H279407   0.844   6.068   0.979  0.7760  0.6321 -0.0731
19306TIP3   OH279408   0.939   5.043  16.293  0.1926 -0.5036  0.0154
19306TIP3    H179409   0.990   5.093  16.229  0.6853 -0.2402  0.6032
19306TIP3    H279410   0.992   5.046  16.373 -0.7926 -0.1353  0.6696
19307TIP3   OH279411   5.571   0.051   6.247  0.3962  0.0230  0.2917
19307TIP3    H179412   5.645  -0.006   6.265  0.4648  0.2460  0.7020
19307TIP3    H279413   5.511  -0.004   6.195  1.1791  0.0759 -0.6919
19308TIP3   OH279414   5.454   1.472   0.178 -0.7468 -0.2863  0.3053
19308TIP3    H179415   5.415   1.438   0.098 -2.3085  0.6716  0.6137
19308TIP3    H279416   5.480   1.395   0.228  0.2056 -0.8958 -1.0700
19309TIP3   OH279417   3.547   6.366  11.548 -0.0714  0.0804  0.3827
19309TIP3    H179418   3.545   6.281  11.591 -0.8099 -0.3777 -0.5331
19309TIP3    H279419   3.541   6.429  11.620 -1.4087 -0.6691  0.9664
19310TIP3   OH279420   6.559   4.377   2.883 -0.1568  0.2919 -0.4458
19310TIP3    H179421   6.523   4.324   2.811  1.1729  0.0586 -0.9776
19310TIP3    H279422   6.634   4.422   2.844  2.1196 -1.6900  1.3422
19311TIP3   OH279423   3.494   5.285  15.564 -0.0345  0.2768  0.5576
19311TIP3    H179424   3.475   5.377  15.583  1.3435  0.7007  0.0633
19311TIP3    H279425   3.574   5.288  15.511 -0.3236 -1.1796 -0.0119
19312TIP3   OH279426   1.927   1.112  11.210  0.0840 -0.1553 -0.4284
19312TIP3    H179427   1.926   1.151  11.297 -1.8660  0.0512 -0.4870
19312TIP3    H279428   1.943   1.185  11.151 -2.1776  0.3942 -0.4434
19313TIP3   OH279429   4.387   2.850   6.466  0.1966  0.1091 -0.4876
19313TIP3    H179430   4.453   2.808   6.521  1.1482 -0.6488 -2.1307
19313TIP3    H279431   4.379   2.792   6.391 -0.1392  1.7437 -1.7611
19314TIP3   OH279432   1.744   1.180  16.933 -0.1288 -0.2989 -0.5092
19314TIP3    H179433   1.799   1.249  16.970  0.1974 -0.4518 -0.7040
19314TIP3    H279434   1.665   1.180  16.988  0.5089 -0.7720  0.4210
19315TIP3   OH279435   4.673   0.233  10.841  0.1573  0.1093 -0.4242
19315TIP3    H179436   4.702   0.323  10.856  0.6256  0.5407 -3.2468
19315TIP3    H279437   4.747   0.191  10.796 -0.6602 -1.1720 -0.6451
19316TIP3   OH279438   5.849   4.704  14.413  0.2069  0.0125  0.2346
19316TIP3    H179439   5.759   4.718  14.443  0.7030 -0.1519  1.8751
19316TIP3    H279440   5.870   4.784  14.364 -0.5699  0.4049  0.5201
19317TIP3   OH279441   3.246   1.274  13.463 -0.5196 -0.7129 -0.4276
19317TIP3    H179442   3.284   1.215  13.528  0.5072 -0.0994 -0.4460
19317TIP3    H279443   3.156   1.288  13.493 -0.2519 -0.9332  0.5101
19318TIP3   OH279444   5.086   2.545   5.840  0.0862  0.6831  0.0718
19318TIP3    H179445   5.094   2.631   5.883 -0.9630 -0.1094  1.9792
19318TIP3    H279446   4.994   2.539   5.816  0.1282  0.0411  0.0639
19319TIP3   OH279447   1.517   5.357   3.240 -0.7778 -0.2645 -0.0012
19319TIP3    H179448   1.433   5.356   3.284 -1.6377 -1.9485 -1.5308
19319TIP3    H279449   1.496   5.346   3.147  1.0595  0.8160 -0.6023
19320TIP3   OH279450   0.271   4.395   3.975 -0.0132  0.1006  0.7358
19320TIP3    H179451   0.176   4.410   3.975 -0.0488 -0.0928  1.2353
19320TIP3    H279452   0.298   4.407   3.884 -0.4191  0.7790  0.7020
19321TIP3   OH279453   1.352   2.219  16.948  0.0162 -0.6243 -0.2371
19321TIP3    H179454   1.395   2.275  16.883  1.5018 -0.7005  0.6438
19321TIP3    H279455   1.346   2.134  16.905  0.7273 -0.6074 -0.3794
19322TIP3   OH279456   3.428   5.261  14.056  0.0797  0.1008  0.6523
19322TIP3    H179457   3.504   5.298  14.100 -0.8133  1.9949  0.7120
19322TIP3    H279458   3.391   5.335  14.007 -1.3059 -0.9539  0.0457
19323TIP3   OH279459   0.264   5.830  10.474 -0.6203 -0.0095  0.3424
19323TIP3    H179460   0.241   5.738  10.471  1.2428 -0.5053  0.2723
19323TIP3    H279461   0.357   5.832  10.493 -0.7320  1.8845  0.9883
19324TIP3   OH279462   6.523   4.166  13.582 -0.0437 -0.2345 -0.9521
19324TIP3    H179463   6.471   4.222  13.640  0.1086 -1.9373  0.9518
19324TIP3    H279464   6.459   4.109  13.540 -0.0086 -0.1389 -1.1348
19325TIP3   OH279465   6.825   3.739  15.986 -0.2776 -0.1391 -0.0836
19325TIP3    H179466   6.786   3.760  16.070 -3.0405  1.0515 -1.5528
19325TIP3    H279467   6.888   3.810  15.971  1.8713 -1.4910  1.8083
19326TIP3   OH279468   0.341   4.827   2.759 -0.4992  0.3018 -0.2125
19326TIP3    H179469   0.403   4.899   2.764  0.0065 -0.2009  1.2098
19326TIP3    H279470   0.390   4.751   2.789 -1.6962 -0.1766  0.6044
19327TIP3   OH279471   3.893   6.200  13.243 -0.1926  0.6895 -0.2466
19327TIP3    H179472   3.974   6.246  13.261 -0.3036  0.3106  1.3491
19327TIP3    H279473   3.885   6.135  13.313 -2.1114  1.0338 -0.0750
19328TIP3   OH279474   5.993   2.369  16.638 -0.3205 -0.2604  0.1131
19328TIP3    H179475   5.976   2.404  16.551  0.5559  0.4756  0.2203
19328TIP3    H279476   5.911   2.328  16.664 -1.2363  1.2938 -0.2257
19329TIP3   OH279477   5.820   3.876  11.230 -1.0949  0.2006  0.0212
19329TIP3    H179478   5.891   3.818  11.205 -0.9414 -0.2427  1.3897
19329TIP3    H279479   5.794   3.919  11.149  2.0212  1.8361 -0.2402
19330TIP3   OH279480   6.781   6.350   0.734  0.0194 -0.7473  0.1155
19330TIP3    H179481   6.742   6.269   0.766 -1.2169  0.2648  1.2772
19330TIP3    H279482   6.735   6.369   0.652 -1.2071 -0.1514  0.9102
19331TIP3   OH279483   4.838   4.029   3.439 -0.2218 -0.2387  0.7019
19331TIP3    H179484   4.756   3.981   3.448  0.0028 -0.6444  0.5713
19331TIP3    H279485   4.906   3.962   3.439  0.1507  0.1390  1.3342
19332TIP3   OH279486   0.181   2.820   3.065 -0.2151 -0.0042  0.5290
19332TIP3    H179487   0.108   2.782   3.114 -0.5587  1.3815  1.1454
19332TIP3    H279488   0.242   2.851   3.133  0.1698  0.2994  0.0566
19333TIP3   OH279489   5.277   1.591   4.500 -0.1719  0.5604  0.3734
19333TIP3    H179490   5.217   1.665   4.487 -1.4476  0.1734  3.2740
19333TIP3    H279491   5.348   1.627   4.553  0.1653  0.1031  0.2373
19334TIP3   OH279492   2.431   2.786   3.336  0.4911 -0.0610  0.2169
19334TIP3    H179493   2.481   2.853   3.382  1.3326 -1.5402  1.5828
19334TIP3    H279494   2.481   2.770   3.256 -0.1673  1.4642 -0.5501
19335TIP3   OH279495   1.181   2.623  16.171  0.3738 -0.5690 -0.3000
19335TIP3    H179496   1.245   2.557  16.198 -1.3503 -2.4102 -0.4263
19335TIP3    H279497   1.102   2.601  16.220 -0.5561  0.8307 -1.0835
19336TIP3   OH279498   6.478   4.523  15.226 -0.1990  0.4432 -0.0865
19336TIP3    H179499   6.551   4.568  15.182  0.1506 -0.4425 -0.4353
19336TIP3    H279500   6.493   4.538  15.319  0.2263  0.5827 -0.1745
19337TIP3   OH279501   0.727   5.785   2.746  0.2990 -0.2471  0.4272
19337TIP3    H179502   0.712   5.691   2.754 -0.4411 -0.0967  0.8326
19337TIP3    H279503   0.783   5.807   2.821 -1.0061 -0.0572  1.3741
19338TIP3   OH279504   2.487   0.752   4.899 -0.0172 -0.6699  0.1069
19338TIP3    H179505   2.466   0.690   4.830  1.9880 -0.2264 -0.9903
19338TIP3    H279506   2.456   0.837   4.865 -1.3614 -0.7953  0.9328
19339TIP3   OH279507   1.548   1.857   3.660 -0.7151  0.1921 -0.3738
19339TIP3    H179508   1.520   1.765   3.656 -0.0431  0.0428 -2.1274
19339TIP3    H279509   1.643   1.852   3.669 -0.6900  0.7333 -0.3374
19340TIP3   OH279510   4.341   2.805   0.815  0.0177 -0.0419 -0.2819
19340TIP3    H179511   4.270   2.742   0.807 -0.2274  0.2202 -0.1986
19340TIP3    H279512   4.333   2.838   0.905  0.9475 -0.8367  0.1097
19341TIP3   OH279513   1.515   5.822  13.921  0.2097  0.0560 -0.5067
19341TIP3    H179514   1.440   5.766  13.899  0.1784 -0.3052  0.4961
19341TIP3    H279515   1.481   5.911  13.915 -0.8937 -0.1339  1.8864
19342TIP3   OH279516   2.154   1.012   4.308 -0.2106 -0.5771  0.4107
19342TIP3    H179517   2.168   1.066   4.230  2.9825  0.5460  1.6059
19342TIP3    H279518   2.111   1.071   4.370  0.4029 -0.3786  0.6514
19343TIP3   OH279519   0.559   4.706   3.469 -0.3993 -0.1393 -0.8006
19343TIP3    H179520   0.580   4.797   3.448  0.5992 -0.3541 -0.7828
19343TIP3    H279521   0.466   4.698   3.449 -1.3219  1.7199  2.1045
19344TIP3   OH279522   4.044   0.164  12.627 -0.2259 -0.1014  0.4612
19344TIP3    H179523   3.989   0.105  12.577 -0.6580  0.0280  0.7762
19344TIP3    H279524   4.040   0.130  12.717 -0.2835  0.2615  0.5984
19345TIP3   OH279525   6.647   5.717  14.095 -0.4178  0.3265  0.2275
19345TIP3    H179526   6.686   5.770  14.165  2.7083  0.1574 -1.2309
19345TIP3    H279527   6.640   5.777  14.021  0.5950 -0.5785 -0.6296
19346TIP3   OH279528   2.421   5.953  16.806  0.0646  0.0243  0.1473
19346TIP3    H179529   2.431   5.932  16.713 -0.4083 -1.5408  0.4268
19346TIP3    H279530   2.376   6.037  16.807 -0.6896 -0.3490 -1.0400
19347TIP3   OH279531   3.107   5.520  11.152  0.0330 -0.0748  0.7503
19347TIP3    H179532   3.137   5.568  11.075  0.2229 -0.2764  0.6958
19347TIP3    H279533   3.099   5.585  11.221 -0.0640  0.0942  0.5793
19348TIP3   OH279534   0.771   3.081  14.645  0.3643 -0.8780 -0.0817
19348TIP3    H179535   0.742   2.990  14.651  0.2751 -1.1082 -2.7839
19348TIP3    H279536   0.861   3.075  14.613  0.6194 -0.0035  0.4381
19349TIP3   OH279537   1.986   0.278  13.866  0.3128  0.5739 -0.1579
19349TIP3    H179538   2.057   0.214  13.871 -1.2569 -1.2172  0.5185
19349TIP3    H279539   1.996   0.331  13.945  1.7157  1.2935 -0.7882
19350TIP3   OH279540   0.828   3.431   0.291 -0.8924  0.1951 -0.3381
19350TIP3    H179541   0.895   3.495   0.265 -0.0553 -0.6687 -0.3891
19350TIP3    H279542   0.789   3.467   0.370 -1.6426  1.5941 -1.3012
19351TIP3   OH279543   4.518   5.200   2.250 -0.3583  0.4804  0.3934
19351TIP3    H179544   4.450   5.216   2.185 -0.2293 -0.7294 -0.0646
19351TIP3    H279545   4.596   5.181   2.198 -0.0857  0.1728  0.9102
19352TIP3   OH279546   6.800   1.231  13.269 -0.0651 -0.0174  0.4423
19352TIP3    H179547   6.746   1.256  13.343 -1.0449  1.5055 -0.7211
19352TIP3    H279548   6.862   1.303  13.259  0.5855 -0.5891  0.2537
19353TIP3   OH279549   4.880   5.732   0.427 -0.5471  0.4489 -0.2136
19353TIP3    H179550   4.791   5.725   0.460 -0.9356 -1.1133 -1.4640
19353TIP3    H279551   4.891   5.825   0.407 -2.3294  0.4939 -1.1473
19354TIP3   OH279552   4.385   0.323  10.697  0.2680 -0.3376  0.0172
19354TIP3    H179553   4.464   0.367  10.728 -0.1068 -0.2326  0.8568
19354TIP3    H279554   4.314   0.384  10.717 -0.0848 -0.6751 -0.1879
19355TIP3   OH279555   4.546   5.095   3.529  0.4172 -0.3591 -0.5261
19355TIP3    H179556   4.603   5.043   3.585  0.0336 -0.0712  0.1358
19355TIP3    H279557   4.532   5.040   3.452 -2.0890 -2.3946  1.2336
19356TIP3   OH279558   2.325   2.506   3.469 -0.1300  0.4185  0.5472
19356TIP3    H179559   2.357   2.565   3.401 -0.2146  0.1631  0.2849
19356TIP3    H279560   2.248   2.464   3.430  0.1194 -0.1082  0.6124
19357TIP3   OH279561   2.462   6.278  15.655  0.1361 -0.3940  0.2439
19357TIP3    H179562   2.431   6.367  15.670 -0.3532 -0.8594  2.3861
19357TIP3    H279563   2.515   6.258  15.732 -0.5730 -2.2746  0.2906
19358TIP3   OH279564   5.388   0.394   2.126  0.4459 -0.9721  0.5329
19358TIP3    H179565   5.343   0.309   2.125  1.4715 -1.5274  0.4996
19358TIP3    H279566   5.390   0.418   2.219  2.1137 -2.0694  0.8106
19359TIP3   OH279567   6.146   4.075   3.029  0.2855  0.8933  0.0874
19359TIP3    H179568   6.086   4.020   3.079  0.7526 -0.8609 -1.1801
19359TIP3    H279569   6.090   4.134   2.980 -0.4259 -0.3801 -0.6877
19360TIP3   OH279570   5.980   1.285  13.638 -0.3610 -0.3433  0.3193
19360TIP3    H179571   6.069   1.320  13.641 -0.2320 -0.6514  0.0999
19360TIP3    H279572   5.981   1.214  13.703 -0.8391  0.5543  1.3344
19361TIP3   OH279573   3.676   3.598  14.484  0.4961  0.3402  0.1173
19361TIP3    H179574   3.658   3.619  14.392  1.7730  0.1618 -0.2020
19361TIP3    H279575   3.605   3.640  14.533 -1.0883 -0.8587 -1.0399
19362TIP3   OH279576   5.344   1.295   1.974 -0.1117  0.1474 -0.1694
19362TIP3    H179577   5.435   1.267   1.987  1.0229  2.8681 -1.5589
19362TIP3    H279578   5.299   1.216   1.942  2.2464 -0.8001 -1.3970
19363TIP3   OH279579   3.214   2.515  15.928  0.0119 -0.1592 -0.1419
19363TIP3    H179580   3.207   2.436  15.875 -2.3803 -0.3215  0.3126
19363TIP3    H279581   3.238   2.584  15.866  0.5265 -0.9315 -0.8234
19364TIP3   OH279582   4.123   2.606   1.900  0.5315 -0.2572  0.3705
19364TIP3    H179583   4.076   2.687   1.878 -0.5060 -0.8028  0.5512
19364TIP3    H279584   4.215   2.633   1.904  0.4968  0.4406 -1.9356
19365TIP3   OH279585   0.371   3.009  10.515 -0.1075  0.4647 -0.4401
19365TIP3    H179586   0.439   3.076  10.523 -0.5290  0.9408 -0.7760
19365TIP3    H279587   0.291   3.059  10.499 -0.7494 -0.0098  1.0611
19366TIP3   OH279588   2.449   0.775   3.999 -0.5188  0.0231 -0.5180
19366TIP3    H179589   2.384   0.776   3.929 -1.9558 -1.1049  0.7249
19366TIP3    H279590   2.435   0.691   4.043  0.4084  0.6570  1.0720
19367TIP3   OH279591   2.441   0.984  15.613  0.5656 -0.2344  0.4428
19367TIP3    H179592   2.403   1.070  15.630  1.1326  0.2453 -0.6073
19367TIP3    H279593   2.403   0.957  15.530  1.1224 -0.5598  0.2852
19368TIP3   OH279594   5.116   3.141  12.748  0.0250 -0.1900  0.1253
19368TIP3    H179595   5.164   3.223  12.762  0.0639 -0.4816  1.9631
19368TIP3    H279596   5.182   3.073  12.762 -0.2914 -0.5513 -0.1518
19369TIP3   OH279597   1.568   0.228   0.648  0.5273  0.0753 -0.6606
19369TIP3    H179598   1.473   0.231   0.664  0.3445 -2.7322 -0.6762
19369TIP3    H279599   1.577   0.243   0.554  0.2040  1.1986 -0.5286
19370TIP3   OH279600   0.885   4.700   5.519  0.4428  0.6139 -0.4848
19370TIP3    H179601   0.898   4.793   5.501  1.6724  0.7833  1.0969
19370TIP3    H279602   0.906   4.656   5.437  0.3786  1.6874 -1.0939
19371TIP3   OH279603   2.801   1.711  12.286  0.0134  0.3591  0.0683
19371TIP3    H179604   2.887   1.752  12.295  0.8548 -0.5772 -2.7005
19371TIP3    H279605   2.739   1.775  12.321  1.7336  1.4790  1.1962
19372TIP3   OH279606   4.152   3.472  15.620  0.4686  0.4857 -0.0247
19372TIP3    H179607   4.151   3.383  15.586  3.4522  0.2459  0.3155
19372TIP3    H279608   4.123   3.526  15.546  2.2171 -0.4587 -1.4769
19373TIP3   OH279609   2.525   4.017  15.413  0.5973  0.0869 -0.3585
19373TIP3    H179610   2.551   4.044  15.501  0.2795  1.1424 -0.5679
19373TIP3    H279611   2.462   4.084  15.386  0.7168 -0.2102 -1.3977
19374TIP3   OH279612   2.399   2.339  12.871 -0.8019 -0.3502  0.3235
19374TIP3    H179613   2.454   2.417  12.867 -0.3474 -0.6578  0.5508
19374TIP3    H279614   2.315   2.368  12.835 -0.1762 -0.1596 -1.0419
19375TIP3   OH279615   2.923   0.091  12.783 -0.1080 -0.0329  0.0469
19375TIP3    H179616   2.897   0.038  12.859 -2.7077  1.9035  0.6152
19375TIP3    H279617   2.908   0.033  12.708 -1.0390 -0.7483  0.7565
19376TIP3   OH279618   1.395   4.680  13.381 -0.0752 -0.0417 -0.0113
19376TIP3    H179619   1.378   4.624  13.457 -0.7063  0.1119 -0.0273
19376TIP3    H279620   1.471   4.731  13.404 -1.8590  2.0268  1.6807
19377TIP3   OH279621   4.154   3.824  15.961 -0.7320 -0.6262  0.1566
19377TIP3    H179622   4.114   3.755  15.907  0.3585 -0.3024 -1.1231
19377TIP3    H279623   4.142   3.904  15.910  1.1493 -0.4603 -0.0770
19378TIP3   OH279624   4.983   3.419  13.860 -0.4169 -0.4439  0.0662
19378TIP3    H179625   5.023   3.364  13.792  0.2852  0.8055 -0.5592
19378TIP3    H279626   5.008   3.508  13.837 -1.0041  0.0987  1.4232
19379TIP3   OH279627   0.844   1.190  16.784  0.2141 -0.4393  0.0217
19379TIP3    H179628   0.934   1.212  16.807  0.4034 -0.1328 -0.9605
19379TIP3    H279629   0.795   1.270  16.804  0.5775  0.2631 -1.6824
19380TIP3   OH279630   0.103   0.558   3.882 -0.3970 -0.1030 -0.2148
19380TIP3    H179631   0.019   0.568   3.926  0.7628  1.6046  1.8323
19380TIP3    H279632   0.126   0.647   3.855  0.3841 -0.6673 -1.4796
19381TIP3   OH279633   0.620   6.466  13.690  0.0897 -0.1904 -0.0509
19381TIP3    H179634   0.557   6.428  13.752  0.7950  0.4898  1.1222
19381TIP3    H279635   0.679   6.393  13.669 -1.9404 -1.2771 -2.4074
19382TIP3   OH279636   2.109   0.186   6.298 -0.7415  0.3695  0.6953
19382TIP3    H179637   2.055   0.126   6.350  1.7137 -0.9733  1.8187
19382TIP3    H279638   2.113   0.266   6.350 -0.8480  0.1400  1.0569
19383TIP3   OH279639   2.764   4.792  11.408 -0.3349  0.0106  0.4467
19383TIP3    H179640   2.774   4.864  11.345 -0.1761  0.8907  1.4509
19383TIP3    H279641   2.764   4.713  11.354  0.7245  0.6788 -0.5875
19384TIP3   OH279642   3.334   5.180   3.789 -0.5849 -0.6178 -0.3043
19384TIP3    H179643   3.403   5.114   3.796 -0.9630 -1.0245 -0.4376
19384TIP3    H279644   3.261   5.135   3.749 -0.3839  0.2263 -1.6930
19385TIP3   OH279645   4.156   0.356  17.082 -0.4891  0.0017  0.0661
19385TIP3    H179646   4.133   0.447  17.066  0.4165  0.6638  2.2110
19385TIP3    H279647   4.083   0.320  17.132 -0.9314 -0.5421 -0.9328
19386TIP3   OH279648   0.984   4.068   1.361 -0.0835  0.2149 -0.1611
19386TIP3    H179649   0.933   4.093   1.438  0.0881 -0.2123  0.0922
19386TIP3    H279650   0.918   4.050   1.294 -0.2270  0.8014 -0.1853
19387TIP3   OH279651   0.962   4.188   4.379 -1.2252  0.3325 -0.0417
19387TIP3    H179652   1.005   4.107   4.352  1.0276  1.0866  1.1052
19387TIP3    H279653   0.884   4.158   4.427 -0.9257 -1.1060 -0.4073
19388TIP3   OH279654   6.638   5.329   4.560 -0.6339  0.0065  0.4052
19388TIP3    H179655   6.545   5.307   4.564 -0.8118  0.8170  0.9741
19388TIP3    H279656   6.654   5.383   4.638 -0.1746  1.6368 -0.7600
19389TIP3   OH279657   1.422   2.874  11.371  0.3909 -0.2087  0.5628
19389TIP3    H179658   1.337   2.856  11.410 -1.2247  1.0393 -2.1580
19389TIP3    H279659   1.429   2.969  11.371  1.3368 -0.2588 -0.1770
19390TIP3   OH279660   4.312   2.295  15.845  0.5273 -0.1334 -0.6913
19390TIP3    H179661   4.329   2.205  15.819  2.8670 -0.0156  0.1845
19390TIP3    H279662   4.256   2.289  15.922  0.3632 -0.8022 -0.8598
19391TIP3   OH279663   4.318   4.718  15.583  0.2211  0.5040 -0.5126
19391TIP3    H179664   4.339   4.746  15.672 -1.1912 -0.9054  0.3190
19391TIP3    H279665   4.235   4.761  15.563  0.0819  0.1111 -0.7915
19392TIP3   OH279666   0.874   6.320   3.974  0.0981  0.1855 -0.0784
19392TIP3    H179667   0.854   6.272   3.894  2.7741 -0.6254 -0.3657
19392TIP3    H279668   0.965   6.347   3.964 -0.1617  2.0029  1.7650
19393TIP3   OH279669   5.823   4.494  17.061  0.0722 -0.1589 -0.4674
19393TIP3    H179670   5.862   4.579  17.042  0.1148  0.0186  0.4064
19393TIP3    H279671   5.772   4.474  16.982 -0.8261  1.1739 -0.2529
19394TIP3   OH279672   6.730   3.445   6.682  0.2077 -0.4974 -0.4323
19394TIP3    H179673   6.681   3.376   6.638  0.5993  0.5917 -2.7753
19394TIP3    H279674   6.674   3.522   6.675  0.6082 -0.1200  0.3792
19395TIP3   OH279675   0.615   6.023   4.932 -0.5481 -0.4164 -0.3276
19395TIP3    H179676   0.630   6.003   4.840 -0.1052 -1.7660  0.0139
19395TIP3    H279677   0.602   6.118   4.934 -1.6869 -0.4953 -1.9161
19396TIP3   OH279678   3.959   5.202  15.558  0.3972  0.2519 -0.2322
19396TIP3    H179679   4.047   5.199  15.595 -0.0798 -1.8701  0.8945
19396TIP3    H279680   3.923   5.115  15.575 -2.3580  1.4233  0.4114
19397TIP3   OH279681   3.581   5.914   1.523 -0.1818  0.0658 -0.2988
19397TIP3    H179682   3.606   5.822   1.524 -0.2157  0.0571 -0.2040
19397TIP3    H279683   3.607   5.945   1.436 -2.7536 -0.7462 -1.4805
19398TIP3   OH279684   1.319   2.796   0.436  0.1920 -0.3281  0.6355
19398TIP3    H179685   1.380   2.765   0.369 -0.4862 -1.7597  0.6343
19398TIP3    H279686   1.346   2.750   0.516  0.5270  0.7898  1.1784
19399TIP3   OH279687   5.348   5.575   4.370  0.1147 -0.1916  0.6467
19399TIP3    H179688   5.338   5.550   4.461  2.0964  0.9300  1.2385
19399TIP3    H279689   5.269   5.624   4.349  0.1711  0.6045  2.1668
19400TIP3   OH279690   1.210   3.013  16.550  0.7198  0.5221  0.3829
19400TIP3    H179691   1.258   2.931  16.565 -0.0262  0.0465  0.2385
19400TIP3    H279692   1.265   3.062  16.489  1.9599  0.8444  1.6884
19401TIP3   OH279693   1.631   3.261  15.076  0.0223  0.1374  0.3028
19401TIP3    H179694   1.701   3.285  15.015  2.0033 -1.3916  1.8419
19401TIP3    H279695   1.620   3.166  15.063 -0.2588 -0.0142  1.5647
19402TIP3   OH279696   4.252   6.257  13.377 -0.2527  0.0146 -0.6177
19402TIP3    H179697   4.178   6.247  13.436  0.0867 -0.6925 -0.2941
19402TIP3    H279698   4.248   6.180  13.320  0.2196 -0.0223 -0.6094
19403TIP3   OH279699   2.883   3.696   4.533 -0.1308  0.0660  0.3042
19403TIP3    H179700   2.879   3.702   4.438  0.5992 -0.1636  0.2585
19403TIP3    H279701   2.791   3.690   4.560 -0.3176 -0.3983 -0.4145
19404TIP3   OH279702   0.564   6.322  12.436 -0.2635  0.1283 -0.0785
19404TIP3    H179703   0.534   6.236  12.406  0.2272  0.1858 -0.7561
19404TIP3    H279704   0.484   6.368  12.461 -0.5884 -0.2862 -0.3460
19405TIP3   OH279705   3.776   2.812   3.442 -0.2385  0.4630  0.2565
19405TIP3    H179706   3.827   2.842   3.367 -0.6894  1.0193  0.1658
19405TIP3    H279707   3.716   2.747   3.405  0.9432 -0.7976  0.5061
19406TIP3   OH279708   5.498   6.247  10.627 -0.2795  0.0458 -0.3897
19406TIP3    H179709   5.493   6.158  10.663  0.2102  0.4709  0.7937
19406TIP3    H279710   5.531   6.235  10.538  2.7659 -0.7977  0.7231
19407TIP3   OH279711   1.190   3.750  15.477  0.1353 -0.1723 -0.0845
19407TIP3    H179712   1.136   3.701  15.415  0.7842 -1.1506  0.0986
19407TIP3    H279713   1.274   3.760  15.432  0.0661  0.6302 -0.0428
19408TIP3   OH279714   5.572   6.593  16.233 -0.4968  0.0225  0.3408
19408TIP3    H179715   5.529   6.530  16.291 -0.7570 -0.9522 -0.8729
19408TIP3    H279716   5.654   6.551  16.209  0.2823  1.0489  1.1207
19409TIP3   OH279717   3.466   3.850  10.510 -0.0373 -0.5257  0.3126
19409TIP3    H179718   3.503   3.762  10.498 -0.6008 -0.6132 -0.9526
19409TIP3    H279719   3.531   3.909  10.472  0.4331 -0.3657  1.3422
19410TIP3   OH279720   5.958   6.272  11.856  0.2793  0.1396  0.4624
19410TIP3    H179721   6.051   6.287  11.875  0.7892 -0.0820 -1.6360
19410TIP3    H279722   5.940   6.185  11.893  1.2646 -0.3546 -0.1743
19411TIP3   OH279723   2.698   1.799   5.276 -0.4841 -0.2185  0.0093
19411TIP3    H179724   2.634   1.756   5.219 -1.1915  1.4682 -0.5469
19411TIP3    H279725   2.761   1.731   5.298 -0.3166 -1.0147 -2.5968
19412TIP3   OH279726   3.177   1.906  10.426 -0.3489 -0.0502 -0.0187
19412TIP3    H179727   3.179   1.996  10.457 -0.9091 -0.5886  1.7112
19412TIP3    H279728   3.142   1.856  10.500 -0.6815 -1.5968 -1.1685
19413TIP3   OH279729   6.536   3.486  14.917 -0.2934  0.4795  0.1402
19413TIP3    H179730   6.546   3.400  14.959  0.4884 -0.3598 -1.6423
19413TIP3    H279731   6.476   3.534  14.974 -1.0525 -1.3891  0.9943
19414TIP3   OH279732   0.182   6.426  11.854 -1.0030  0.3554 -0.2473
19414TIP3    H179733   0.274   6.427  11.827 -0.4336 -0.0213  1.5624
19414TIP3    H279734   0.171   6.505  11.906 -0.8331 -1.0784  2.0957
19415TIP3   OH279735   4.138   2.783  16.241  0.3543  0.4419  0.4688
19415TIP3    H179736   4.077   2.856  16.227  0.8748  0.9889  1.0386
19415TIP3    H279737   4.225   2.822  16.234  0.6416 -0.1705  0.5518
19416TIP3   OH279738   3.936   4.118  11.733  0.4796 -0.4487  0.0175
19416TIP3    H179739   3.960   4.137  11.823 -0.0439  0.1892  0.0309
19416TIP3    H279740   4.017   4.128  11.684  0.2868  1.7472  0.0476
19417TIP3   OH279741   5.627   0.187   3.082  0.9692 -0.3913 -0.5444
19417TIP3    H179742   5.604   0.099   3.051 -0.4056 -0.9294  1.7502
19417TIP3    H279743   5.720   0.181   3.102  1.2988 -0.7634 -2.0549
19418TIP3   OH279744   4.266   4.737  16.532  0.0991  0.4938  0.3035
19418TIP3    H179745   4.335   4.803  16.534  0.1763  0.4096  0.4485
19418TIP3    H279746   4.309   4.658  16.499  0.0826  0.4291  0.4382
19419TIP3   OH279747   2.419   5.269   2.263 -0.4667 -0.1257  0.3272
19419TIP3    H179748   2.440   5.348   2.213 -2.3336 -0.2602 -0.7708
19419TIP3    H279749   2.401   5.203   2.197 -1.8717 -0.6335  1.1805
19420TIP3   OH279750   1.508   1.798  16.147 -0.2572  0.1370  0.0045
19420TIP3    H179751   1.592   1.795  16.101 -0.4507  0.1806 -0.3563
19420TIP3    H279752   1.473   1.709  16.138 -0.0840  0.0144  0.4772
19421TIP3   OH279753   5.469   5.856   2.195  0.1181 -0.2720  0.0494
19421TIP3    H179754   5.510   5.770   2.209  2.6789  0.7293 -0.7156
19421TIP3    H279755   5.503   5.911   2.266  1.2192  0.9132 -1.3172
19422TIP3   OH279756   1.018   1.230   2.840 -0.3078 -0.3111 -0.8371
19422TIP3    H179757   1.080   1.300   2.817 -0.6236 -0.1811 -1.2866
19422TIP3    H279758   0.942   1.277   2.876  0.2160 -0.5052  0.6135
19423TIP3   OH279759   5.969   0.171  13.021 -0.0582 -0.6768 -0.3507
19423TIP3    H179760   6.022   0.092  13.006 -1.3664 -2.2662  2.5127
19423TIP3    H279761   6.032   0.243  13.013  1.9264 -2.2492  0.0821
19424TIP3   OH279762   5.628   0.767  15.942 -0.2398 -0.6948 -0.1711
19424TIP3    H179763   5.575   0.751  15.864 -2.8081 -2.4786  1.7609
19424TIP3    H279764   5.591   0.709  16.009  1.3698  1.1882  2.5824
19425TIP3   OH279765   6.204   4.225  11.099 -0.3301 -0.7517 -0.4477
19425TIP3    H179766   6.262   4.149  11.097  1.4144  0.3966  1.7508
19425TIP3    H279767   6.171   4.228  11.189 -0.3626  1.0745 -0.4869
19426TIP3   OH279768   4.415   2.263  12.187 -0.1467  0.0671  0.7380
19426TIP3    H179769   4.505   2.254  12.154  0.3963 -0.4072  2.2521
19426TIP3    H279770   4.363   2.285  12.110  1.4837  1.7619  0.0651
19427TIP3   OH279771   3.010   4.636   4.145 -0.0925  0.0428 -0.0770
19427TIP3    H179772   3.059   4.571   4.195  0.1748 -0.4997 -1.0118
19427TIP3    H279773   2.935   4.587   4.109 -0.7356  0.6154  0.4652
19428TIP3   OH279774   6.711   3.478   0.602  0.2689 -0.3412 -0.3901
19428TIP3    H179775   6.711   3.409   0.668 -0.7922 -0.0787 -0.0883
19428TIP3    H279776   6.761   3.549   0.641  0.0420 -0.3617 -0.0606
19429TIP3   OH279777   6.098   2.968  16.313  0.1256  0.3704  0.2287
19429TIP3    H179778   6.109   2.973  16.218  0.7710  0.2761  0.2924
19429TIP3    H279779   6.009   3.000  16.329 -0.7334 -1.4245 -0.5952
19430TIP3   OH279780   4.337   6.288   0.921  0.0603 -0.8689  0.0352
19430TIP3    H179781   4.252   6.246   0.912 -0.6419  0.8311 -2.5494
19430TIP3    H279782   4.319   6.368   0.971  0.5511 -1.4514  1.1759
19431TIP3   OH279783   6.133   2.448  12.345 -0.5994  0.0618  0.2598
19431TIP3    H179784   6.122   2.370  12.398  1.0629  0.3722  1.1235
19431TIP3    H279785   6.220   2.438  12.305 -0.8506  0.9248 -0.5298
19432TIP3   OH279786   4.385   6.340  17.058  0.1205  0.2037  0.1002
19432TIP3    H179787   4.376   6.358  16.964 -0.0914  0.6672  0.2075
19432TIP3    H279788   4.386   6.244  17.064  0.9541  0.1614 -0.4551
19433TIP3   OH279789   3.458   2.723   0.074 -0.2255 -0.1827  0.1821
19433TIP3    H179790   3.480   2.804   0.119  1.4909  0.0876 -1.0487
19433TIP3    H279791   3.392   2.748   0.010 -1.0649 -0.1522  1.0308
19434TIP3   OH279792   2.849   1.174  12.870  0.3434  0.1390 -0.3509
19434TIP3    H179793   2.931   1.178  12.821  0.4963  0.5342 -0.0692
19434TIP3    H279794   2.807   1.258  12.854  1.0626  0.8514  1.3220
19435TIP3   OH279795   2.767   5.796  10.995 -0.1364  0.1924 -0.5307
19435TIP3    H179796   2.703   5.855  10.954  2.1840  3.2022 -0.1751
19435TIP3    H279797   2.770   5.824  11.086  2.0571  0.5566 -0.6745
19436TIP3   OH279798   1.315   4.138  17.060 -0.7389  0.7551  0.0570
19436TIP3    H179799   1.273   4.079  17.122 -1.1720  1.3915  0.3817
19436TIP3    H279800   1.249   4.152  16.992 -0.0195 -0.4979 -0.9398
19437TIP3   OH279801   3.001   3.229  11.515  0.1969 -0.1370 -0.0960
19437TIP3    H179802   3.075   3.188  11.469 -0.2785 -0.7553 -0.3326
19437TIP3    H279803   2.967   3.293  11.453  2.4027  2.4020  1.1489
19438TIP3   OH279804   6.628   2.116   2.933 -0.4233 -0.0045 -0.4325
19438TIP3    H179805   6.683   2.052   2.887 -1.8930 -0.7842 -1.1837
19438TIP3    H279806   6.586   2.166   2.863 -1.5822 -0.2446  0.0706
19439TIP3   OH279807   3.066   1.185   4.511  0.2836 -0.0717 -0.0895
19439TIP3    H179808   3.056   1.094   4.540  0.2209  0.2212  0.8371
19439TIP3    H279809   3.060   1.236   4.591  1.7362  0.6565 -0.4255
19440TIP3   OH279810   3.044   6.764  14.301 -0.4909 -0.2596 -0.0690
19440TIP3    H179811   3.065   6.752  14.208 -0.8415 -0.4570 -0.1253
19440TIP3    H279812   3.035   6.858  14.312 -1.0488 -0.2705 -0.3726
19441TIP3   OH279813   4.140   3.591   4.121 -0.3526  0.2493 -0.1060
19441TIP3    H179814   4.146   3.528   4.193 -1.3482 -2.8902 -2.5913
19441TIP3    H279815   4.048   3.617   4.120 -0.1142  1.1816  0.3724
19442TIP3   OH279816   1.237   1.397   0.482  0.4571  0.2506 -0.0038
19442TIP3    H179817   1.198   1.427   0.400 -2.2254 -0.1818  1.0163
19442TIP3    H279818   1.192   1.447   0.550  2.2002  0.1679  1.2639
19443TIP3   OH279819   1.327   3.665   0.371  0.1903 -0.4519  0.2590
19443TIP3    H179820   1.237   3.694   0.383  0.4924 -0.1601  2.1170
19443TIP3    H279821   1.353   3.630   0.456  1.0682 -2.7756 -0.8564
19444TIP3   OH279822   4.231   4.889  11.739 -0.1473 -0.2561 -0.3715
19444TIP3    H179823   4.232   4.859  11.648 -1.5951 -0.4894 -0.3288
19444TIP3    H279824   4.247   4.983  11.734  3.7074 -0.7369 -0.5627
19445TIP3   OH279825   0.188   5.294  13.565  0.1814  0.1327 -0.0714
19445TIP3    H179826   0.093   5.290  13.570  0.0284  2.9309  1.1758
19445TIP3    H279827   0.217   5.304  13.656  1.8493 -2.2621 -0.2409
19446TIP3   OH279828   5.369   6.219   0.982  0.6881  0.0959  0.0706
19446TIP3    H179829   5.418   6.271   0.919 -0.0558  1.5874  0.6737
19446TIP3    H279830   5.426   6.144   1.001  1.6799  0.5433 -1.0117
19447TIP3   OH279831   2.837   5.888   5.471  0.0461 -0.3424  0.1217
19447TIP3    H179832   2.778   5.915   5.541  0.6492  2.3205 -0.2751
19447TIP3    H279833   2.853   5.795   5.487  1.0136  0.3304  4.1727
19448TIP3   OH279834   2.808   4.203  15.087  0.0377 -0.3170  0.1612
19448TIP3    H179835   2.810   4.233  15.178 -2.4195 -0.3872  0.3221
19448TIP3    H279836   2.767   4.116  15.092 -0.5838 -0.1108 -1.0387
19449TIP3   OH279837   6.673   0.097   1.323 -0.7285  0.2766  0.3797
19449TIP3    H179838   6.725   0.119   1.246 -0.3296  1.0990  0.8647
19449TIP3    H279839   6.655   0.182   1.364 -1.3601 -0.1089  0.9178
19450TIP3   OH279840   4.929   2.064   5.755 -0.6634 -0.1392 -0.0357
19450TIP3    H179841   4.989   2.126   5.796 -0.5827  0.6039 -1.2154
19450TIP3    H279842   4.911   1.998   5.823  1.2803 -0.2431  0.4342
19451TIP3   OH279843   6.175   4.687   4.077 -0.1967  0.1087  0.0722
19451TIP3    H179844   6.247   4.750   4.084  1.7787 -2.0735  0.8625
19451TIP3    H279845   6.201   4.628   4.006 -2.7307  0.9840 -1.7025
19452TIP3   OH279846   6.349   1.785  16.334 -0.3373 -0.1511  0.2080
19452TIP3    H179847   6.404   1.811  16.408  0.6281  0.1913 -0.5971
19452TIP3    H279848   6.326   1.694  16.351  1.9596 -0.8866 -0.2573
19453TIP3   OH279849   4.566   5.029   4.634  0.6216 -0.3132  0.1700
19453TIP3    H179850   4.508   5.023   4.710  1.5041 -0.4224  0.8462
19453TIP3    H279851   4.511   5.067   4.565  0.1339  0.9341  1.1983
19454TIP3   OH279852   0.481   6.202  13.687 -0.1908  0.5587 -0.1113
19454TIP3    H179853   0.533   6.190  13.607 -0.3242  1.8636 -0.4058
19454TIP3    H279854   0.471   6.113  13.721  0.1888  0.0149 -1.3393
19455TIP3   OH279855   1.114   4.196  10.829  0.0897  0.0545 -0.1566
19455TIP3    H179856   1.044   4.256  10.802  0.4517  1.2296  1.3604
19455TIP3    H279857   1.136   4.148  10.750 -0.0711  2.0873 -1.5251
19456TIP3   OH279858   6.316   0.647   1.219 -0.6051  0.2251  0.2612
19456TIP3    H179859   6.296   0.623   1.310 -0.5242 -4.2746 -0.6821
19456TIP3    H279860   6.235   0.630   1.171  0.4424 -1.3579 -1.0394
19457TIP3   OH279861   5.989   4.783  17.085 -0.3062 -0.3085 -0.6178
19457TIP3    H179862   6.030   4.781  16.999 -0.8475  0.3370 -0.8985
19457TIP3    H279863   5.896   4.801  17.067  0.0043  2.6016  0.2327
19458TIP3   OH279864   2.161   0.900   5.877  0.0628 -0.4094 -0.4972
19458TIP3    H179865   2.143   0.896   5.970 -1.6487 -0.2001 -0.7947
19458TIP3    H279866   2.097   0.841   5.837  1.6131 -1.5362 -1.4550
19459TIP3   OH279867   4.418   6.711  11.197  0.0107  0.6561 -0.3231
19459TIP3    H179868   4.401   6.662  11.278 -2.2605  1.5421 -0.1892
19459TIP3    H279869   4.419   6.803  11.225  0.7069  0.8892 -1.0893
19460TIP3   OH279870   3.066   1.950   2.777 -0.3366  0.8582 -0.4554
19460TIP3    H179871   3.021   1.992   2.703 -0.3161 -0.1626 -1.0775
19460TIP3    H279872   3.158   1.969   2.763 -0.2246 -0.1391 -1.2757
19461TIP3   OH279873   2.060   0.444   3.435  0.2925 -0.2570 -0.6627
19461TIP3    H179874   2.154   0.455   3.449  0.0223 -0.0501  1.2564
19461TIP3    H279875   2.028   0.531   3.411  0.1021  0.5392  2.1444
19462TIP3   OH279876   6.249   1.185   2.947 -0.6545 -0.9034 -0.1613
19462TIP3    H179877   6.200   1.264   2.967  0.8779 -0.2685  1.3370
19462TIP3    H279878   6.214   1.118   3.004 -1.6198 -1.2108 -1.0822
19463TIP3   OH279879   2.566   3.336  11.398 -0.1778  0.1504  0.7043
19463TIP3    H179880   2.575   3.241  11.396  0.0268  0.1779 -0.3189
19463TIP3    H279881   2.523   3.358  11.315  1.9493  1.1443 -0.2059
19464TIP3   OH279882   4.511   4.156   3.752  0.3914  0.0398  0.0674
19464TIP3    H179883   4.583   4.220   3.761  0.3449 -0.1433  1.9725
19464TIP3    H279884   4.510   4.109   3.835  0.7755 -2.8689 -1.4555
19465TIP3   OH279885   0.708   4.258   2.828 -0.4536 -0.4832  0.1728
19465TIP3    H179886   0.638   4.303   2.781  2.2038  2.2061 -1.5717
19465TIP3    H279887   0.693   4.281   2.920 -1.8502 -0.0486 -0.1351
19466TIP3   OH279888   0.996   5.244   5.400 -0.0165  0.1372 -0.0719
19466TIP3    H179889   0.970   5.316   5.457 -1.5266 -0.2311 -0.2470
19466TIP3    H279890   0.976   5.275   5.311 -0.8871 -0.5520 -0.1340
19467TIP3   OH279891   1.386   3.643  13.799  0.0075 -0.1566  0.7680
19467TIP3    H179892   1.386   3.695  13.880  0.7416 -0.4118  0.9407
19467TIP3    H279893   1.302   3.598  13.800 -0.1806  0.1880  1.1653
19468TIP3   OH279894   5.061   0.079   1.967 -0.0750 -0.6152 -0.2238
19468TIP3    H179895   5.135   0.021   1.948  0.3451  0.0272 -0.5827
19468TIP3    H279896   5.058   0.138   1.892  0.6131  0.9681  0.9392
19469TIP3   OH279897   1.967   1.442  13.178  0.6164 -0.5306  0.6007
19469TIP3    H179898   1.879   1.444  13.215 -0.0837  0.8354 -1.0236
19469TIP3    H279899   2.025   1.455  13.254 -0.5999 -0.6676  1.5847
19470TIP3   OH279900   6.630   5.124   0.598 -0.6783  0.6393 -0.6344
19470TIP3    H179901   6.580   5.045   0.618 -0.7031  1.0749  1.1044
19470TIP3    H279902   6.717   5.107   0.635 -0.9507  1.7756  0.5716
19471TIP3   OH279903   1.685   2.786  11.508  0.1714 -0.0364  0.0140
19471TIP3    H179904   1.623   2.859  11.503 -0.1220 -0.2748  0.1953
19471TIP3    H279905   1.636   2.715  11.548  0.1460 -0.6790 -1.1418
19472TIP3   OH279906   5.012   3.861  15.848  0.3487  0.6328  0.2426
19472TIP3    H179907   4.956   3.877  15.772 -0.3718 -0.2375  0.5722
19472TIP3    H279908   4.952   3.827  15.915  1.4586 -1.4939  0.2155
19473TIP3   OH279909   0.937   2.198   3.942  0.0062  0.5738 -0.0613
19473TIP3    H179910   0.981   2.202   3.857 -0.7479  0.1101 -0.4902
19473TIP3    H279911   1.007   2.197   4.006  0.6047  0.3018 -0.7110
19474TIP3   OH279912   2.219   4.650  13.113  0.0543  0.4941 -0.5248
19474TIP3    H179913   2.167   4.719  13.154  0.6975  0.6967 -0.0330
19474TIP3    H279914   2.310   4.675  13.130  0.3036 -0.2035 -0.7959
19475TIP3   OH279915   6.601   0.624   3.116 -0.2041  0.2181 -0.1859
19475TIP3    H179916   6.509   0.597   3.115  0.0584 -0.7625 -1.4197
19475TIP3    H279917   6.613   0.668   3.200 -1.9608  0.9670 -0.2923
19476TIP3   OH279918   0.006   0.222  15.481  0.1765 -0.0907 -0.0875
19476TIP3    H179919  -0.053   0.148  15.497  0.1283  0.1149  0.7279
19476TIP3    H279920  -0.027   0.262  15.401  0.1052 -0.8496 -0.4474
19477TIP3   OH279921   2.044   5.250   4.359  0.2859  0.3559  0.7164
19477TIP3    H179922   2.096   5.315   4.405  0.9991  1.0812 -1.0423
19477TIP3    H279923   2.107   5.203   4.303 -0.8861  1.4470 -1.6811
19478TIP3   OH279924   3.245   4.028  14.421 -0.2913  0.0570 -0.3909
19478TIP3    H179925   3.246   3.998  14.330  0.3398  1.3311 -0.8228
19478TIP3    H279926   3.305   4.102  14.422  1.3224 -1.2052  1.5223
19479TIP3   OH279927   2.229   2.191  11.363 -0.2395 -0.4349  0.2126
19479TIP3    H179928   2.324   2.196  11.359 -0.2672  1.5114  0.9119
19479TIP3    H279929   2.208   2.103  11.331  1.7819 -0.9542  0.1899
19480TIP3   OH279930   5.534   6.224  10.291 -0.0664 -0.0525 -0.2877
19480TIP3    H179931   5.487   6.141  10.287 -0.5481  0.0580  1.6848
19480TIP3    H279932   5.626   6.199  10.296 -0.2685 -0.5926  1.6290
19481TIP3   OH279933   1.310   3.854   3.757  0.0050  0.4236 -0.7083
19481TIP3    H179934   1.288   3.915   3.686 -0.4066  0.6052 -0.4247
19481TIP3    H279935   1.254   3.778   3.741  0.4663  0.1445 -1.0202
19482TIP3   OH279936   2.002   3.985  14.080 -0.5071 -0.4159  0.1168
19482TIP3    H179937   1.955   4.065  14.103 -1.1552 -0.7496 -0.0070
19482TIP3    H279938   1.977   3.969  13.989 -0.4580 -0.8104  0.1722
19483TIP3   OH279939   3.846   4.911   3.335 -0.0019  0.0816 -0.3593
19483TIP3    H179940   3.772   4.943   3.387  0.7932  0.3219  0.6760
19483TIP3    H279941   3.897   4.858   3.396  0.0798 -1.0310 -1.3707
19484TIP3   OH279942   0.853   1.658  16.807 -0.8607  0.1848 -0.4054
19484TIP3    H179943   0.946   1.662  16.786 -0.4790 -0.4908  1.0153
19484TIP3    H279944   0.838   1.735  16.862 -0.7888 -0.4800  0.5667
19485TIP3   OH279945   3.125   3.860  14.916  0.2068  0.3239  0.5448
19485TIP3    H179946   3.196   3.813  14.872  0.0672  1.5218 -1.0334
19485TIP3    H279947   3.131   3.831  15.007  0.8816 -1.7956 -0.1163
19486TIP3   OH279948   4.457   5.551  13.568  0.2768  0.1000  0.0461
19486TIP3    H179949   4.479   5.459  13.583  1.2296  0.2893 -0.1436
19486TIP3    H279950   4.541   5.597  13.568 -0.2115  1.0495  0.6210
19487TIP3   OH279951   3.691   1.386   0.509  0.1791 -0.4319 -0.7372
19487TIP3    H179952   3.671   1.294   0.527 -1.4542 -0.0056 -0.2405
19487TIP3    H279953   3.723   1.420   0.593 -0.0129 -0.3469 -0.6981
19488TIP3   OH279954   0.995   3.597  13.349  0.5561  0.4146  0.4333
19488TIP3    H179955   0.998   3.654  13.426 -0.1276  1.9601 -0.6424
19488TIP3    H279956   1.051   3.641  13.285  0.6686 -0.5625 -0.1602
19489TIP3   OH279957   1.489   1.196  15.470  0.0819  0.2709  0.1099
19489TIP3    H179958   1.464   1.128  15.533 -1.3791  0.2306 -0.4862
19489TIP3    H279959   1.441   1.175  15.390  2.5037 -0.1630 -1.3657
19490TIP3   OH279960   6.431   0.832   4.314  0.4224 -0.2208  0.4222
19490TIP3    H179961   6.433   0.928   4.311  2.6802 -0.2326 -0.1169
19490TIP3    H279962   6.364   0.812   4.380  1.9557  1.7992  2.7680
19491TIP3   OH279963   4.972   2.948  14.918 -0.3383  0.5266 -0.0848
19491TIP3    H179964   4.966   2.855  14.942 -0.3893  0.5907  0.1545
19491TIP3    H279965   4.925   2.994  14.988  0.1153  0.7705  0.0691
19492TIP3   OH279966   4.648   3.265  12.357 -0.2916 -0.0056  0.4474
19492TIP3    H179967   4.573   3.217  12.392 -0.5620  0.1562  0.0932
19492TIP3    H279968   4.611   3.320  12.288 -0.1091  1.2291  1.3019
19493TIP3   OH279969   1.926   4.737  14.237 -0.1824 -0.6917 -0.1313
19493TIP3    H179970   1.989   4.765  14.171 -0.0014  1.3160  0.8284
19493TIP3    H279971   1.912   4.644  14.218  1.5995 -0.7346 -1.5482
19494TIP3   OH279972   5.487   0.820   5.180  0.4470 -0.3377  0.8154
19494TIP3    H179973   5.433   0.787   5.108  0.3257 -0.0389  0.7650
19494TIP3    H279974   5.424   0.859   5.240  0.6878  1.1187  0.1737
19495TIP3   OH279975   1.529   5.622  15.148 -0.7008  0.3281  0.8189
19495TIP3    H179976   1.553   5.530  15.144  0.3318  0.5915  0.5795
19495TIP3    H279977   1.612   5.669  15.139 -1.1690  1.2783  1.2639
19496TIP3   OH279978   0.392   6.127  10.926 -0.6892  0.0814 -0.1507
19496TIP3    H179979   0.343   6.058  10.972 -0.3226  0.2566  0.5193
19496TIP3    H279980   0.376   6.111  10.833 -1.7680 -0.0467  0.0518
19497TIP3   OH279981   6.010   1.879  11.882 -0.1682 -0.5063  0.1528
19497TIP3    H179982   6.049   1.915  11.961  0.9216 -1.6652  0.1648
19497TIP3    H279983   6.012   1.952  11.819  0.1897  0.0264  0.7707
19498TIP3   OH279984   1.190   6.334   0.781 -0.0586 -0.1211  0.1447
19498TIP3    H179985   1.130   6.271   0.742  1.0106 -0.2986 -1.2940
19498TIP3    H279986   1.216   6.390   0.707 -0.8425  1.9157  1.3356
19499TIP3   OH279987   4.685   0.443   4.607  0.1226  0.1366 -0.2155
19499TIP3    H179988   4.720   0.453   4.696  1.5242  0.8299 -0.8084
19499TIP3    H279989   4.682   0.348   4.593  0.6601  0.0343  0.2954
19500TIP3   OH279990   2.223   4.575   4.093  0.0976  0.4417  0.1345
19500TIP3    H179991   2.149   4.540   4.144  0.8683 -0.5873  0.5954
19500TIP3    H279992   2.218   4.528   4.010  0.2414  0.3614  0.1717
19501TIP3   OH279993   3.844   3.750  13.645 -0.1314  1.0583 -0.0791
19501TIP3    H179994   3.799   3.774  13.726 -0.1409  1.0679 -0.0873
19501TIP3    H279995   3.921   3.807  13.642  0.1366  0.7144  0.1783
19502TIP3   OH279996   5.619   2.135  12.153 -0.2576  0.0338  0.5241
19502TIP3    H179997   5.668   2.086  12.219 -1.5246 -0.9554  0.7674
19502TIP3    H279998   5.633   2.227  12.177  1.7572 -0.1692  0.3450
19503TIP3   OH279999   3.742   3.548  11.691 -0.6992  0.3884 -0.4874
19503TIP3    H180000   3.724   3.586  11.605 -1.9924 -0.2671 -0.5283
19503TIP3    H280001   3.775   3.621  11.743 -1.8755  1.2661 -0.9408
19504TIP3   OH280002   0.180   1.489  10.805  0.4239 -0.5750  0.6574
19504TIP3    H180003   0.102   1.536  10.776 -0.2775 -2.0868 -0.0382
19504TIP3    H280004   0.246   1.508  10.738  0.8008  1.0000  1.4387
19505TIP3   OH280005   0.098   1.740   5.402  0.3405 -0.2203 -0.4804
19505TIP3    H180006   0.026   1.796   5.431  0.7243 -0.6601  1.4710
19505TIP3    H280007   0.130   1.782   5.322 -0.7293  1.1443 -0.2371
19506TIP3   OH280008   3.738   1.598   1.061 -0.5368  0.3814 -0.6603
19506TIP3    H180009   3.734   1.678   1.009 -2.2829  0.9724  0.3158
19506TIP3    H280010   3.827   1.564   1.046 -0.0710  1.9968 -1.7966
19507TIP3   OH280011   5.032   0.184   5.145 -0.2254 -0.5012  0.6197
19507TIP3    H180012   4.940   0.166   5.160 -0.4100  0.2882  0.4680
19507TIP3    H280013   5.033   0.255   5.081  0.4493  0.4640  1.6583
19508TIP3   OH280014   4.089   6.704   2.934  0.0651  0.0649  0.1537
19508TIP3    H180015   4.179   6.699   2.903  0.7604  0.3984  2.0260
19508TIP3    H280016   4.094   6.748   3.019 -1.9814  1.0590 -0.1545
19509TIP3   OH280017   0.294   6.561   5.811  0.0474 -0.0218 -0.0573
19509TIP3    H180018   0.225   6.627   5.811  1.4648  1.5419 -0.5946
19509TIP3    H280019   0.318   6.551   5.904 -0.1454  0.2603  0.0215
19510TIP3   OH280020   0.753   1.812  12.468 -0.4500  0.0174  0.1161
19510TIP3    H180021   0.663   1.820  12.498 -1.0338  0.8333 -1.7002
19510TIP3    H280022   0.757   1.865  12.388  0.6577 -2.7510 -1.8352
19511TIP3   OH280023   5.582   3.810  11.420  1.1635  0.4701 -0.0755
19511TIP3    H180024   5.629   3.812  11.503  0.6791  2.1232  0.1764
19511TIP3    H280025   5.639   3.856  11.359  0.6897  0.8700 -0.2181
19512TIP3   OH280026   5.833   1.144   2.907  0.3052 -0.0006 -0.7919
19512TIP3    H180027   5.738   1.155   2.902  0.1291 -0.7663  0.4377
19512TIP3    H280028   5.867   1.234   2.914 -0.5789  0.1985  1.9596
19513TIP3   OH280029   0.381   0.039  13.302  0.0907 -0.6208 -0.5089
19513TIP3    H180030   0.445   0.053  13.372  0.2943 -1.9101 -0.4094
19513TIP3    H280031   0.299   0.072  13.337  0.7002  1.1467 -0.6708
19514TIP3   OH280032   6.015   3.321   4.387 -0.1254  0.2800 -0.5256
19514TIP3    H180033   6.067   3.308   4.467  0.0448 -2.4413 -0.9995
19514TIP3    H280034   6.061   3.270   4.321 -2.4245 -0.7443 -1.4026
19515TIP3   OH280035   3.642   2.382  14.080 -0.5104 -0.2761 -0.8183
19515TIP3    H180036   3.616   2.408  13.992 -0.1518 -1.6381 -1.3430
19515TIP3    H280037   3.735   2.404  14.085 -0.9950  1.9527  0.0773
19516TIP3   OH280038   3.917   0.407  15.804 -0.1351  0.3685 -0.2518
19516TIP3    H180039   3.845   0.351  15.831 -0.4489 -0.6030 -2.8653
19516TIP3    H280040   3.974   0.411  15.881 -1.4249 -1.3588  0.8694
19517TIP3   OH280041   6.643   0.747   3.345  0.0175  0.4282 -0.0054
19517TIP3    H180042   6.717   0.717   3.399  0.7520  0.4107 -0.9944
19517TIP3    H280043   6.576   0.772   3.408  0.6499 -0.1125  0.9078
19518TIP3   OH280044   2.160   0.428   1.912  0.2750  0.3005 -0.1484
19518TIP3    H180045   2.240   0.404   1.866  0.7341 -2.0580  1.6813
19518TIP3    H280046   2.160   0.523   1.913  0.9291  0.4688 -3.6628
19519TIP3   OH280047   4.322   4.779   5.661 -0.1572 -0.2296  0.3273
19519TIP3    H180048   4.387   4.757   5.727  1.0170  0.1675 -0.6469
19519TIP3    H280049   4.274   4.853   5.698  1.1848  0.6695  0.3132
19520TIP3   OH280050   5.079   1.310   1.655  0.2345 -0.1539  0.1277
19520TIP3    H180051   5.029   1.274   1.582  0.7866  0.9319 -0.8085
19520TIP3    H280052   5.170   1.292   1.634  0.3431 -1.0953  1.2667
19521TIP3   OH280053   0.177   3.126   2.279 -0.3863 -0.4733 -0.4000
19521TIP3    H180054   0.197   3.214   2.311 -0.1978 -0.5513 -0.2998
19521TIP3    H280055   0.186   3.132   2.184 -1.8389 -0.0125 -0.5333
19522TIP3   OH280056   3.318   6.384  14.225  0.2087 -0.2999 -0.0065
19522TIP3    H180057   3.307   6.357  14.316 -0.8531  0.8648  0.2332
19522TIP3    H280058   3.370   6.464  14.230  0.6278 -0.5399 -0.4707
19523TIP3   OH280059   2.543   1.716   1.398  0.0076 -0.2327 -0.5662
19523TIP3    H180060   2.577   1.698   1.310 -1.9214  1.5838 -1.7886
19523TIP3    H280061   2.469   1.655   1.408  0.7983 -1.0896  0.2249
19524TIP3   OH280062   5.649   1.608  15.312 -0.1813  0.1448 -0.5382
19524TIP3    H180063   5.653   1.594  15.217 -0.4488 -0.3136 -0.4843
19524TIP3    H280064   5.597   1.535  15.345  0.4155 -0.0282  0.0359
19525TIP3   OH280065   4.341   2.269   5.884 -0.3086 -0.3683 -0.3146
19525TIP3    H180066   4.345   2.337   5.951  1.5690 -1.7313  1.0350
19525TIP3    H280067   4.289   2.309   5.813  0.6889  2.4479  0.4080
19526TIP3   OH280068   3.082   4.045  12.291 -0.1851 -0.4090  0.3241
19526TIP3    H180069   3.161   4.071  12.243  0.2229 -0.6622  0.8481
19526TIP3    H280070   3.011   4.093  12.247  0.1770 -0.6085 -0.5060
19527TIP3   OH280071   1.184   6.268  15.816 -0.2221 -0.4297 -0.0279
19527TIP3    H180072   1.130   6.201  15.857 -0.7294  0.4501  0.7891
19527TIP3    H280073   1.269   6.226  15.804 -0.7534 -1.4671 -0.2873
19528TIP3   OH280074   4.856   5.421  13.431  0.0423 -0.2109  0.0429
19528TIP3    H180075   4.849   5.385  13.519 -0.8475  1.0162  0.4962
19528TIP3    H280076   4.812   5.506  13.435  1.0752  0.4423 -1.2685
19529TIP3   OH280077   5.758   6.709  13.969 -0.1867  0.1468  0.0610
19529TIP3    H180078   5.827   6.761  14.010 -0.5430  0.9907 -0.3858
19529TIP3    H280079   5.686   6.711  14.033  0.2171 -0.8007  0.5622
19530TIP3   OH280080   6.501   1.001   0.638 -0.1976 -0.1231 -0.8276
19530TIP3    H180081   6.596   0.994   0.630 -0.0839  0.4151 -0.0711
19530TIP3    H280082   6.483   1.094   0.622 -0.6580 -0.3324 -1.5309
19531TIP3   OH280083   6.114   3.348  14.319 -0.2616 -0.6054  0.1275
19531TIP3    H180084   6.070   3.303  14.391 -2.1208  1.2198  0.2572
19531TIP3    H280085   6.048   3.353  14.250  1.0613 -1.1789 -1.2337
19532TIP3   OH280086   1.492   1.474  16.976  0.2440  1.1399  0.5347
19532TIP3    H180087   1.509   1.412  17.048 -2.8727 -1.1553 -0.4861
19532TIP3    H280088   1.566   1.463  16.917  0.9624  0.2369  1.5608
19533TIP3   OH280089   6.220   0.438  14.202 -0.1094  0.2367  0.9715
19533TIP3    H180090   6.308   0.468  14.185 -0.3033  0.6737  0.7440
19533TIP3    H280091   6.230   0.345  14.224  0.3113  0.0621  0.0822
19534TIP3   OH280092   6.228   1.737  12.189 -0.0196  0.3977  0.1391
19534TIP3    H180093   6.227   1.808  12.124 -0.0330  0.1534 -0.1327
19534TIP3    H280094   6.164   1.674  12.156 -1.1812  0.9828  1.2126
19535TIP3   OH280095   0.395   3.139  15.163  0.2093 -0.3876 -0.7280
19535TIP3    H180096   0.380   3.187  15.245  3.0811  2.4196 -1.6102
19535TIP3    H280097   0.461   3.073  15.186  1.9156  1.1815 -0.8922
19536TIP3   OH280098   3.559   6.378   3.372  0.0824  0.1754  0.1011
19536TIP3    H180099   3.480   6.364   3.425 -0.6148 -0.5074 -1.0855
19536TIP3    H280100   3.526   6.395   3.284  1.2700 -1.4543 -0.7075
19537TIP3   OH280101   3.197   6.624  11.881  0.1161 -0.3984  0.2904
19537TIP3    H180102   3.206   6.685  11.808 -1.2765 -0.0855  0.3518
19537TIP3    H280103   3.200   6.680  11.959  0.7349 -0.6314  0.4357
19538TIP3   OH280104   5.129   5.772  14.649  0.0191  0.3047  0.0146
19538TIP3    H180105   5.089   5.717  14.582  1.4428 -0.6757 -0.0758
19538TIP3    H280106   5.083   5.856  14.642 -2.6510 -0.9984  0.5546
19539TIP3   OH280107   1.376   1.054  15.675  0.8829  0.9266  0.0558
19539TIP3    H180108   1.403   0.963  15.688  1.2447  0.8377 -1.1380
19539TIP3    H280109   1.327   1.076  15.753 -2.6879 -1.5837 -1.2303
19540TIP3   OH280110   4.020   1.120  15.343  0.5031 -0.1698 -0.2573
19540TIP3    H180111   3.945   1.147  15.396  0.8789  0.9344 -0.2767
19540TIP3    H280112   4.084   1.191  15.353  0.5211  0.1438 -2.3333
19541TIP3   OH280113   6.651   6.369   1.186 -0.2782  0.1352 -0.3108
19541TIP3    H180114   6.569   6.409   1.157 -0.4426 -1.3387 -2.0380
19541TIP3    H280115   6.625   6.315   1.261 -0.5370  1.0803  0.3001
19542TIP3   OH280116   2.233   2.236   0.823  0.0948  0.6915  0.1293
19542TIP3    H180117   2.192   2.235   0.737 -0.0406  0.5701  0.1948
19542TIP3    H280118   2.198   2.313   0.866 -0.7450  0.1155  0.5103
19543TIP3   OH280119   1.511   5.182  16.280 -0.4237 -0.5790  0.1458
19543TIP3    H180120   1.512   5.244  16.353 -1.2400  0.8751 -1.0174
19543TIP3    H280121   1.578   5.214  16.220 -0.8008 -0.8596 -0.4408
19544TIP3   OH280122   1.183   3.806  12.608  0.3405 -0.6382  0.6529
19544TIP3    H180123   1.118   3.852  12.662  0.3608 -1.6858  1.6133
19544TIP3    H280124   1.267   3.824  12.651  0.8264  1.2546 -0.9540
19545TIP3   OH280125   6.554   3.968   1.960  0.5177  0.6324  0.0168
19545TIP3    H180126   6.627   3.951   1.901  0.3337  0.8527 -0.2731
19545TIP3    H280127   6.532   4.060   1.946  0.2937  0.6124  0.2254
19546TIP3   OH280128   4.338   0.255   3.378  0.0031  0.6588  0.7552
19546TIP3    H180129   4.250   0.292   3.382  0.6000  2.2618  0.0372
19546TIP3    H280130   4.338   0.185   3.443 -1.3919  1.5094  1.7211
19547TIP3   OH280131   1.081   4.542   3.846  0.3532 -0.2817  0.2314
19547TIP3    H180132   1.002   4.521   3.895  0.6374  1.3313  1.4436
19547TIP3    H280133   1.115   4.621   3.887  1.9893 -0.2959 -0.9895
19548TIP3   OH280134   2.629   6.757   1.440 -0.4773 -0.2589 -0.4216
19548TIP3    H180135   2.579   6.775   1.360  1.0967 -1.3176 -1.6986
19548TIP3    H280136   2.703   6.704   1.410 -1.5881 -3.5868  2.1806
19549TIP3   OH280137   4.738   2.126  12.832  0.1152 -0.1052 -0.2977
19549TIP3    H180138   4.672   2.119  12.900 -0.9969 -2.1452 -1.4649
19549TIP3    H280139   4.821   2.132  12.879 -0.7655  0.8455  1.2017
19550TIP3   OH280140   1.946   3.414  15.687  0.4789  0.2034 -0.1387
19550TIP3    H180141   1.894   3.403  15.767 -0.1888 -0.4880 -0.6461
19550TIP3    H280142   1.996   3.332  15.680  0.5982  0.2982 -0.3776
19551TIP3   OH280143   4.466   4.468   0.803  0.2803  0.2728 -0.5184
19551TIP3    H180144   4.427   4.491   0.719 -0.1299  1.5192 -0.0007
19551TIP3    H280145   4.434   4.379   0.821  0.7954 -0.2191 -1.9024
19552TIP3   OH280146   6.662   4.742  16.600 -0.4593 -0.4220  0.3634
19552TIP3    H180147   6.642   4.701  16.684  0.8300 -1.3057  0.2731
19552TIP3    H280148   6.729   4.808  16.621  0.8794 -1.5700 -0.1138
19553TIP3   OH280149   0.075   2.028  15.083  0.2051  0.3748 -0.2919
19553TIP3    H180150   0.018   1.995  15.152 -0.0102 -1.6800 -1.3706
19553TIP3    H280151   0.042   2.116  15.065 -0.5588  0.4557  1.2995
19554TIP3   OH280152   5.771   2.651  16.289  0.5301 -0.3852 -0.2274
19554TIP3    H180153   5.759   2.705  16.211  0.7442 -0.5481 -0.3757
19554TIP3    H280154   5.866   2.639  16.295  0.3830 -3.2482 -1.9293
19555TIP3   OH280155   4.924   4.998   3.503 -0.4400 -0.5930 -0.0129
19555TIP3    H180156   4.885   5.038   3.426 -0.1375 -2.5402 -1.2410
19555TIP3    H280157   4.866   4.924   3.524  0.1138 -0.7843  0.9093
19556TIP3   OH280158   2.538   5.190  15.044 -0.1476 -0.6011 -0.4977
19556TIP3    H180159   2.593   5.241  14.985  0.9144 -2.2368 -0.9855
19556TIP3    H280160   2.594   5.118  15.074 -1.4081 -1.1795  0.5937
19557TIP3   OH280161   3.095   5.723  11.342  0.1517  0.3372 -0.2101
19557TIP3    H180162   3.177   5.749  11.384  0.5113 -0.7937 -0.1759
19557TIP3    H280163   3.068   5.801  11.293  0.8264  0.9837  0.4167
19558TIP3   OH280164   0.713   3.449  11.728  0.0302  0.1715  0.1641
19558TIP3    H180165   0.650   3.389  11.768 -0.2405  0.1530 -0.2778
19558TIP3    H280166   0.715   3.423  11.636  2.0203 -0.9988  0.4793
19559TIP3   OH280167   3.938   0.132   0.691  0.1482 -0.3544  0.1730
19559TIP3    H180168   3.999   0.139   0.764  1.5990  0.7876 -1.0808
19559TIP3    H280169   3.950   0.044   0.657 -0.3069 -0.7814  1.0900
19560TIP3   OH280170   3.832   2.239   6.864  0.1881 -0.0002 -0.6820
19560TIP3    H180171   3.850   2.332   6.850 -0.7840  0.1954 -0.7395
19560TIP3    H280172   3.918   2.199   6.878  0.4675  1.4106  2.4444
19561TIP3   OH280173   5.849   0.689  11.901 -0.2049 -0.2822 -0.7862
19561TIP3    H180174   5.901   0.610  11.886  0.5875 -0.8107  3.3269
19561TIP3    H280175   5.897   0.737  11.969 -3.5134  0.6874  1.1442
19562TIP3   OH280176   4.412   3.173   6.703 -0.1047 -0.4356  0.0726
19562TIP3    H180177   4.393   3.196   6.794 -3.7395 -1.9778 -0.1364
19562TIP3    H280178   4.328   3.183   6.658  1.2660 -1.0502 -2.8649
19563TIP3   OH280179   3.202   5.940   2.301  0.0857 -0.5708  0.1940
19563TIP3    H180180   3.148   5.946   2.379 -1.3271  2.2878 -0.8299
19563TIP3    H280181   3.149   5.980   2.232  2.8752  0.9581 -1.2623
19564TIP3   OH280182   6.648   2.061  12.703  0.7457 -0.3364  0.0626
19564TIP3    H180183   6.589   2.002  12.656  1.6659 -0.7403 -0.6038
19564TIP3    H280184   6.590   2.126  12.742 -0.2708 -1.5539  0.6392
19565TIP3   OH280185   1.480   6.772  13.832  0.0400 -0.0902  0.5062
19565TIP3    H180186   1.489   6.814  13.747 -1.9726 -1.9491 -0.7656
19565TIP3    H280187   1.567   6.737  13.851  1.3491  3.0148  0.8472
19566TIP3   OH280188   4.635   0.836  12.645  0.1812  0.0195 -0.0008
19566TIP3    H180189   4.643   0.895  12.720 -1.0827 -1.3676  1.2811
19566TIP3    H280190   4.700   0.767  12.661  0.3798  0.0770 -0.5406
19567TIP3   OH280191   1.121   4.894   5.472  0.0125 -0.0260 -0.3104
19567TIP3    H180192   1.037   4.920   5.435 -0.1100  0.4843  0.3043
19567TIP3    H280193   1.186   4.924   5.409 -0.2597 -0.3034 -0.7239
19568TIP3   OH280194   2.399   4.491   2.562  0.5518  0.0416  0.4291
19568TIP3    H180195   2.329   4.505   2.498  0.0326 -0.6947  0.8189
19568TIP3    H280196   2.353   4.481   2.645  1.2859  2.6665  1.2536
19569TIP3   OH280197   5.253   1.583   5.928  0.4666 -0.3735 -0.1494
19569TIP3    H180198   5.174   1.537   5.900  0.9502 -1.3953  0.1158
19569TIP3    H280199   5.223   1.640   5.999 -0.0966 -0.4826 -0.2923
19570TIP3   OH280200   2.202   2.422  13.637  0.9997 -0.3130  0.5223
19570TIP3    H180201   2.231   2.434  13.547  0.0876 -1.3334  0.0656
19570TIP3    H280202   2.211   2.328  13.652 -1.7021 -0.6600  0.4383
19571TIP3   OH280203   4.321   3.092   6.042 -0.2270  0.0926 -0.4074
19571TIP3    H180204   4.352   3.095   6.132 -0.1210 -0.8451 -0.4037
19571TIP3    H280205   4.400   3.075   5.990 -0.4972 -0.8273 -0.5338
19572TIP3   OH280206   1.258   3.627  16.211  0.5808 -0.1145  0.2910
19572TIP3    H180207   1.343   3.626  16.166  0.3148 -0.6943 -0.2106
19572TIP3    H280208   1.220   3.541  16.192  0.4576 -0.3838  1.6301
19573TIP3   OH280209   6.818   4.273   4.869 -0.2692 -0.0055 -0.1352
19573TIP3    H180210   6.828   4.285   4.963 -2.1559  1.5488 -0.0623
19573TIP3    H280211   6.852   4.353   4.830 -2.6153  0.9163 -0.4723
19574TIP3   OH280212   5.332   3.559  12.782  0.0530 -0.2481  0.2061
19574TIP3    H180213   5.268   3.622  12.749 -0.4148  0.4762  2.3817
19574TIP3    H280214   5.360   3.511  12.704 -2.0687  0.3666 -1.0139
19575TIP3   OH280215   2.914   1.830  14.185  0.4213  0.0340  0.4923
19575TIP3    H180216   3.009   1.834  14.190  0.4889  2.1457 -1.0606
19575TIP3    H280217   2.887   1.921  14.170 -1.9297 -0.3394  1.9683
19576TIP3   OH280218   4.943   1.059   6.818  0.1444  0.1974 -0.5147
19576TIP3    H180219   5.004   1.111   6.766  0.4395  0.9130  0.5096
19576TIP3    H280220   4.930   1.110   6.898  0.0697 -1.0839  0.3209
19577TIP3   OH280221   0.287   0.428  15.719  0.2621  0.0324  0.6908
19577TIP3    H180222   0.230   0.433  15.642  1.7670 -1.6199 -0.5968
19577TIP3    H280223   0.289   0.518  15.753  2.1338  1.6852 -3.1454
19578TIP3   OH280224   0.237   1.607   4.538 -0.3903 -0.6090 -0.0312
19578TIP3    H180225   0.190   1.643   4.614  1.8515 -1.8452  2.0885
19578TIP3    H280226   0.288   1.681   4.505  1.2176 -0.7974  1.8597
19579TIP3   OH280227   6.292   0.931   1.980  0.0313  0.0236 -0.0535
19579TIP3    H180228   6.387   0.920   1.977  0.3521  2.4177 -1.5032
19579TIP3    H280229   6.278   0.991   2.054 -0.1301  1.0556 -0.8976
19580TIP3   OH280230   4.726   3.866   0.524 -0.2772  0.2074  0.1856
19580TIP3    H180231   4.765   3.793   0.571  0.0196  0.8846  1.0185
19580TIP3    H280232   4.730   3.940   0.586 -2.2181  0.4870  0.0406
19581TIP3   OH280233   6.795   2.919   2.182  0.6212  0.4529  0.5871
19581TIP3    H180234   6.824   2.897   2.271 -1.3880  0.3518  1.2489
19581TIP3    H280235   6.815   3.012   2.173  2.3680  0.1063  0.4881
19582TIP3   OH280236   0.016   1.136   5.074 -0.0508  0.7075 -0.8390
19582TIP3    H180237   0.097   1.135   5.125  0.1183 -3.3170 -0.8752
19582TIP3    H280238   0.043   1.165   4.987  0.9300  1.3515 -0.3403
19583TIP3   OH280239   2.857   5.959   4.668 -0.2397 -0.6970  0.0426
19583TIP3    H180240   2.913   5.882   4.683  0.0859 -0.4622  0.0511
19583TIP3    H280241   2.782   5.945   4.726 -0.8549 -1.6712 -0.9402
19584TIP3   OH280242   5.049   5.866   5.435  0.0914 -0.3842 -0.1062
19584TIP3    H180243   4.954   5.883   5.430  0.0485 -0.6305 -4.5629
19584TIP3    H280244   5.089   5.951   5.418  0.5196 -0.7873 -1.2009
19585TIP3   OH280245   2.075   1.048  15.647 -0.4422  0.6079 -0.5013
19585TIP3    H180246   2.074   0.954  15.627  3.5232  0.3671 -0.3038
19585TIP3    H280247   2.025   1.088  15.576  0.5824 -1.4556 -2.5208
19586TIP3   OH280248   4.509   1.730   2.161 -0.0848 -0.2988 -0.3152
19586TIP3    H180249   4.528   1.666   2.093  1.4617  1.6441 -1.8043
19586TIP3    H280250   4.434   1.780   2.127  0.0675  0.0486 -0.1496
19587TIP3   OH280251   5.534   4.757  17.075  0.1744  0.8789  0.0508
19587TIP3    H180252   5.551   4.691  17.143 -2.5117  0.1408  0.1390
19587TIP3    H280253   5.548   4.841  17.119 -0.7594  0.4011  1.3309
19588TIP3   OH280254   1.002   1.734  12.373  0.4751  0.3334 -0.0672
19588TIP3    H180255   0.922   1.759  12.418 -0.0993 -1.4967  0.0052
19588TIP3    H280256   0.975   1.666  12.311  2.2316 -2.0093  1.5426
19589TIP3   OH280257   6.630   6.681  13.429 -0.2441  0.5265 -0.1164
19589TIP3    H180258   6.554   6.666  13.486 -0.1958  0.8956  0.0493
19589TIP3    H280259   6.651   6.594  13.394 -0.9351  0.4637 -0.4094
19590TIP3   OH280260   3.506   6.595   0.579 -0.3663  0.4319  0.0252
19590TIP3    H180261   3.581   6.583   0.521  0.7896  0.6286  1.4313
19590TIP3    H280262   3.485   6.688   0.572  0.3877  0.6580  0.6270
19591TIP3   OH280263   4.533   0.647  15.667  0.1145  0.2449  0.8505
19591TIP3    H180264   4.488   0.682  15.590 -2.3883 -2.4626  0.8879
19591TIP3    H280265   4.619   0.689  15.666 -1.1103  3.0295 -1.3145
19592TIP3   OH280266   6.420   3.544   4.947 -0.1619  0.2947 -0.1035
19592TIP3    H180267   6.390   3.523   5.035 -1.3880  0.3069 -0.4906
19592TIP3    H280268   6.494   3.486   4.932  0.0621  0.3007  0.9332
19593TIP3   OH280269   3.757   4.347  11.228 -0.6133 -0.1695 -0.5931
19593TIP3    H180270   3.697   4.336  11.154 -0.3262 -0.4220 -0.7899
19593TIP3    H280271   3.749   4.267  11.279 -1.4448  0.3476  0.1283
19594TIP3   OH280272   0.413   1.317  11.702 -0.7790  0.3066  0.1333
19594TIP3    H180273   0.504   1.348  11.706 -1.1878  1.4586  1.0912
19594TIP3    H280274   0.361   1.392  11.728 -2.0233 -0.3746 -0.2973
19595TIP3   OH280275   1.578   1.298  15.808  0.2538  0.1830 -0.0196
19595TIP3    H180276   1.610   1.237  15.742  2.3081  1.6841 -0.5316
19595TIP3    H280277   1.597   1.256  15.892  0.5127 -0.3892 -0.3629
19596TIP3   OH280278   0.177   5.762   2.386 -0.3232  0.4741 -0.1842
19596TIP3    H180279   0.130   5.709   2.322 -1.6065 -1.4193  2.1862
19596TIP3    H280280   0.109   5.796   2.444  0.9374 -0.0293  1.6809
19597TIP3   OH280281   5.683   4.675  11.691 -0.1580  0.0220 -0.2309
19597TIP3    H180282   5.618   4.609  11.668  0.5729  0.3038 -3.6986
19597TIP3    H280283   5.766   4.637  11.662  0.9102  0.7087  1.7726
19598TIP3   OH280284   2.679   5.306   3.283 -0.6184  0.1534  0.7828
19598TIP3    H180285   2.618   5.276   3.216  0.1828  0.7232 -0.2274
19598TIP3    H280286   2.641   5.387   3.316 -0.0853  0.8804 -0.3396
19599TIP3   OH280287   4.654   1.621   4.431 -0.3673  0.8135  0.2700
19599TIP3    H180288   4.596   1.622   4.508  0.2850 -0.3035  0.8141
19599TIP3    H280289   4.727   1.565   4.458 -0.4126 -0.0950 -1.3773
19600TIP3   OH280290   0.660   5.922  16.425  0.3645 -1.0994  0.0744
19600TIP3    H180291   0.621   5.850  16.476  0.6360 -1.3009  0.0031
19600TIP3    H280292   0.600   5.935  16.352  0.2245 -1.1366  0.1820
19601TIP3   OH280293   4.830   5.520   2.331  0.1614  0.1975  0.8104
19601TIP3    H180294   4.749   5.551   2.291  0.3337  0.3783  0.6006
19601TIP3    H280295   4.805   5.498   2.421 -0.5336 -1.5593  0.2232
19602TIP3   OH280296   6.356   4.876  15.345  0.6705  0.1325  0.0328
19602TIP3    H180297   6.407   4.807  15.387  0.1821  0.0289  0.4665
19602TIP3    H280298   6.293   4.903  15.412  0.0394  0.1299 -0.5561
19603TIP3   OH280299   4.846   3.910  10.726 -0.0352 -0.0504 -0.2191
19603TIP3    H180300   4.774   3.969  10.706 -0.0643 -0.0578 -0.1367
19603TIP3    H280301   4.881   3.884  10.640  0.0882  0.2238 -0.2523
19604TIP3   OH280302   0.973   4.579   5.250  0.6581 -0.1343  0.2782
19604TIP3    H180303   1.048   4.639   5.243  0.6504 -0.3363 -3.3538
19604TIP3    H280304   1.002   4.500   5.205 -0.5155 -1.6914  2.1083
19605TIP3   OH280305   3.615   0.424   1.018  0.1841  0.0705  0.8152
19605TIP3    H180306   3.561   0.447   0.943 -0.1287 -3.0690 -0.0906
19605TIP3    H280307   3.696   0.472   1.006 -1.2124  2.4939  0.5330
19606TIP3   OH280308   1.907   5.708   4.295 -0.1155  0.0279 -0.5024
19606TIP3    H180309   1.880   5.797   4.274 -0.4292 -0.4733 -2.4973
19606TIP3    H280310   1.878   5.656   4.220 -1.4547 -2.0660  1.3428
19607TIP3   OH280311   0.524   0.143   4.619 -0.1260 -0.0266  0.1586
19607TIP3    H180312   0.466   0.192   4.678  0.0746 -1.0605  1.2412
19607TIP3    H280313   0.600   0.200   4.608 -0.2473  0.2587  0.7546
19608TIP3   OH280314   4.875   6.800   6.367  0.5235  0.2535 -0.7065
19608TIP3    H180315   4.917   6.830   6.286 -0.2717  1.4113 -0.7169
19608TIP3    H280316   4.852   6.880   6.413 -0.6219 -0.3612 -0.1686
19609TIP3   OH280317   0.878   4.291   5.426  0.0172 -0.4018 -0.9660
19609TIP3    H180318   0.957   4.343   5.439 -1.3060  1.3786  0.5293
19609TIP3    H280319   0.857   4.302   5.334  0.3032  0.9598 -0.8872
19610TIP3   OH280320   0.929   2.599   5.497  0.4273  0.1495 -0.3524
19610TIP3    H180321   0.913   2.645   5.579 -0.2697 -0.2049 -0.2815
19610TIP3    H280322   0.842   2.588   5.458  0.4983 -1.6290 -0.0829
19611TIP3   OH280323   5.951   2.938   2.442 -0.1642  0.0033 -0.1437
19611TIP3    H180324   5.932   2.878   2.370 -1.8709  1.9082 -1.4047
19611TIP3    H280325   6.025   2.990   2.410 -0.2634  0.1801 -0.0859
19612TIP3   OH280326   3.984   5.701  16.746  0.4559 -0.2978 -0.2327
19612TIP3    H180327   4.013   5.684  16.656  0.6344  0.2645 -0.2868
19612TIP3    H280328   3.889   5.694  16.742  0.3329  1.2112 -0.8130
19613TIP3   OH280329   0.165   2.690   2.113 -0.2084  0.1220 -0.5495
19613TIP3    H180330   0.116   2.635   2.052 -1.8062  0.8454  0.0222
19613TIP3    H280331   0.134   2.663   2.199  2.0703 -0.9374  0.0189
19614TIP3   OH280332   0.042   6.474  16.153  0.3489  0.2718  0.4172
19614TIP3    H180333   0.058   6.470  16.247 -1.1532 -1.1443  0.6543
19614TIP3    H280334  -0.028   6.538  16.143 -1.4861 -1.6081  0.6253
19615TIP3   OH280335   3.463   5.429   6.335  0.2212 -0.1678 -0.2741
19615TIP3    H180336   3.516   5.457   6.410 -0.7345  1.3265 -0.0962
19615TIP3    H280337   3.443   5.510   6.289 -3.2856 -0.3611  0.6311
19616TIP3   OH280338   1.532   1.905   3.249  0.2135  0.2487 -0.5368
19616TIP3    H180339   1.457   1.946   3.293 -0.1374 -2.3245  1.5616
19616TIP3    H280340   1.609   1.943   3.292 -0.0958 -0.8261  1.0661
19617TIP3   OH280341   3.713   5.878   1.926  0.0684  0.7644  0.1446
19617TIP3    H180342   3.651   5.910   1.991 -1.1790  0.0011 -0.6323
19617TIP3    H280343   3.671   5.801   1.888  1.2958  0.4917 -0.7260
19618TIP3   OH280344   5.069   3.859  17.020 -0.0961 -0.6005 -0.0431
19618TIP3    H180345   5.101   3.857  16.930 -0.5462 -0.5655 -0.2081
19618TIP3    H280346   5.130   3.802  17.068  0.5808 -0.0347 -0.2155
19619TIP3   OH280347   6.732   0.338   3.891 -0.1137 -0.2022 -0.0277
19619TIP3    H180348   6.658   0.286   3.924  0.5486 -1.0352  0.1980
19619TIP3    H280349   6.718   0.425   3.928  0.1240 -0.8827  1.7743
19620TIP3   OH280350   4.226   1.053   0.775  0.1435  0.5427 -0.4581
19620TIP3    H180351   4.230   0.972   0.825  2.6625  1.0397  0.2780
19620TIP3    H280352   4.199   1.120   0.838  0.4576  0.6834 -0.4717
19621TIP3   OH280353   6.121   6.576  15.424  0.5709 -0.1050 -0.0119
19621TIP3    H180354   6.155   6.592  15.512  0.2363 -2.2793  0.5636
19621TIP3    H280355   6.036   6.620  15.423  1.7239  2.3108 -0.2597
19622TIP3   OH280356   3.379   6.188  16.882  0.4464 -0.4361  0.1448
19622TIP3    H180357   3.429   6.163  16.804  0.5783  0.7820 -0.1866
19622TIP3    H280358   3.343   6.274  16.861 -0.0357 -0.3594  1.1991
19623TIP3   OH280359   5.307   2.071   4.341 -0.6553  0.2419 -0.2163
19623TIP3    H180360   5.357   2.076   4.422 -1.6613 -3.1415  0.7941
19623TIP3    H280361   5.371   2.085   4.272  0.6699  0.9537  1.1173
19624TIP3   OH280362   5.276   0.676   6.600 -0.8111 -0.0422  0.1903
19624TIP3    H180363   5.234   0.591   6.614 -0.8764  0.1291  1.0539
19624TIP3    H280364   5.224   0.738   6.653 -0.3250  0.4133  0.1442
19625TIP3   OH280365   5.318   2.240   0.668  0.1874 -0.4507  0.3794
19625TIP3    H180366   5.279   2.255   0.582 -0.3673  0.2519  0.7351
19625TIP3    H280367   5.242   2.229   0.726  0.5585 -1.4429  0.6999
19626TIP3   OH280368   0.221   1.752   4.930  0.0560  0.1471  0.2917
19626TIP3    H180369   0.193   1.772   4.841  1.6905 -1.4017 -0.6374
19626TIP3    H280370   0.230   1.656   4.932  1.2336  0.2386  1.7302
19627TIP3   OH280371   3.963   0.176  16.474 -0.2829 -0.1089 -0.4433
19627TIP3    H180372   3.912   0.154  16.552  1.9914 -1.1690  0.8426
19627TIP3    H280373   4.054   0.162  16.499  0.9532  3.7629 -1.9117
19628TIP3   OH280374   0.461   1.266  10.731  0.0556 -0.0087  0.8496
19628TIP3    H180375   0.530   1.200  10.725 -0.9136 -0.9765 -0.0517
19628TIP3    H280376   0.502   1.346  10.697  0.3044 -0.9356 -1.1379
19629TIP3   OH280377   1.067   1.017  11.567 -0.3138 -0.7602 -0.1605
19629TIP3    H180378   1.078   0.927  11.597  2.2326 -1.0473 -1.6285
19629TIP3    H280379   1.109   1.019  11.481  2.5172  2.4141  1.0495
19630TIP3   OH280380   1.935   0.693  12.168 -0.4125  0.0321  0.3965
19630TIP3    H180381   1.987   0.711  12.090  1.3576  0.9560  1.7005
19630TIP3    H280382   1.988   0.727  12.240 -2.8012  0.9309  1.8654
19631TIP3   OH280383   3.009   2.885   5.262  0.1629 -0.1933 -0.5062
19631TIP3    H180384   3.069   2.891   5.337  0.2507 -2.7693 -0.2772
19631TIP3    H280385   3.037   2.955   5.203  1.4408  0.5640  0.9240
19632TIP3   OH280386   0.154   6.308   1.089 -0.1187  0.1762  0.0340
19632TIP3    H180387   0.227   6.349   1.044 -0.9301 -0.5922 -2.1094
19632TIP3    H280388   0.098   6.380   1.117  0.2140  0.6552 -0.5360
19633TIP3   OH280389   0.827   5.811  12.648 -0.1219  0.0974 -0.5391
19633TIP3    H180390   0.853   5.755  12.721 -1.1541 -0.7980 -0.8425
19633TIP3    H280391   0.907   5.858  12.625  0.5679 -0.6506  0.2436
19634TIP3   OH280392   3.154   3.667   5.899 -0.7707 -0.2167  0.0366
19634TIP3    H180393   3.108   3.724   5.960 -0.0873 -1.1634  1.5027
19634TIP3    H280394   3.247   3.684   5.914 -0.5804  0.1951 -1.4269
19635TIP3   OH280395   1.342   4.144  13.399 -0.0324 -0.7454 -0.1664
19635TIP3    H180396   1.382   4.157  13.484 -0.8537 -1.2624  0.3188
19635TIP3    H280397   1.251   4.173  13.411 -0.1770 -0.9031 -0.8423
19636TIP3   OH280398   4.758   0.617  14.658 -0.2469 -0.1379  0.0820
19636TIP3    H180399   4.721   0.533  14.630  1.8175 -1.0976  0.0236
19636TIP3    H280400   4.853   0.602  14.659  0.2343  2.3945 -0.5665
19637TIP3   OH280401   4.272   0.436  12.127 -0.2976 -0.6499 -0.3219
19637TIP3    H180402   4.361   0.453  12.157 -0.2731 -2.4332  0.7535
19637TIP3    H280403   4.233   0.523  12.117  1.1653  0.1263  0.3905
19638TIP3   OH280404   1.035   2.753  11.933 -0.1628 -0.0381  0.4476
19638TIP3    H180405   1.054   2.699  12.010  0.1758 -2.6105 -1.3394
19638TIP3    H280406   0.943   2.735  11.913  0.2389 -0.8370 -0.7803
19639TIP3   OH280407   6.177   0.089   1.324 -0.6585  0.0408 -0.0826
19639TIP3    H180408   6.173   0.153   1.253 -0.5541  0.5989  0.4012
19639TIP3    H280409   6.125   0.015   1.294 -0.8962  0.4175 -0.5964
19640TIP3   OH280410   5.340   6.361  13.161 -0.1532  0.2578 -0.0722
19640TIP3    H180411   5.368   6.292  13.221 -1.4205  0.4833  0.8148
19640TIP3    H280412   5.245   6.363  13.169 -0.1525  2.0767 -0.1142
19641TIP3   OH280413   4.713   3.118  13.523 -0.1586  0.0280 -0.2132
19641TIP3    H180414   4.788   3.070  13.560 -1.6657 -1.1942  1.4142
19641TIP3    H280415   4.709   3.199  13.574 -0.9920 -0.7320  0.9881
19642TIP3   OH280416   5.814   3.093   1.593 -0.4942  0.0277 -0.3944
19642TIP3    H180417   5.884   3.044   1.635 -0.5210  1.4751  1.4165
19642TIP3    H280418   5.849   3.115   1.506  0.7615 -0.3780 -0.0086
19643TIP3   OH280419   0.325   0.136   0.874 -0.3670 -0.1135 -0.5648
19643TIP3    H180420   0.343   0.129   0.780  0.7422  0.3150 -0.4013
19643TIP3    H280421   0.333   0.047   0.907  0.2400 -0.1205 -0.7175
19644TIP3   OH280422   5.869   2.983   1.111  0.0025 -0.7288 -0.0854
19644TIP3    H180423   5.935   3.022   1.054 -0.9908  0.1345 -0.6867
19644TIP3    H280424   5.907   2.988   1.199  1.0489 -0.9703 -0.5108
19645TIP3   OH280425   2.903   6.642  12.304  0.1005  0.0407  1.2785
19645TIP3    H180426   2.872   6.566  12.255 -0.2235  0.5439  0.6916
19645TIP3    H280427   2.873   6.717  12.253 -1.3047  0.6218  2.8632
19646TIP3   OH280428   4.977   1.669  13.187 -0.1787 -0.0998 -0.1033
19646TIP3    H180429   5.026   1.728  13.244 -0.1146  1.7366 -1.9084
19646TIP3    H280430   4.949   1.598  13.244  3.6260 -0.7472  1.3035
19647TIP3   OH280431   1.602   1.163   4.277  0.2068  0.7155 -0.0621
19647TIP3    H180432   1.571   1.254   4.271 -1.0844  0.5172  2.3791
19647TIP3    H280433   1.694   1.172   4.301  0.6808  1.3143 -1.8777
19648TIP3   OH280434   5.910   0.494  11.189 -0.0761  0.5134  0.2653
19648TIP3    H180435   5.881   0.585  11.198 -2.4438 -0.2828  2.1198
19648TIP3    H280436   5.853   0.458  11.122  0.6559  0.3151 -0.2523
19649TIP3   OH280437   6.593   2.898   2.388  0.5203 -0.6500 -0.1885
19649TIP3    H180438   6.661   2.965   2.398 -1.1194  0.7616  3.1075
19649TIP3    H280439   6.513   2.947   2.370 -0.7882 -1.5204  2.6384
19650TIP3   OH280440   1.646   5.739   1.897  0.3142 -0.7964  0.2066
19650TIP3    H180441   1.654   5.651   1.933  0.9117 -0.4147  1.0618
19650TIP3    H280442   1.552   5.752   1.886  0.2441 -1.7003 -0.3800
19651TIP3   OH280443   6.590   4.293   2.212 -0.1803  0.0473 -0.2243
19651TIP3    H180444   6.672   4.272   2.168 -1.3218 -1.5637 -1.7032
19651TIP3    H280445   6.579   4.223   2.277 -0.6735 -0.1044 -0.4644
19652TIP3   OH280446   6.368   3.869   4.580  0.1733 -0.3193  0.0354
19652TIP3    H180447   6.453   3.840   4.613  0.5962  0.3813 -0.4043
19652TIP3    H280448   6.307   3.850   4.650  0.9460  0.5263  0.9631
19653TIP3   OH280449   4.512   2.923   3.375 -0.4612  0.3257  0.5150
19653TIP3    H180450   4.501   2.889   3.286  0.3227  0.1306  0.4819
19653TIP3    H280451   4.539   2.847   3.427 -0.7067  0.4818  0.8800
19654TIP3   OH280452   3.995   1.339  13.283 -0.1002 -0.1355  0.6328
19654TIP3    H180453   4.041   1.265  13.323  0.2377 -0.4826 -0.3722
19654TIP3    H280454   3.982   1.313  13.192 -4.0759 -0.9408  1.2341
19655TIP3   OH280455   0.957   5.970   2.417 -0.0246  0.2301 -0.7521
19655TIP3    H180456   0.864   5.954   2.408 -0.4201  1.8090  0.1502
19655TIP3    H280457   0.996   5.930   2.339 -1.3200 -1.2728 -0.6724
19656TIP3   OH280458   2.675   4.179  11.217 -0.4336 -0.2994 -1.0528
19656TIP3    H180459   2.639   4.138  11.296 -0.9060 -0.2661 -1.2466
19656TIP3    H280460   2.700   4.105  11.162 -0.4418 -0.3236 -1.0237
19657TIP3   OH280461   5.441   6.532  16.872  0.1567  0.2040  0.1151
19657TIP3    H180462   5.456   6.589  16.947  0.0960 -1.0409  1.1050
19657TIP3    H280463   5.478   6.580  16.798 -0.4416  1.7920  0.7886
19658TIP3   OH280464   1.848   2.616   3.529  0.3351 -0.0687  0.2415
19658TIP3    H180465   1.863   2.684   3.594  0.6053  0.2564 -0.1546
19658TIP3    H280466   1.877   2.535   3.571  1.6236  0.3044  0.1105
19659TIP3   OH280467   0.713   2.957  13.790  0.8542  0.0877 -0.1288
19659TIP3    H180468   0.689   3.001  13.871  0.8789  0.7584 -0.4749
19659TIP3    H280469   0.734   2.867  13.816 -0.8672 -0.2048  0.3404
19660TIP3   OH280470   3.570   2.218   0.885 -0.2806 -0.8081  0.1082
19660TIP3    H180471   3.509   2.152   0.850 -2.0216  0.5091  0.4860
19660TIP3    H280472   3.564   2.208   0.980 -2.7007  1.5652  0.3267
19661TIP3   OH280473   0.680   3.093  12.425 -0.0551 -0.0848  0.1440
19661TIP3    H180474   0.623   3.105  12.501 -0.5873  0.9548 -0.3970
19661TIP3    H280475   0.768   3.089  12.461 -0.2922  0.5737  0.8007
19662TIP3   OH280476   6.224   4.457   3.889  0.5143 -0.8586 -0.5650
19662TIP3    H180477   6.188   4.395   3.826  0.2772 -0.6927 -0.5915
19662TIP3    H280478   6.249   4.402   3.964 -2.9830 -0.6433  0.9442
19663TIP3   OH280479   6.475   4.677   1.250  0.0219 -0.4181  0.3344
19663TIP3    H180480   6.562   4.700   1.283  0.7845 -0.3490 -1.5745
19663TIP3    H280481   6.446   4.755   1.203 -0.6968 -0.7502  0.2164
19664TIP3   OH280482   1.286   2.141  11.316 -0.7015  0.2677 -0.3905
19664TIP3    H180483   1.194   2.137  11.291 -1.2057  2.6701  0.8571
19664TIP3    H280484   1.330   2.175  11.239 -0.9015 -0.4363 -0.8296
19665TIP3   OH280485   0.968   0.031   4.781 -0.2176  0.5597 -0.5319
19665TIP3    H180486   0.947   0.072   4.864  1.4387 -0.9113  0.7099
19665TIP3    H280487   0.946  -0.062   4.794  0.9296  0.1412 -1.3663
19666TIP3   OH280488   5.970   0.860  16.733  0.5752 -0.1405 -0.2166
19666TIP3    H180489   5.970   0.764  16.734  0.4425 -0.1530  1.5723
19666TIP3    H280490   6.048   0.883  16.682  1.6535 -1.2246  0.8663
19667TIP3   OH280491   3.185   1.802   0.027  0.0759 -0.7276  0.4586
19667TIP3    H180492   3.162   1.821   0.118  0.5976 -1.3635  0.7308
19667TIP3    H280493   3.101   1.797  -0.019 -0.1615  0.1753  0.7845
19668TIP3   OH280494   5.834   0.405  14.919 -0.3757 -0.2099  0.2041
19668TIP3    H180495   5.880   0.438  14.996  0.4412  1.7818 -1.0345
19668TIP3    H280496   5.900   0.405  14.850 -1.6625  0.6458 -1.1125
19669TIP3   OH280497   4.207   4.495  13.540 -0.4372  0.2538 -0.2563
19669TIP3    H180498   4.263   4.420  13.520 -1.3123 -0.7012  0.7617
19669TIP3    H280499   4.266   4.560  13.579 -0.1754 -1.1302  1.7729
19670TIP3   OH280500   0.544   6.807  16.372 -0.3250  0.0423  0.2728
19670TIP3    H180501   0.501   6.740  16.424  0.6146 -2.4037 -1.9121
19670TIP3    H280502   0.637   6.786  16.377 -0.1169  0.4204 -1.4160
19671TIP3   OH280503   1.245   0.997   2.966  0.4971 -0.5344 -0.3179
19671TIP3    H180504   1.329   1.028   3.000  1.8632 -3.3820 -0.7550
19671TIP3    H280505   1.181   1.060   2.999  2.6075  0.9227  1.3039
19672TIP3   OH280506   2.512   3.236  13.047 -0.1266 -0.6292 -0.0770
19672TIP3    H180507   2.476   3.316  13.083 -1.3775 -0.2696 -1.9676
19672TIP3    H280508   2.452   3.167  13.076 -0.0971 -0.6047  0.0400
19673TIP3   OH280509   5.947   3.242  12.286 -0.5387  0.2587  0.3625
19673TIP3    H180510   5.998   3.292  12.222  0.0124  0.7931  1.2031
19673TIP3    H280511   5.985   3.154  12.283  0.5498  0.6819  1.0724
19674TIP3   OH280512   5.902   4.978  14.989 -0.5974 -0.4806 -0.5213
19674TIP3    H180513   5.843   5.017  15.054  0.3955  0.6552 -0.2751
19674TIP3    H280514   5.949   4.910  15.036 -1.8767 -1.5934 -0.7899
19675TIP3   OH280515   2.301   3.909   4.284  0.2447  0.4582 -0.6695
19675TIP3    H180516   2.360   3.851   4.236  4.2976  1.1309  2.9283
19675TIP3    H280517   2.335   3.997   4.268  0.0098  0.9278  1.1962
19676TIP3   OH280518   3.079   6.428  14.640  0.1736 -0.1279 -0.2468
19676TIP3    H180519   3.036   6.477  14.571  1.8217  1.6102 -0.1373
19676TIP3    H280520   3.154   6.387  14.597  0.8841  0.4975  0.3693
19677TIP3   OH280521   1.924   6.472   1.403  0.4637  0.1057  0.1627
19677TIP3    H180522   1.997   6.480   1.342  0.5948  2.3243  0.5482
19677TIP3    H280523   1.925   6.553   1.455 -1.9945  0.0384  0.4783
19678TIP3   OH280524   0.475   4.081  10.644 -0.6289 -0.8700  0.5172
19678TIP3    H180525   0.434   4.033  10.572 -0.2484 -0.2777 -0.1058
19678TIP3    H280526   0.430   4.050  10.722  0.3376 -3.0408  0.2687
19679TIP3   OH280527   6.846   2.996  11.289  0.3988 -0.8835  0.0836
19679TIP3    H180528   6.838   3.052  11.366  0.8327  0.8937 -1.0785
19679TIP3    H280529   6.938   2.970  11.288  0.0976 -2.0065  0.8659
19680TIP3   OH280530   5.659   3.622  12.979  0.2980  0.6861 -0.2024
19680TIP3    H180531   5.632   3.599  12.890  0.4569 -1.8324  0.3251
19680TIP3    H280532   5.682   3.715  12.974  2.2119  0.2018 -3.2791
19681TIP3   OH280533   3.372   1.166   4.765  0.4323 -0.0299 -0.3910
19681TIP3    H180534   3.351   1.138   4.854  0.4302 -0.4160 -0.5072
19681TIP3    H280535   3.468   1.162   4.761  0.6473  2.5607  0.4061
19682TIP3   OH280536   5.526   2.327   2.178 -0.4387  0.4484  0.1350
19682TIP3    H180537   5.502   2.239   2.207 -0.4947  0.3409 -0.2358
19682TIP3    H280538   5.525   2.322   2.083  1.3663  0.3598  0.0912
19683TIP3   OH280539   2.061   3.113   1.368  0.3990 -0.9394 -0.3068
19683TIP3    H180540   2.009   3.192   1.382 -0.3984 -1.5177  0.0310
19683TIP3    H280541   2.151   3.141   1.386  0.1135 -0.1447 -0.0641
19684TIP3   OH280542   0.399   1.180   3.402  0.7342 -0.0856  0.2445
19684TIP3    H180543   0.473   1.222   3.446  0.5241 -0.4361  0.9416
19684TIP3    H280544   0.405   1.088   3.428 -0.3088 -0.0027  0.8200
19685TIP3   OH280545   6.183   0.348   2.582  0.1286  0.2181  0.0808
19685TIP3    H180546   6.190   0.383   2.493  0.8461  0.1155  0.0845
19685TIP3    H280547   6.249   0.279   2.585  1.4102  1.4152  1.2412
19686TIP3   OH280548   3.069   2.810  15.484  0.0713  0.2880  0.0156
19686TIP3    H180549   3.077   2.742  15.417  2.5928  1.5516 -1.1050
19686TIP3    H280550   3.048   2.890  15.435  0.2994  0.9194  0.9212
19687TIP3   OH280551   4.622   4.622   4.309  0.2042  0.3086  0.3128
19687TIP3    H180552   4.706   4.582   4.332  0.8755  1.9391  0.8705
19687TIP3    H280553   4.577   4.631   4.393  0.8327  2.2990  0.4973
19688TIP3   OH280554   4.446   1.137  15.428  0.2570 -0.4435  0.4669
19688TIP3    H180555   4.432   1.195  15.352  1.0719  1.2123  1.5191
19688TIP3    H280556   4.448   1.049  15.391  2.5040  0.4104 -1.7605
19689TIP3   OH280557   0.188   3.466  12.638  0.7769 -0.6126  0.0327
19689TIP3    H180558   0.129   3.535  12.607  2.6518  0.6421 -0.9005
19689TIP3    H280559   0.271   3.483  12.593  2.4973 -1.0487  2.8202
19690TIP3   OH280560   4.972   3.040   1.958 -0.4753 -0.2931 -0.1573
19690TIP3    H180561   5.042   3.079   2.010  0.1990 -0.9938 -0.5096
19690TIP3    H280562   4.935   3.113   1.908  1.2905 -0.2033 -1.4160
19691TIP3   OH280563   1.945   4.025  11.953  0.4384  0.6532  0.1697
19691TIP3    H180564   1.997   4.106  11.947  0.4020  0.6037 -1.4762
19691TIP3    H280565   1.881   4.043  12.022  0.5181  1.9896 -0.0657
19692TIP3   OH280566   0.606   2.781  12.806  0.2088  0.7471 -0.4762
19692TIP3    H180567   0.521   2.806  12.844 -0.8661 -3.1346  0.1327
19692TIP3    H280568   0.662   2.765  12.881 -0.5381 -2.5679 -0.4597
19693TIP3   OH280569   3.993   3.938  12.192  1.1311  0.5915  0.0717
19693TIP3    H180570   4.062   3.894  12.241  0.4475  0.9656  1.4266
19693TIP3    H280571   4.017   4.030  12.194  0.5186  0.7488  0.7167
19694TIP3   OH280572   5.482   2.507  11.425 -0.0130  0.1393 -0.0542
19694TIP3    H180573   5.468   2.434  11.364 -0.9125 -0.5030  0.8832
19694TIP3    H280574   5.396   2.549  11.431 -0.2064 -0.4257  1.5161
19695TIP3   OH280575   6.751   1.338   4.338  0.1607 -0.0261 -0.2302
19695TIP3    H180576   6.763   1.297   4.424  1.3734  1.1904  0.2410
19695TIP3    H280577   6.825   1.400   4.332  0.3135 -0.3653 -2.3253
19696TIP3   OH280578   6.286   2.772  11.755  0.2998  0.3467 -0.2251
19696TIP3    H180579   6.316   2.857  11.788 -1.8817  0.9786  0.3313
19696TIP3    H280580   6.229   2.739  11.824 -0.2574 -0.7706 -1.1892
19697TIP3   OH280581   4.998   3.143  15.611  0.3501 -0.0105  0.3098
19697TIP3    H180582   5.028   3.209  15.548  0.0514  1.8219  1.9871
19697TIP3    H280583   5.051   3.065  15.591 -0.3380  0.1785 -2.7176
19698TIP3   OH280584   3.295   1.510  14.789  0.2231 -0.1717 -0.3865
19698TIP3    H180585   3.384   1.515  14.824 -0.1786 -1.6765  0.9595
19698TIP3    H280586   3.294   1.431  14.736 -0.3445 -0.2372 -0.2854
19699TIP3   OH280587   3.358   0.409  11.726 -0.0725  0.1850  0.6278
19699TIP3    H180588   3.304   0.488  11.722 -3.2124 -1.7978 -0.0882
19699TIP3    H280589   3.384   0.402  11.818 -1.7649  0.8294  1.1897
19700TIP3   OH280590   2.293   6.064   0.583 -0.6044  0.3129  0.0708
19700TIP3    H180591   2.349   6.001   0.539 -0.4120  0.2645  0.3864
19700TIP3    H280592   2.278   6.133   0.518 -2.2466 -0.8912 -0.8924
19701TIP3   OH280593   3.625   3.160   2.518 -0.0870 -0.1573 -0.1953
19701TIP3    H180594   3.639   3.254   2.505  1.3339 -0.2278  0.6875
19701TIP3    H280595   3.614   3.149   2.612 -0.3433 -0.8839 -0.2956
19702TIP3   OH280596   6.544   2.914   2.069  0.0633 -0.0599  0.2441
19702TIP3    H180597   6.563   2.881   1.981  1.1222  1.3078 -0.0769
19702TIP3    H280598   6.630   2.930   2.107 -0.3935 -0.3854  1.4558
19703TIP3   OH280599   6.595   4.885  11.174 -0.1603 -0.5497  0.3922
19703TIP3    H180600   6.620   4.793  11.181 -1.1107 -0.8182  0.4647
19703TIP3    H280601   6.635   4.915  11.093 -0.3848 -1.2173  0.0228
19704TIP3   OH280602   1.645   5.204   2.610  0.1213  0.3214  0.5402
19704TIP3    H180603   1.650   5.225   2.517 -2.4201  1.5015  0.5917
19704TIP3    H280604   1.553   5.214   2.632  0.6762  0.2560  3.2347
19705TIP3   OH280605   6.649   6.694   3.518  0.5848  0.6392  0.2754
19705TIP3    H180606   6.622   6.605   3.540  0.0517  0.8219  0.3597
19705TIP3    H280607   6.624   6.705   3.426  2.2584  0.0896 -0.2940
19706TIP3   OH280608   0.437   1.459   5.395  0.6018 -0.1242  0.0259
19706TIP3    H180609   0.372   1.488   5.459 -1.1428  0.1971 -1.7838
19706TIP3    H280610   0.385   1.425   5.322  2.4804 -0.1899 -1.3493
19707TIP3   OH280611   5.514   5.583   2.416 -0.1250  0.2775  0.3294
19707TIP3    H180612   5.535   5.667   2.457  0.5850 -0.5069  1.6561
19707TIP3    H280613   5.434   5.554   2.460  1.2901 -1.1368  2.1758
19708TIP3   OH280614   2.578   5.061  12.116  0.0331  0.5544 -0.5957
19708TIP3    H180615   2.568   4.996  12.186 -0.5938  1.2879  0.0049
19708TIP3    H280616   2.662   5.040  12.076  1.4451  1.3885  1.7371
19709TIP3   OH280617   0.902   4.553  15.474  0.5176 -0.1548  0.2224
19709TIP3    H180618   0.877   4.606  15.398  1.5635 -0.1631 -0.1478
19709TIP3    H280619   0.834   4.486  15.480 -0.0889  0.4163 -0.1267
19710TIP3   OH280620   5.252   2.554  13.290 -0.1758  0.4622  0.3215
19710TIP3    H180621   5.199   2.596  13.357 -2.1650 -1.2242 -0.1023
19710TIP3    H280622   5.195   2.488  13.251  1.5345  0.0605 -1.7225
19711TIP3   OH280623   2.841   0.509   3.545  0.0724  0.0392  0.4369
19711TIP3    H180624   2.841   0.567   3.621 -0.6832 -0.9460  1.2087
19711TIP3    H280625   2.926   0.467   3.546 -0.1532 -0.4161  1.0962
19712TIP3   OH280626   4.852   5.501  11.879 -0.2603 -0.2741 -0.5433
19712TIP3    H180627   4.826   5.413  11.908 -0.9215 -0.1843 -0.8588
19712TIP3    H280628   4.942   5.490  11.849  0.8068 -0.2108  2.3037
19713TIP3   OH280629   2.181   5.774   0.669  0.3548 -0.6883  0.0169
19713TIP3    H180630   2.122   5.826   0.615  0.1406  0.5610  1.3868
19713TIP3    H280631   2.218   5.709   0.609 -0.2139  0.3371 -1.5024
19714TIP3   OH280632   1.078   1.134  10.474 -0.0100 -0.2356 -0.1289
19714TIP3    H180633   1.070   1.228  10.490 -0.1098 -0.2714  0.0377
19714TIP3    H280634   1.129   1.101  10.549  0.2276 -0.2767 -0.3090
19715TIP3   OH280635   6.244   2.743   1.594  0.0083  0.3077  0.4196
19715TIP3    H180636   6.235   2.684   1.670  0.0291  0.4056  0.4981
19715TIP3    H280637   6.215   2.690   1.520  0.0307  0.1959  0.4894
19716TIP3   OH280638   0.311   3.367  11.860 -0.3920 -0.7065  0.1262
19716TIP3    H180639   0.382   3.351  11.921  1.4010  0.6525 -1.4961
19716TIP3    H280640   0.354   3.393  11.779 -2.7406 -0.0324 -0.9957
19717TIP3   OH280641   5.636   2.648  16.797 -0.1888 -0.3605 -0.4560
19717TIP3    H180642   5.731   2.655  16.786 -0.3005  0.8456 -0.8118
19717TIP3    H280643   5.611   2.731  16.839 -1.0116 -0.9196  0.1942
19718TIP3   OH280644   0.922   1.467  15.544 -0.2992 -0.2859 -0.1705
19718TIP3    H180645   0.845   1.497  15.497 -0.7161 -0.3066  0.4791
19718TIP3    H280646   0.986   1.447  15.476 -1.0611 -0.8279 -0.7445
19719TIP3   OH280647   0.920   2.852   4.113  0.2016 -0.3969 -0.7907
19719TIP3    H180648   1.003   2.887   4.083 -0.2706  1.6166  0.0820
19719TIP3    H280649   0.929   2.757   4.105  2.5107 -0.2202 -0.8575
19720TIP3   OH280650   1.527   5.290   4.224 -0.4199  0.0379  0.3767
19720TIP3    H180651   1.579   5.260   4.298 -0.3436  0.0094  0.3104
19720TIP3    H280652   1.588   5.341   4.170 -0.2146 -0.8140 -0.2143
19721TIP3   OH280653   1.519   5.969   0.441 -0.3680 -0.2594 -0.1947
19721TIP3    H180654   1.503   5.877   0.463  0.5585 -0.0491  1.5450
19721TIP3    H280655   1.601   5.990   0.485 -0.8750  1.5685 -0.0427
19722TIP3   OH280656   4.067   5.833   3.246  0.6346  0.1403  0.4671
19722TIP3    H180657   3.985   5.802   3.283  0.4713 -1.8090 -1.3607
19722TIP3    H280658   4.042   5.911   3.195 -0.3905 -1.2045 -1.1870
19723TIP3   OH280659   4.385   6.666  13.230 -0.2049 -0.6652  0.3798
19723TIP3    H180660   4.421   6.584  13.264 -1.6024 -0.5672  2.2952
19723TIP3    H280661   4.439   6.734  13.269  0.4927 -0.6233 -0.6208
19724TIP3   OH280662   4.604   4.479  11.824  0.7287  0.2348  0.2467
19724TIP3    H180663   4.659   4.549  11.859  2.2967 -0.3224 -1.0139
19724TIP3    H280664   4.553   4.520  11.755  1.0086  0.3364  0.0981
19725TIP3   OH280665   4.147   3.890   4.225 -0.3210  0.4022  0.0859
19725TIP3    H180666   4.167   3.900   4.132  0.6969  0.7956  0.3342
19725TIP3    H280667   4.081   3.821   4.228  0.7424 -0.6988 -0.8077
19726TIP3   OH280668   2.133   3.652  13.631 -0.3385  0.2637 -0.1570
19726TIP3    H180669   2.181   3.641  13.713 -0.2549  2.8341  0.1966
19726TIP3    H280670   2.201   3.661  13.565 -0.3312  1.3703 -0.0181
19727TIP3   OH280671   1.446   1.378   5.390 -0.7476  0.9801 -0.6697
19727TIP3    H180672   1.489   1.427   5.460 -0.6620 -0.8292  0.5954
19727TIP3    H280673   1.497   1.399   5.312  0.3399  1.5465  0.1643
19728TIP3   OH280674   3.675   1.254  17.025 -0.2603 -0.9604 -0.0536
19728TIP3    H180675   3.581   1.268  17.022 -0.2004 -0.6485 -0.5886
19728TIP3    H280676   3.712   1.340  17.045  0.0320 -0.5495 -2.0742
19729TIP3   OH280677   0.618   1.323   3.529  0.5646  0.3207 -0.1483
19729TIP3    H180678   0.675   1.282   3.465  0.1931 -1.0715  0.3911
19729TIP3    H280679   0.615   1.415   3.503  0.9986 -0.0830 -1.6820
19730TIP3   OH280680   0.717   0.572  11.218  0.3430 -0.6486 -0.2391
19730TIP3    H180681   0.634   0.604  11.253  0.2796 -0.4331 -0.5903
19730TIP3    H280682   0.772   0.649  11.210  0.2159 -0.6237 -1.0075
19731TIP3   OH280683   6.127   5.594  11.216 -0.0578  0.4561 -0.1559
19731TIP3    H180684   6.182   5.518  11.235  0.3009  0.2241 -1.9204
19731TIP3    H280685   6.049   5.558  11.175  0.6749  1.0780 -2.1914
19732TIP3   OH280686   0.396   2.810   5.780 -0.1617 -0.0127 -0.3187
19732TIP3    H180687   0.422   2.838   5.692 -1.3251 -1.1744 -1.0840
19732TIP3    H280688   0.402   2.889   5.833 -0.4238  0.9777 -1.6868
19733TIP3   OH280689   4.978   4.538  11.323  0.0097 -0.1061  0.0446
19733TIP3    H180690   4.936   4.577  11.400  0.4640  2.0045 -0.7036
19733TIP3    H280691   5.066   4.516  11.352  1.3965  3.7956 -0.5567
19734TIP3   OH280692   0.053   3.398   2.129  0.1572  0.1511 -0.5278
19734TIP3    H180693   0.090   3.406   2.217  0.0457 -0.9157 -0.3766
19734TIP3    H280694   0.122   3.430   2.071 -0.1974  2.0111 -0.0111
19735TIP3   OH280695   3.863   0.557   1.029 -0.1082  0.4917 -0.3995
19735TIP3    H180696   3.959   0.551   1.028 -0.1815 -1.0864 -0.6016
19735TIP3    H280697   3.841   0.567   1.121  0.1490 -2.9182  0.1694
19736TIP3   OH280698   1.293   4.511   4.387 -0.0861 -0.1256  0.4267
19736TIP3    H180699   1.320   4.424   4.359 -1.0685 -0.2812 -0.0806
19736TIP3    H280700   1.236   4.542   4.317  0.0965  0.8498  0.6969
19737TIP3   OH280701   0.749   1.250   2.670 -0.4201 -0.0800 -0.1914
19737TIP3    H180702   0.769   1.320   2.733 -0.1169  0.1472 -0.5364
19737TIP3    H280703   0.801   1.175   2.700 -0.3768 -0.0121 -0.0964
19738TIP3   OH280704   3.710   6.188  11.918  0.2811  0.3790 -0.2524
19738TIP3    H180705   3.710   6.227  12.005 -0.4723  0.2583 -0.1970
19738TIP3    H280706   3.801   6.195  11.889  0.6333 -0.0065  0.7282
19739TIP3   OH280707   0.687   0.108  13.772 -0.2103  0.0392 -0.2517
19739TIP3    H180708   0.731   0.025  13.753  0.5099  0.4412 -0.4101
19739TIP3    H280709   0.720   0.132  13.859  0.5104  0.7359 -0.7063
19740TIP3   OH280710   1.027   5.695   2.008 -0.4763  0.2074  0.0116
19740TIP3    H180711   1.010   5.622   2.068  0.3788 -0.2765 -0.3208
19740TIP3    H280712   0.998   5.663   1.923 -2.2057  1.0951  0.2285
19741TIP3   OH280713   6.488   1.560  14.689  0.1462  0.0005  0.5923
19741TIP3    H180714   6.397   1.551  14.717  0.1128 -1.3007  0.1383
19741TIP3    H280715   6.538   1.504  14.748  0.5770  0.2070  0.4362
19742TIP3   OH280716   6.221   2.918   0.769  0.1995 -0.7370  0.3858
19742TIP3    H180717   6.144   2.949   0.816 -0.4255 -1.0141 -0.4402
19742TIP3    H280718   6.236   2.984   0.702 -1.2609 -2.2310 -1.5167
19743TIP3   OH280719   4.988   1.747   0.016 -0.1712  0.1091  0.2785
19743TIP3    H180720   4.992   1.842   0.028  0.8281  0.0768  0.2972
19743TIP3    H280721   5.052   1.729  -0.053  0.7285 -0.7100  1.3067
19744TIP3   OH280722   6.482   0.530   6.561 -0.2054 -0.0647 -0.1382
19744TIP3    H180723   6.529   0.447   6.553  1.5866  1.0232 -2.9075
19744TIP3    H280724   6.396   0.513   6.523 -0.1452 -0.8321  0.0556
19745TIP3   OH280725   2.722   5.979   1.545  0.1694 -0.3364  0.5398
19745TIP3    H180726   2.632   5.993   1.514  0.3395 -1.2060 -0.4151
19745TIP3    H280727   2.742   5.889   1.519  1.5711  0.0855  0.0786
19746TIP3   OH280728   4.335   6.030  13.532 -0.4389 -0.4529  0.4458
19746TIP3    H180729   4.279   5.969  13.579  0.6486 -0.9575  1.1126
19746TIP3    H280730   4.276   6.099  13.502 -1.3332 -0.7246  1.5451
19747TIP3   OH280731   4.983   2.971  14.650 -0.0230  0.3131 -0.2904
19747TIP3    H180732   4.951   2.882  14.667  0.2140  0.1939 -0.4705
19747TIP3    H280733   5.011   3.003  14.736 -0.7787  0.4818 -0.0953
19748TIP3   OH280734   3.533   3.894   6.056  0.0053  0.0875 -0.1065
19748TIP3    H180735   3.617   3.939   6.053  0.1446 -0.1911 -0.7042
19748TIP3    H280736   3.509   3.893   6.148  1.2514 -0.8954  0.2389
19749TIP3   OH280737   6.307   0.272  16.343 -0.0643  0.4616 -0.7813
19749TIP3    H180738   6.298   0.213  16.417 -2.9629  0.7749 -0.7593
19749TIP3    H280739   6.341   0.216  16.272 -0.7204 -0.7451 -0.1854
19750TIP3   OH280740   1.793   0.426  12.804  0.5022 -0.3053 -0.0658
19750TIP3    H180741   1.775   0.385  12.719  0.8598 -0.2922 -0.1474
19750TIP3    H280742   1.884   0.403  12.823  0.4683 -0.1838  0.2453
19751TIP3   OH280743   2.245   2.343   0.170  0.0797 -0.2199  0.1922
19751TIP3    H180744   2.307   2.415   0.179 -0.3620  0.4066 -1.3802
19751TIP3    H280745   2.300   2.264   0.174  0.7951  0.2642  0.1940
19752TIP3   OH280746   1.232   2.171  15.714  0.1662 -0.2255 -0.5291
19752TIP3    H180747   1.185   2.146  15.793 -1.7786  1.2527 -1.1301
19752TIP3    H280748   1.322   2.187  15.743  0.0184 -1.8359  0.9267
19753TIP3   OH280749   5.470   1.563   5.736  0.6649  0.7289 -0.0476
19753TIP3    H180750   5.558   1.576   5.771  0.9826  1.9620 -1.1975
19753TIP3    H280751   5.412   1.589   5.807  1.2350  0.4170  0.5396
19754TIP3   OH280752   2.726   1.379  13.694  0.2083 -0.0680 -0.7426
19754TIP3    H180753   2.659   1.446  13.705 -1.0902 -1.3719 -0.4369
19754TIP3    H280754   2.773   1.378  13.777 -1.3499 -1.1577  0.1753
19755TIP3   OH280755   1.618   1.342  11.907  0.2125 -0.2512  0.2362
19755TIP3    H180756   1.669   1.279  11.957 -1.1655  0.8747  3.2881
19755TIP3    H280757   1.530   1.306  11.905 -0.1389  0.5827  0.1789
19756TIP3   OH280758   5.017   0.853   1.220  1.4011 -0.1046  0.5131
19756TIP3    H180759   4.929   0.867   1.184  1.2764  1.5171  1.3582
19756TIP3    H280760   5.002   0.813   1.306  1.1600  3.6621  2.4211
19757TIP3   OH280761   0.456   4.156   1.557  0.0304 -0.8657 -0.1937
19757TIP3    H180762   0.394   4.096   1.599 -2.7074  1.2469 -0.9194
19757TIP3    H280763   0.485   4.214   1.627 -0.5539 -0.4953 -0.2542
19758TIP3   OH280764   5.894   4.417  12.823  0.1577 -0.0238 -0.1055
19758TIP3    H180765   5.805   4.387  12.808  0.2681 -0.0587 -0.7232
19758TIP3    H280766   5.949   4.348  12.787  0.4762 -0.7609  1.6861
19759TIP3   OH280767   3.682   2.233  15.255  0.3263  0.2301 -0.1537
19759TIP3    H180768   3.712   2.324  15.253 -0.0902  0.3668 -0.4092
19759TIP3    H280769   3.653   2.219  15.345  0.4106  0.3439 -0.1090
19760TIP3   OH280770   1.448   4.781  14.352 -0.0353  0.1929  0.3391
19760TIP3    H180771   1.467   4.845  14.284  0.3507 -0.6636 -0.3699
19760TIP3    H280772   1.497   4.813  14.429  1.4090 -0.0637 -0.4441
19761TIP3   OH280773   3.972   4.806   3.839 -0.2386 -0.1332 -0.2350
19761TIP3    H180774   3.928   4.739   3.787 -2.4600  0.4708  0.7342
19761TIP3    H280775   3.987   4.764   3.924 -1.2986  0.4459  0.2538
19762TIP3   OH280776   1.682   6.068  14.011 -0.5510 -0.3513 -0.7145
19762TIP3    H180777   1.592   6.050  14.040  0.3041 -1.8758  1.2177
19762TIP3    H280778   1.705   5.993  13.956 -0.5480  0.1862 -1.4563
19763TIP3   OH280779   4.538   4.219  14.701  0.0440  0.5969 -0.0047
19763TIP3    H180780   4.625   4.257  14.689 -0.2701  1.5438  0.5477
19763TIP3    H280781   4.541   4.180  14.788  0.4683 -0.9800 -0.7032
19764TIP3   OH280782   0.218   2.716  13.974 -0.2012  0.7023 -0.3303
19764TIP3    H180783   0.306   2.742  13.946  0.1943  0.4124  0.6078
19764TIP3    H280784   0.226   2.623  13.996 -1.2451  0.0964 -2.2062
19765TIP3   OH280785   3.618   5.413   0.655  0.0107 -0.4798 -0.6001
19765TIP3    H180786   3.704   5.437   0.621 -0.0781 -1.1350 -1.2960
19765TIP3    H280787   3.630   5.411   0.750  0.5569  0.2055 -0.6453
19766TIP3   OH280788   3.019   0.517   1.054 -0.6062  0.2210  0.6537
19766TIP3    H180789   3.031   0.574   1.129  0.1623 -0.4711  1.0746
19766TIP3    H280790   2.930   0.534   1.024 -0.4242  1.5530  0.8260
19767TIP3   OH280791   5.632   1.005  15.044 -0.1764  0.1372 -0.7840
19767TIP3    H180792   5.695   1.005  15.116 -0.7237  1.7321 -0.2454
19767TIP3    H280793   5.548   1.024  15.087 -0.4303  1.6791 -1.8597
19768TIP3   OH280794   2.019   0.979  13.585 -0.1604 -0.1621  0.4171
19768TIP3    H180795   1.925   0.993  13.587 -0.2986 -1.0376  0.4545
19768TIP3    H280796   2.042   0.953  13.674 -0.3699 -2.7575 -0.2065
19769TIP3   OH280797   4.904   5.930   2.340  0.0158 -0.4581 -0.5468
19769TIP3    H180798   4.946   6.006   2.380  0.2155 -1.1363  0.5784
19769TIP3    H280799   4.902   5.949   2.247 -1.5205  1.7160 -0.1315
19770TIP3   OH280800   6.842   5.761   0.742 -0.1229  0.2570  0.2905
19770TIP3    H180801   6.903   5.750   0.815  0.8677  2.0164 -0.2015
19770TIP3    H280802   6.835   5.675   0.703 -1.3216 -0.9560  2.9156
19771TIP3   OH280803   5.898   0.127  11.127 -0.1973 -0.1585 -0.0277
19771TIP3    H180804   5.958   0.054  11.113  1.5551  1.5079 -1.7742
19771TIP3    H280805   5.839   0.125  11.052  0.5212  0.8044 -0.6332
19772TIP3   OH280806   4.584   6.413  12.186 -0.6428 -0.1117  0.3102
19772TIP3    H180807   4.591   6.438  12.094 -1.4040 -0.4539  0.1479
19772TIP3    H280808   4.490   6.419  12.205 -0.4947 -0.0742  1.0535
19773TIP3   OH280809   6.219   3.572   0.265  0.4940 -0.0491 -0.1695
19773TIP3    H180810   6.298   3.522   0.246  0.7865  0.3397  0.0191
19773TIP3    H280811   6.188   3.535   0.348 -0.0733 -0.8701 -0.7334
19774TIP3   OH280812   2.208   1.514  17.116 -0.2682  0.3871 -0.5929
19774TIP3    H180813   2.276   1.571  17.151 -1.2613  0.3777  1.5430
19774TIP3    H280814   2.207   1.439  17.176 -0.3021 -0.9754 -2.2112
19775TIP3   OH280815   5.351   3.098   4.561  0.0724  0.2521 -0.3330
19775TIP3    H180816   5.400   3.018   4.545  2.6316  1.6905 -0.2019
19775TIP3    H280817   5.397   3.165   4.511 -1.0803  1.9456  0.7581
19776TIP3   OH280818   3.794   4.087   4.108  0.2198  0.0976 -0.3115
19776TIP3    H180819   3.781   4.028   4.182  0.2368  0.5362  0.0426
19776TIP3    H280820   3.888   4.100   4.104  0.2581 -0.2562 -0.6767
19777TIP3   OH280821   3.155   1.648   2.464  0.0339  0.0027  0.6488
19777TIP3    H180822   3.246   1.645   2.495  0.4023 -0.2539 -0.4210
19777TIP3    H280823   3.158   1.706   2.388 -0.7465  0.1688  0.7380
19778TIP3   OH280824   5.620   3.343  13.353  0.6684  0.2049  0.0397
19778TIP3    H180825   5.634   3.326  13.446  0.7097 -3.1958 -0.4702
19778TIP3    H280826   5.704   3.322  13.312 -0.5573 -2.9261 -1.1555
19779TIP3   OH280827   5.251   2.824   0.024 -0.5296  0.3056 -0.2096
19779TIP3    H180828   5.321   2.768  -0.010 -0.7922  0.1071 -0.4197
19779TIP3    H280829   5.171   2.775   0.009 -0.5946 -0.1752  1.4687
19780TIP3   OH280830   4.763   5.331  17.089 -0.4793  0.2136  0.2583
19780TIP3    H180831   4.667   5.328  17.091 -0.4495 -0.6905  1.2670
19780TIP3    H280832   4.790   5.258  17.145  0.8017  0.4974  0.0313
19781TIP3   OH280833   0.189   0.257  16.642  0.9135 -0.2164  0.0346
19781TIP3    H180834   0.219   0.252  16.552 -0.9545  0.4454 -0.6732
19781TIP3    H280835   0.225   0.340  16.675  0.4069  0.2593 -0.5873
19782TIP3   OH280836   2.886   4.303   2.519 -0.9220  0.1339  0.1593
19782TIP3    H180837   2.871   4.259   2.602 -0.6727  0.8753  0.6130
19782TIP3    H280838   2.981   4.299   2.507 -1.0841 -1.3223 -0.8688
19783TIP3   OH280839   5.144   1.210   6.745  0.0743  0.3534  0.1757
19783TIP3    H180840   5.215   1.193   6.684 -0.7543 -0.2155 -0.6539
19783TIP3    H280841   5.177   1.280   6.802  1.3214  0.0289 -0.1219
19784TIP3   OH280842   4.199   5.011   1.687  0.2366  0.1024 -0.8916
19784TIP3    H180843   4.106   5.002   1.671  0.1391  1.7555 -1.4054
19784TIP3    H280844   4.207   5.014   1.783 -0.3430  0.8288 -0.8612
19785TIP3   OH280845   6.353   3.220  14.937  0.0179 -0.1136 -0.3796
19785TIP3    H180846   6.262   3.234  14.962  0.6175  1.9966  0.8651
19785TIP3    H280847   6.354   3.232  14.842 -0.9303  0.3295 -0.3400
19786TIP3   OH280848   5.279   1.893   2.430 -0.0816 -0.5007  0.0326
19786TIP3    H180849   5.279   1.821   2.366 -0.4330 -0.1720 -0.3364
19786TIP3    H280850   5.328   1.858   2.504 -0.1094 -1.0682 -0.2104
19787TIP3   OH280851   2.393   4.962  16.748  0.0028 -0.4789  1.1686
19787TIP3    H180852   2.365   4.878  16.785  0.9523  0.0461  3.2096
19787TIP3    H280853   2.322   5.022  16.767 -0.9187 -0.8819 -0.7711
19788TIP3   OH280854   1.031   2.142  11.156 -0.5059  0.3021  0.2314
19788TIP3    H180855   0.961   2.101  11.106 -1.5509  1.0705  1.0213
19788TIP3    H280856   0.986   2.205  11.213  0.9830  2.1438 -0.5357
19789TIP3   OH280857   3.080   4.714  16.461  0.1744 -0.1980 -0.1723
19789TIP3    H180858   3.153   4.717  16.399  0.1916  2.5275 -0.1525
19789TIP3    H280859   3.005   4.684  16.409  1.0193 -1.9901 -0.4462
19790TIP3   OH280860   6.285   1.180   5.310  0.1181  0.4496  0.2757
19790TIP3    H180861   6.309   1.186   5.402  4.0155  2.3233 -0.6523
19790TIP3    H280862   6.234   1.260   5.294 -1.2003 -0.2376  0.8860
19791TIP3   OH280863   4.417   2.002  11.360  0.2647  0.2148 -0.1215
19791TIP3    H180864   4.325   2.027  11.350  0.0524  0.0453  1.1797
19791TIP3    H280865   4.439   2.027  11.450  0.9603 -1.3855  0.1908
19792TIP3   OH280866   0.002   6.165   3.325  0.2346  0.3265  0.2550
19792TIP3    H180867   0.069   6.228   3.299  0.8757 -1.6030 -3.3493
19792TIP3    H280868  -0.080   6.200   3.288  0.1001  0.3759  0.5968
19793TIP3   OH280869   0.779   0.358  12.004 -0.0338  0.3150  0.1124
19793TIP3    H180870   0.818   0.445  11.994  0.7379  0.1077  1.2329
19793TIP3    H280871   0.785   0.339  12.097  0.6058 -1.3087 -0.2205
19794TIP3   OH280872   5.524   2.449  14.354 -0.7161 -0.2272  0.4342
19794TIP3    H180873   5.467   2.384  14.395 -0.5766  0.7322  2.2412
19794TIP3    H280874   5.495   2.533  14.389  0.2757  0.5173 -0.4457
19795TIP3   OH280875   6.125   3.884  13.224 -0.3441  0.3319 -0.4375
19795TIP3    H180876   6.104   3.964  13.273 -0.2430 -0.2653  0.5993
19795TIP3    H280877   6.131   3.816  13.291  2.0828 -0.0846 -1.0205
19796TIP3   OH280878   3.955   1.114  14.529  0.1788  0.0534  0.3186
19796TIP3    H180879   3.902   1.154  14.597  0.2046 -1.0422  0.9992
19796TIP3    H280880   4.045   1.137  14.551  0.1034  0.7237 -0.0446
19797TIP3   OH280881   4.604   5.076  11.154  0.0776 -0.4642  0.3093
19797TIP3    H180882   4.599   5.012  11.224 -0.2515  0.9359  1.6080
19797TIP3    H280883   4.695   5.106  11.155 -0.2454  0.5265  1.0527
19798TIP3   OH280884   0.878   5.473   2.252  0.3322 -0.4741 -0.3563
19798TIP3    H180885   0.832   5.557   2.256  0.4196 -0.4114 -0.6487
19798TIP3    H280886   0.966   5.493   2.285 -0.1039 -0.7825  1.0669
19799TIP3   OH280887   6.397   1.675   4.518 -0.1213 -0.0570  0.2067
19799TIP3    H180888   6.377   1.623   4.596  1.1055 -0.2966  0.3956
19799TIP3    H280889   6.363   1.762   4.537 -2.1108 -0.7230 -0.0663
19800TIP3   OH280890   4.157   4.227   1.808  0.9931  0.2616 -0.1921
19800TIP3    H180891   4.216   4.279   1.863 -0.6972  1.1021  0.9079
19800TIP3    H280892   4.117   4.165   1.869 -0.5083  0.8405 -0.5429
19801TIP3   OH280893   4.296   3.511  15.860  0.0129  0.3294  0.0565
19801TIP3    H180894   4.222   3.498  15.919  0.5584  1.0682  0.9175
19801TIP3    H280895   4.263   3.483  15.774 -0.8678 -0.5045  0.6486
19802TIP3   OH280896   3.633   3.323  14.391  0.2217  0.0196  0.1502
19802TIP3    H180897   3.566   3.389  14.408  0.0704  0.1953 -1.0767
19802TIP3    H280898   3.708   3.372  14.359 -0.4330 -0.4923 -2.3578
19803TIP3   OH280899   1.645   3.981   1.587  0.1851  0.4560 -0.4817
19803TIP3    H180900   1.693   4.020   1.660 -1.6067  0.3481  0.8249
19803TIP3    H280901   1.589   4.051   1.555 -0.1297  0.0816 -0.7536
19804TIP3   OH280902   2.072   2.976   3.509  0.2128 -0.7697 -0.4420
19804TIP3    H180903   2.135   2.962   3.579  1.1265 -0.2551 -1.1540
19804TIP3    H280904   1.987   2.972   3.553  0.7727 -0.3003  0.7202
19805TIP3   OH280905   3.339   0.520   2.362  0.1960 -0.4538 -0.3181
19805TIP3    H180906   3.266   0.466   2.393 -0.4290  0.5988  0.0575
19805TIP3    H280907   3.357   0.580   2.434  1.4419 -0.6872 -0.4056
19806TIP3   OH280908   4.573   1.325   1.181  0.3342 -0.2554  0.4319
19806TIP3    H180909   4.499   1.279   1.221  1.3678 -2.0942  0.3477
19806TIP3    H280910   4.548   1.334   1.089  0.8074 -2.2921  0.0507
19807TIP3   OH280911   0.773   1.274  14.854 -0.8619  0.3460  0.4113
19807TIP3    H180912   0.790   1.350  14.799 -0.3511 -0.6304 -0.8195
19807TIP3    H280913   0.738   1.311  14.935  0.7446  1.9977  0.4231
19808TIP3   OH280914   1.074   4.868  13.867  0.2324 -0.2863 -0.4800
19808TIP3    H180915   1.067   4.951  13.913 -0.6336 -0.5129 -0.1863
19808TIP3    H280916   1.104   4.806  13.934 -0.4747 -0.4968 -0.3542
19809TIP3   OH280917   1.231   2.078   0.040  0.7319  0.1914 -0.4265
19809TIP3    H180918   1.219   2.011  -0.027  1.4757  0.4092 -0.7798
19809TIP3    H280919   1.320   2.109   0.028  0.7884  0.4183  0.4988
19810TIP3   OH280920   4.435   6.683  12.203  0.2190 -0.3644  0.6969
19810TIP3    H180921   4.406   6.749  12.266 -0.1411  0.8293 -0.6473
19810TIP3    H280922   4.425   6.726  12.118 -4.4387 -3.5793 -0.7724
19811TIP3   OH280923   3.994   0.063   2.191 -0.0698 -0.2926  0.3660
19811TIP3    H180924   3.987  -0.030   2.169  0.8224 -0.8278  2.1448
19811TIP3    H280925   3.951   0.071   2.276  1.9837  0.3862  1.4229
19812TIP3   OH280926   3.950   0.028  15.709 -0.0047  0.1704 -0.0007
19812TIP3    H180927   3.885  -0.033  15.746 -0.2174  1.5505  2.0615
19812TIP3    H280928   3.971   0.087  15.781  0.1969  2.5591 -1.8960
19813TIP3   OH280929   2.797   6.450   1.396  0.3657  0.1378 -0.6199
19813TIP3    H180930   2.706   6.428   1.416  0.0128  1.8105 -0.2208
19813TIP3    H280931   2.795   6.481   1.306  0.3583  0.9823 -0.3434
19814TIP3   OH280932   2.826   0.630  11.190  0.2320 -0.3144  0.2494
19814TIP3    H180933   2.828   0.606  11.283  2.6017 -1.1082  0.0696
19814TIP3    H280934   2.803   0.550  11.144 -0.4833 -0.0347  0.1083
19815TIP3   OH280935   3.811   3.686   1.636  0.1027  0.0670  0.5153
19815TIP3    H180936   3.732   3.739   1.646  0.2671  0.2079  1.1088
19815TIP3    H280937   3.883   3.745   1.660  0.4122  0.0102 -0.2373
19816TIP3   OH280938   0.476   2.274   0.600  0.0871  0.2074  0.3240
19816TIP3    H180939   0.499   2.213   0.670  2.0436  1.3119  0.7012
19816TIP3    H280940   0.381   2.279   0.603  0.0778 -0.4438  2.3126
19817TIP3   OH280941   0.517   3.270  14.086  0.7637  0.2937 -0.4423
19817TIP3    H180942   0.574   3.288  14.161  1.0918  1.4431 -0.9539
19817TIP3    H280943   0.495   3.356  14.050  0.3382 -0.2185 -1.4674
19818TIP3   OH280944   2.492   2.735  10.973 -0.0526  0.2934  0.0482
19818TIP3    H180945   2.444   2.814  10.995 -1.3702 -0.6525  0.7198
19818TIP3    H280946   2.508   2.742  10.879 -1.5952  0.6281 -0.2191
19819TIP3   OH280947   4.569   3.827  14.581 -0.0183  0.1789  0.1744
19819TIP3    H180948   4.535   3.847  14.668  0.4678  0.3182  0.3325
19819TIP3    H280949   4.514   3.878  14.521 -0.2753  0.1743  0.4028
19820TIP3   OH280950   0.594   5.755  13.505 -0.7679 -0.2689 -0.1152
19820TIP3    H180951   0.536   5.748  13.429 -0.0793 -0.8674 -0.5852
19820TIP3    H280952   0.635   5.841  13.496 -3.2554  1.2328  1.4467
19821TIP3   OH280953   0.657   2.900  11.057 -0.3155  0.0592  0.4840
19821TIP3    H180954   0.631   2.866  10.971  2.0947 -1.2823  0.1981
19821TIP3    H280955   0.707   2.979  11.038  0.0897 -0.1526  0.6503
19822TIP3   OH280956   2.507   4.276   0.339 -0.4116  0.2526  0.8289
19822TIP3    H180957   2.525   4.362   0.299  1.0445 -0.8601 -1.0677
19822TIP3    H280958   2.566   4.273   0.414  0.3623  0.4641  0.2393
19823TIP3   OH280959   1.640   0.297   4.601  0.4048  0.2735 -0.4867
19823TIP3    H180960   1.577   0.276   4.532 -1.4131 -1.9538  1.6567
19823TIP3    H280961   1.586   0.311   4.679  2.4582  0.2093  1.0356
19824TIP3   OH280962   4.505   1.356   4.945  0.1437 -0.2039  0.2556
19824TIP3    H180963   4.569   1.311   5.000  3.1648  2.7261 -0.5336
19824TIP3    H280964   4.448   1.401   5.008  1.8964  0.9787  1.0742
19825TIP3   OH280965   0.294   5.113  12.905 -0.1935  0.0982  0.1253
19825TIP3    H180966   0.250   5.039  12.863 -2.4045  1.7811 -0.7145
19825TIP3    H280967   0.250   5.123  12.989 -0.5674  1.0277 -0.1732
19826TIP3   OH280968   3.828   0.723   4.248  0.2541 -0.0509 -0.2643
19826TIP3    H180969   3.792   0.810   4.227 -0.8287 -0.7736 -1.6389
19826TIP3    H280970   3.899   0.740   4.310 -0.2249  1.7698 -0.1577
19827TIP3   OH280971   0.242   3.676  16.631 -0.7937  0.3241  0.5771
19827TIP3    H180972   0.326   3.631  16.628 -0.6745  0.5805 -0.3212
19827TIP3    H280973   0.195   3.644  16.554 -1.2011  0.7707  0.6351
19828TIP3   OH280974   0.902   3.154  15.516  0.0767 -0.2791 -0.0569
19828TIP3    H180975   0.899   3.213  15.441  1.7485  0.8248  0.7026
19828TIP3    H280976   0.918   3.210  15.591  0.1429 -1.5409  0.9068
19829TIP3   OH280977   4.520   4.996  11.514  0.3778 -0.1143  0.0314
19829TIP3    H180978   4.511   5.086  11.484  1.7997  0.1424  0.2768
19829TIP3    H280979   4.453   4.947  11.466 -1.1724  1.2381  0.7120
19830TIP3   OH280980   0.773   0.940  16.727 -0.0919  0.3399  0.0761
19830TIP3    H180981   0.815   1.026  16.726 -0.5359  0.5717 -1.5425
19830TIP3    H280982   0.679   0.959  16.720 -0.2729 -0.2481  0.8560
19831TIP3   OH280983   2.502   6.507   2.320  0.4098 -0.1160 -0.0931
19831TIP3    H180984   2.570   6.443   2.301  0.6464 -0.0601  0.5351
19831TIP3    H280985   2.534   6.588   2.280  0.9480  0.0245  0.6058
19832TIP3   OH280986   0.561   4.624  16.061 -0.0753 -0.5808  0.2349
19832TIP3    H180987   0.483   4.678  16.046 -0.5585 -0.8037  1.8475
19832TIP3    H280988   0.629   4.687  16.086 -0.1267 -0.5361  0.2618
19833TIP3   OH280989   5.922   1.501   4.810 -0.0437 -0.6944 -0.1053
19833TIP3    H180990   6.007   1.458   4.814  0.2390 -0.1368  0.0453
19833TIP3    H280991   5.942   1.591   4.785 -0.6676 -0.7652 -0.8934
19834TIP3   OH280992   2.212   1.069   3.112  0.0870  0.2992 -0.1775
19834TIP3    H180993   2.285   1.028   3.159 -0.3088 -1.8128 -1.2761
19834TIP3    H280994   2.136   1.015   3.135 -0.8089  1.4179 -0.4138
19835TIP3   OH280995   6.852   0.591  17.013 -0.4005  0.0852 -0.1573
19835TIP3    H180996   6.825   0.516  16.959 -2.0802 -0.4673  1.3393
19835TIP3    H280997   6.846   0.559  17.103  3.6941  0.5250  0.4431
19836TIP3   OH280998   0.964   0.545  11.446 -0.1675  0.2217  0.5779
19836TIP3    H180999   0.875   0.525  11.475 -0.5434  1.7395  0.5501
19836TIP3    H281000   0.960   0.537  11.351 -0.8307  2.1379  0.3867
19837TIP3   OH281001   4.234   2.411  12.854  0.0066 -0.1411 -0.4469
19837TIP3    H181002   4.265   2.323  12.872 -0.7164 -0.0864  1.2382
19837TIP3    H281003   4.229   2.453  12.940 -2.3685  0.6085 -0.8750
19838TIP3   OH281004   0.408   2.294  15.025 -0.0685  0.4983  0.2342
19838TIP3    H181005   0.439   2.267  15.112  1.4784  3.3099  0.6645
19838TIP3    H281006   0.485   2.334  14.984 -1.5299  1.8670 -1.2704
19839TIP3   OH281007   2.995   2.377  15.052  0.1205  0.1605 -0.0250
19839TIP3    H181008   3.012   2.373  14.957  1.2585  0.8763  0.1253
19839TIP3    H281009   2.902   2.399  15.059 -0.9235 -3.3439 -0.9164
19840TIP3   OH281010   6.631   0.073   3.618  0.1278 -0.4110 -0.2401
19840TIP3    H181011   6.537   0.086   3.604  0.1024 -1.4007 -1.1102
19840TIP3    H281012   6.650  -0.013   3.579  1.8093  0.6997 -2.0606
19841TIP3   OH281013   5.269   5.663   0.107 -0.0799 -0.0848  0.6883
19841TIP3    H181014   5.230   5.712   0.035  0.8082  0.4799  0.5689
19841TIP3    H281015   5.196   5.618   0.149 -0.6173 -0.3928 -0.5357
19842TIP3   OH281016   5.147   4.457   5.881 -0.0441 -0.2086  0.4796
19842TIP3    H181017   5.237   4.489   5.872  0.2578 -0.8671  1.1022
19842TIP3    H281018   5.112   4.507   5.955 -0.0238 -0.3225  0.5658
19843TIP3   OH281019   1.379   0.079   5.319  0.2213 -0.5224 -0.3346
19843TIP3    H181020   1.317   0.084   5.392 -0.5848 -0.8744 -0.9767
19843TIP3    H281021   1.324   0.065   5.242  1.0284  0.2331 -1.0663
19844TIP3   OH281022   2.765   2.617   0.241 -0.4680  0.3408 -0.1658
19844TIP3    H181023   2.812   2.542   0.204 -0.9811 -0.7624  1.2958
19844TIP3    H281024   2.828   2.688   0.241  0.4273 -0.4357 -0.4634
19845TIP3   OH281025   5.004   0.768   3.809 -0.1142  0.4908 -0.0190
19845TIP3    H181026   4.943   0.777   3.736  0.2843  0.0249 -0.4167
19845TIP3    H281027   5.089   0.793   3.773  0.2622 -0.6768  0.0026
19846TIP3   OH281028   1.200   0.632   3.976  0.0423 -0.4573  0.9159
19846TIP3    H181029   1.180   0.697   3.909 -1.0918 -2.0243 -0.3371
19846TIP3    H281030   1.283   0.593   3.949  0.8927  0.6427  1.8456
19847TIP3   OH281031   1.307   0.468   0.992  0.2969  1.2336 -0.1066
19847TIP3    H181032   1.396   0.503   0.982  0.7935 -0.0550 -0.4649
19847TIP3    H281033   1.320   0.374   1.008 -0.9316  1.3324  1.7980
19848TIP3   OH281034   5.686   5.450   6.010 -0.8580 -0.0938 -0.0382
19848TIP3    H181035   5.691   5.518   6.078  1.1852 -0.5122  0.2961
19848TIP3    H281036   5.654   5.373   6.056 -2.8386  0.4853 -0.3431
19849TIP3   OH281037   6.795   4.181   2.045 -0.0718 -0.3688 -0.1610
19849TIP3    H181038   6.877   4.134   2.056  0.7930  1.0890 -0.0655
19849TIP3    H281039   6.784   4.190   1.951  2.4853  3.5683 -0.3234
19850TIP3   OH281040   5.350   5.665   1.647  0.5550  0.6170  0.5448
19850TIP3    H181041   5.283   5.734   1.646  0.4763  0.5406  0.5235
19850TIP3    H281042   5.431   5.711   1.668  0.9142  1.0796 -1.5560
19851TIP3   OH281043   0.624   5.493  13.161 -0.6189 -0.0349 -0.0776
19851TIP3    H181044   0.630   5.414  13.216  1.0015  1.2603  1.7671
19851TIP3    H281045   0.700   5.545  13.186 -1.0068  1.6266 -2.0777
19852TIP3   OH281046   2.763   1.372   2.483  0.0235 -0.1925 -1.1894
19852TIP3    H181047   2.730   1.409   2.401 -1.6866  1.8933  0.3171
19852TIP3    H281048   2.818   1.442   2.519  1.0664 -1.2348 -0.6885
19853TIP3   OH281049   0.778   5.074  15.063  0.0554  0.9185  0.9540
19853TIP3    H181050   0.841   5.021  15.111  0.5629 -0.7560 -1.4110
19853TIP3    H281051   0.829   5.144  15.025 -0.2811  2.0014  2.3838
19854TIP3   OH281052   6.801   2.484  12.847 -0.4421  0.0583 -0.4216
19854TIP3    H181053   6.890   2.519  12.859  0.0477 -1.3583  0.2254
19854TIP3    H281054   6.745   2.560  12.861  0.6498  0.9803 -0.8163
19855TIP3   OH281055   1.114   5.239   2.960  0.3735  0.3182  0.0105
19855TIP3    H181056   1.098   5.305   3.028 -1.0083 -0.6494  0.6703
19855TIP3    H281057   1.095   5.156   3.002 -1.1223 -0.2693 -1.7002
19856TIP3   OH281058   5.382   4.942   0.158 -0.6057 -0.0918 -0.0932
19856TIP3    H181059   5.398   4.899   0.242 -1.1042  2.2998  1.3106
19856TIP3    H281060   5.435   5.022   0.161 -0.2824 -0.1768 -2.2747
19857TIP3   OH281061   1.705   4.776   4.689 -0.1985  0.1839 -0.4985
19857TIP3    H181062   1.748   4.789   4.604 -1.0195  0.6316 -0.8568
19857TIP3    H281063   1.615   4.755   4.667 -0.2565 -0.3822  0.2569
19858TIP3   OH281064   4.891   4.325   5.010  0.0636  0.5390 -0.1170
19858TIP3    H181065   4.851   4.403   5.049  1.2189  0.7009  0.8033
19858TIP3    H281066   4.871   4.332   4.917 -2.3245  0.4285  0.3141
19859TIP3   OH281067   5.937   5.868   5.332  0.4662  0.1188  0.3442
19859TIP3    H181068   5.931   5.873   5.236  0.3808  1.1499  0.3903
19859TIP3    H281069   6.023   5.831   5.349  0.3245 -0.4525 -0.1313
19860TIP3   OH281070   2.387   0.100   4.566 -0.1102  0.3725  0.3171
19860TIP3    H181071   2.476   0.095   4.601 -0.6115 -0.6200  1.5411
19860TIP3    H281072   2.362   0.009   4.551 -1.0308  0.6226  0.2781
19861TIP3   OH281073   5.718   4.824   0.240 -0.2956 -0.8836  0.5806
19861TIP3    H181074   5.698   4.739   0.200 -0.4451 -0.1206 -1.0294
19861TIP3    H281075   5.685   4.889   0.177  1.9067  0.3854  0.6286
19862TIP3   OH281076   1.588   0.836   4.807  0.2021  0.1703 -0.3545
19862TIP3    H181077   1.510   0.879   4.770 -1.4853 -1.2648  1.3325
19862TIP3    H281078   1.626   0.789   4.733 -0.4014  1.0708 -1.2720
19863TIP3   OH281079   4.491   5.904  12.692 -0.7024  0.2672 -0.4169
19863TIP3    H181080   4.578   5.864  12.698 -1.6075 -1.7362  0.3253
19863TIP3    H281081   4.474   5.913  12.599  0.0673  0.1148 -0.5741
19864TIP3   OH281082   4.953   5.609   2.049 -0.6141  0.2658  0.4463
19864TIP3    H181083   4.910   5.552   1.985  0.1180  1.4311 -1.1713
19864TIP3    H281084   4.920   5.580   2.134  0.1479 -2.9415 -0.2028
19865TIP3   OH281085   5.338   2.504   1.723 -0.5143 -0.5159  0.3990
19865TIP3    H181086   5.418   2.557   1.714 -0.3239 -0.3604  2.6106
19865TIP3    H281087   5.346   2.438   1.655  0.4918  0.7309 -0.7654
19866TIP3   OH281088   5.086   1.652   3.641  0.0356  0.1413 -0.3885
19866TIP3    H181089   5.106   1.570   3.596 -1.6752  0.3479 -1.6253
19866TIP3    H281090   5.169   1.699   3.645  0.9343 -1.4394 -0.0842
19867TIP3   OH281091   5.150   0.542   5.517 -0.2760 -0.2382 -0.1817
19867TIP3    H181092   5.157   0.458   5.470  1.3038 -0.2244 -0.0348
19867TIP3    H281093   5.234   0.551   5.562 -0.6060  1.2048  0.1976
19868TIP3   OH281094   4.757   3.536   3.334 -0.2719 -0.7875  0.0481
19868TIP3    H181095   4.701   3.522   3.259 -0.9160 -0.5284  0.4736
19868TIP3    H281096   4.844   3.552   3.297 -0.2466 -2.2382 -0.5773
19869TIP3   OH281097   2.914   0.628  13.048  0.3507  0.7736  0.2911
19869TIP3    H181098   2.945   0.679  13.123  0.9216  1.6454 -0.5058
19869TIP3    H281099   2.916   0.537  13.078 -0.1110  1.1602  1.5489
19870TIP3   OH281100   1.267   3.478   4.149  0.4260  1.1265 -0.5443
19870TIP3    H181101   1.241   3.386   4.155  0.0347  1.1764 -1.3812
19870TIP3    H281102   1.361   3.478   4.168  0.7616  0.3445 -2.1031
19871TIP3   OH281103   3.941   1.087   5.177 -0.6802  0.2590 -0.6983
19871TIP3    H181104   3.954   1.178   5.201 -2.7514  0.8355 -1.6208
19871TIP3    H281105   3.876   1.054   5.239 -2.6988  0.4971 -2.5792
19872TIP3   OH281106   1.419   5.797  15.906 -0.2451 -0.2720  0.6270
19872TIP3    H181107   1.424   5.862  15.836 -0.5903 -0.6008  0.2951
19872TIP3    H281108   1.446   5.845  15.985  2.1357 -0.4170 -0.0325
19873TIP3   OH281109   1.186   5.563  13.019 -0.0118 -0.0266 -0.0640
19873TIP3    H181110   1.215   5.517  13.098  0.4717 -1.3166 -0.9630
19873TIP3    H281111   1.093   5.542  13.012 -0.7050  2.1394  1.4881
19874TIP3   OH281112   5.212   5.537   5.966  0.4572 -0.5204 -0.1719
19874TIP3    H181113   5.202   5.618   5.915  0.3794  0.6373  1.5955
19874TIP3    H281114   5.300   5.541   6.002 -0.3689  0.0845  1.9650
19875TIP3   OH281115   3.247   4.444   1.130  0.4179  0.0595  0.3727
19875TIP3    H181116   3.325   4.428   1.183 -0.2358 -1.8712  0.8233
19875TIP3    H281117   3.239   4.368   1.074 -1.3864 -0.0293  0.6734
19876TIP3   OH281118   2.465   1.432   2.218 -0.0295  0.0917 -0.2785
19876TIP3    H181119   2.433   1.494   2.283  1.4969 -0.0275  0.6390
19876TIP3    H281120   2.559   1.452   2.210  0.4653 -1.9542 -0.0953
19877TIP3   OH281121   3.886   5.261   2.497  0.1088 -0.8926  0.5665
19877TIP3    H181122   3.843   5.309   2.426  0.0911  0.4197  1.4236
19877TIP3    H281123   3.976   5.250   2.467 -0.5728 -3.0535 -0.9413
19878TIP3   OH281124   5.994   3.825  14.581 -0.1808  0.7129 -0.2788
19878TIP3    H181125   5.988   3.750  14.523  1.7110 -0.3323  0.7655
19878TIP3    H281126   6.080   3.864  14.562 -0.3817  1.5478  0.4173
19879TIP3   OH281127   3.152   0.700   0.863 -0.0884 -0.4296 -0.6339
19879TIP3    H181128   3.180   0.789   0.839 -0.6667 -0.4549 -1.4365
19879TIP3    H281129   3.153   0.700   0.959 -0.9701  0.7396 -0.6031
19880TIP3   OH281130   4.977   3.615   3.120 -0.8527 -0.3460 -0.2539
19880TIP3    H181131   4.894   3.660   3.102 -1.1660 -0.3182  1.2019
19880TIP3    H281132   5.040   3.658   3.062 -1.6721  0.1947 -0.7716
19881TIP3   OH281133   2.337   6.181   1.444 -0.6405 -0.2597  0.0137
19881TIP3    H181134   2.359   6.091   1.420 -0.2244  0.0577 -0.8392
19881TIP3    H281135   2.388   6.235   1.384  1.4528  0.6440  2.4040
19882TIP3   OH281136   3.670   2.786  14.582  0.0062 -0.1371 -0.0712
19882TIP3    H181137   3.578   2.776  14.604  0.1704 -1.9371 -0.1158
19882TIP3    H281138   3.673   2.867  14.530 -1.1293  1.3912  2.0615
19883TIP3   OH281139   6.510   4.350  17.042 -0.4542 -0.2005 -0.1882
19883TIP3    H181140   6.545   4.386  17.123  1.4658 -0.0610 -1.0148
19883TIP3    H281141   6.437   4.295  17.070 -0.9541  1.1987  1.4514
19884TIP3   OH281142   1.744   0.290   3.617  0.0968 -0.3557  0.4563
19884TIP3    H181143   1.691   0.236   3.675 -1.7590 -0.6209 -1.3674
19884TIP3    H281144   1.792   0.227   3.562  1.8019 -0.1100  1.5757
19885TIP3   OH281145   0.479   5.922  15.547  0.2989  0.3472  0.3018
19885TIP3    H181146   0.494   5.828  15.537  0.0659  0.5034 -1.8355
19885TIP3    H281147   0.551   5.963  15.500 -0.7313  1.2064 -0.5634
19886TIP3   OH281148   4.833   4.129   4.432  0.1762 -0.2717  0.2830
19886TIP3    H181149   4.870   4.107   4.518  0.0030 -1.4968  0.0586
19886TIP3    H281150   4.899   4.100   4.369  1.0560  2.1049 -0.0061
19887TIP3   OH281151   1.376   1.917  13.592 -1.2700  0.4862 -0.8060
19887TIP3    H181152   1.464   1.953  13.581 -1.6167  2.1108  1.0647
19887TIP3    H281153   1.387   1.823  13.580  0.4179  0.8116 -2.1294
19888TIP3   OH281154   3.323   2.165  14.279 -0.3565  0.6092 -0.6888
19888TIP3    H181155   3.403   2.187  14.232 -0.7187  0.2680 -1.5007
19888TIP3    H281156   3.318   2.069  14.274  0.3603  0.4293  1.3555
19889TIP3   OH281157   5.627   3.906   6.160  0.0867 -0.1921 -0.1961
19889TIP3    H181158   5.634   3.840   6.229  3.0840  0.0887 -0.0803
19889TIP3    H281159   5.716   3.912   6.125 -0.8397  1.4040 -2.4767
19890TIP3   OH281160   4.740   1.154  13.003  0.1321 -0.3438  0.2603
19890TIP3    H181161   4.651   1.139  12.971 -0.2082 -0.8892  1.4170
19890TIP3    H281162   4.795   1.145  12.926 -0.8530  0.4945 -0.5727
19891TIP3   OH281163   3.152   3.700   2.374  0.4958  0.4181  0.4250
19891TIP3    H181164   3.193   3.771   2.324  0.6034 -0.2204 -0.4164
19891TIP3    H281165   3.113   3.643   2.307  1.2569 -0.8412  1.0088
19892TIP3   OH281166   5.933   2.294   3.931 -0.2982  0.3490 -0.0471
19892TIP3    H181167   6.028   2.289   3.935 -0.2957  0.1018 -0.3752
19892TIP3    H281168   5.903   2.210   3.966 -0.3589 -0.1453 -1.2203
19893TIP3   OH281169   3.804   2.042  16.098  0.3514 -0.1777 -0.2241
19893TIP3    H181170   3.830   1.950  16.104  0.7908 -0.0823 -0.6051
19893TIP3    H281171   3.853   2.086  16.167  1.0935 -0.0254 -0.8373
19894TIP3   OH281172   3.153   6.383  11.025 -0.0337 -0.6551  0.5217
19894TIP3    H181173   3.198   6.331  10.959 -0.7118  1.1067 -1.4463
19894TIP3    H281174   3.097   6.320  11.071  0.6601 -1.9878 -0.3894
19895TIP3   OH281175   3.388   1.209  15.405  0.0139  0.6311 -0.3413
19895TIP3    H181176   3.347   1.229  15.321 -1.4993 -2.3022 -0.4400
19895TIP3    H281177   3.335   1.138  15.440  2.0295  0.1846  2.0189
19896TIP3   OH281178   6.358   4.131  10.546 -0.5312  0.3327  0.3036
19896TIP3    H181179   6.362   4.044  10.507  1.0959  0.9932 -1.0982
19896TIP3    H281180   6.434   4.134  10.605 -1.2658  0.4004  1.2666
19897TIP3   OH281181   3.848   6.262   5.066  0.5965 -0.6771 -0.1656
19897TIP3    H181182   3.880   6.226   4.983  1.0154  1.0716 -0.8135
19897TIP3    H281183   3.841   6.356   5.050  0.3429 -0.3435  1.6808
19898TIP3   OH281184   5.738   5.694  13.100 -0.3670 -0.7133  0.1716
19898TIP3    H181185   5.763   5.765  13.041 -1.5743 -0.0380  0.4417
19898TIP3    H281186   5.685   5.635  13.046 -0.1967 -0.8932  0.2002
19899TIP3   OH281187   5.808   6.171   0.776  0.0983 -0.5188  0.0108
19899TIP3    H181188   5.814   6.078   0.798  3.4685 -0.1252  1.3791
19899TIP3    H281189   5.812   6.216   0.860  0.3631  0.9035 -0.7313
19900TIP3   OH281190   1.243   1.802  12.263 -0.1272  0.6867 -0.7296
19900TIP3    H181191   1.165   1.774  12.312  0.4887  1.7822  0.9830
19900TIP3    H281192   1.216   1.883  12.220  0.3381  1.7362  0.8455
19901TIP3   OH281193   5.585   1.418   2.612  0.3601 -0.5055 -0.2631
19901TIP3    H181194   5.579   1.370   2.694 -0.5038 -1.1149 -0.6607
19901TIP3    H281195   5.677   1.441   2.604  0.1365  1.3234  1.8262
19902TIP3   OH281196   4.667   6.328  14.171  0.1167  0.2746 -0.2661
19902TIP3    H181197   4.615   6.248  14.168  1.6226 -0.7969  0.4697
19902TIP3    H281198   4.660   6.358  14.262  0.4724  0.3189 -0.2504
19903TIP3   OH281199   6.427   4.121   0.096 -0.3247  0.2990 -0.1225
19903TIP3    H181200   6.455   4.032   0.073  1.3176  1.2485 -2.1307
19903TIP3    H281201   6.474   4.141   0.177 -0.7758 -0.6832  0.3921
19904TIP3   OH281202   4.841   2.377  14.029  0.3645 -0.2555  0.3186
19904TIP3    H181203   4.786   2.299  14.042  0.4813 -0.8472 -2.1703
19904TIP3    H281204   4.782   2.451  14.045 -0.2088 -0.8522  1.0504
19905TIP3   OH281205   3.454   4.201  14.388  0.0689  0.4265 -0.7088
19905TIP3    H181206   3.452   4.297  14.386  1.4742  0.6218  2.2305
19905TIP3    H281207   3.545   4.179  14.368 -0.2608 -0.3420 -1.4269
19906TIP3   OH281208   1.475   4.588  11.023 -0.3536 -0.0077 -0.0184
19906TIP3    H181209   1.493   4.620  10.934  3.7162 -2.8753 -0.5225
19906TIP3    H281210   1.512   4.655  11.080  0.0612  0.3076 -0.6437
19907TIP3   OH281211   5.289   6.016  15.815  0.4562 -0.4022  0.1108
19907TIP3    H181212   5.356   5.954  15.843  1.7341  0.1727 -1.4690
19907TIP3    H281213   5.308   6.096  15.862  0.3587 -0.4786  0.2805
19908TIP3   OH281214   1.296   2.519   3.133  0.6295 -0.5788  0.5123
19908TIP3    H181215   1.365   2.526   3.067 -2.2997 -0.1865 -2.8612
19908TIP3    H281216   1.215   2.519   3.082 -1.9430 -0.2512  4.2121
19909TIP3   OH281217   5.149   0.275   3.939 -0.3155  0.6557 -0.1109
19909TIP3    H181218   5.144   0.338   4.012  0.4976  0.3375  0.2348
19909TIP3    H281219   5.104   0.319   3.867  0.3145  1.6792  0.0989
19910TIP3   OH281220   0.542   6.406  12.906  0.4716 -0.5806 -0.1130
19910TIP3    H181221   0.586   6.472  12.961  1.2833 -1.5502  0.4323
19910TIP3    H281222   0.478   6.365  12.965 -0.4098  0.0616 -0.5996
19911TIP3   OH281223   0.665   0.212  13.076  0.0014 -0.2257 -0.5250
19911TIP3    H181224   0.733   0.258  13.126  1.9626  0.5854 -3.6563
19911TIP3    H281225   0.583   0.239  13.118  1.3954  1.4436  1.3526
19912TIP3   OH281226   6.262   6.149  16.214  0.1049 -0.4636  0.6235
19912TIP3    H181227   6.335   6.163  16.153 -0.0539 -2.1578  0.0154
19912TIP3    H281228   6.185   6.143  16.158  0.0530 -2.7999  0.8661
19913TIP3   OH281229   5.869   5.216   3.889  0.8396  0.2588  0.2257
19913TIP3    H181230   5.903   5.162   3.818  2.2438  0.5916  0.5945
19913TIP3    H281231   5.789   5.172   3.918  0.4832 -0.1183 -1.2531
19914TIP3   OH281232   1.593   4.256   3.958  0.1014 -0.8271 -0.0785
19914TIP3    H181233   1.519   4.306   3.992  1.1094 -0.5821  1.9064
19914TIP3    H281234   1.561   4.166   3.952 -0.5008 -0.6370  0.2446
19915TIP3   OH281235   3.865   0.194   3.758  0.3797 -0.0178  0.4208
19915TIP3    H181236   3.850   0.232   3.672  0.5698  1.0109  0.8282
19915TIP3    H281237   3.778   0.168   3.789 -0.1378  2.3283  1.1374
19916TIP3   OH281238   4.531   5.045   0.327 -0.3332  0.3774  0.3668
19916TIP3    H181239   4.525   4.950   0.340 -1.3163  0.1786 -1.2567
19916TIP3    H281240   4.624   5.060   0.307 -0.2344 -0.3019  0.2747
19917TIP3   OH281241   3.441   1.703   2.505 -0.4099 -0.1281  0.4474
19917TIP3    H181242   3.469   1.783   2.551  1.1916 -0.5569  0.2703
19917TIP3    H281243   3.487   1.632   2.551  0.9959 -0.5955 -1.5701
19918TIP3   OH281244   1.105   1.169   4.850 -0.3033 -0.0036 -0.0932
19918TIP3    H181245   1.164   1.236   4.884 -0.4464  0.3576 -0.5434
19918TIP3    H281246   1.051   1.216   4.786  0.4410 -0.8025 -1.3507
19919TIP3   OH281247   6.332   0.473  12.041 -0.0283  0.0529 -0.5319
19919TIP3    H181248   6.309   0.430  12.124 -0.3746  0.6869 -0.2963
19919TIP3    H281249   6.264   0.447  11.980  1.8486 -3.0150 -1.5631
19920TIP3   OH281250   1.563   4.156  15.544  0.1822  0.0995  0.2746
19920TIP3    H181251   1.655   4.180  15.551 -0.0482  1.1993 -0.3145
19920TIP3    H281252   1.525   4.185  15.627  0.6498 -1.8561  1.2446
19921TIP3   OH281253   5.352   1.528   3.831  0.0495  0.0542 -0.2722
19921TIP3    H181254   5.397   1.476   3.898 -2.4547  0.1819  1.6663
19921TIP3    H281255   5.328   1.464   3.764 -0.0507 -0.6713  0.4383
19922TIP3   OH281256   0.748   5.690  15.106  0.6546 -0.0215 -0.0562
19922TIP3    H181257   0.814   5.658  15.045 -0.9104 -0.4160 -1.6484
19922TIP3    H281258   0.668   5.642  15.082 -0.6760  1.7925  0.5051
19923TIP3   OH281259   2.441   0.885  12.282 -0.3456  0.4424 -0.1710
19923TIP3    H181260   2.392   0.834  12.217  0.3422  0.2257 -0.5307
19923TIP3    H281261   2.374   0.937  12.327 -0.8471  0.4960 -0.9618
19924TIP3   OH281262   1.421   3.138  16.816  0.1475 -0.1630 -0.7352
19924TIP3    H181263   1.362   3.196  16.865 -0.8130 -1.1915 -0.6402
19924TIP3    H281264   1.458   3.193  16.747 -0.0490  0.7848 -0.0988
19925TIP3   OH281265   1.455   4.858  13.803  0.1420  0.0305 -0.6974
19925TIP3    H181266   1.423   4.935  13.851  0.8814 -0.0305 -0.1040
19925TIP3    H281267   1.549   4.856  13.820  0.2639 -0.5302 -1.3970
19926TIP3   OH281268   1.019   4.941  14.780 -0.1838  0.7246 -0.5096
19926TIP3    H181269   1.041   4.870  14.719  0.6289  0.6843 -0.1778
19926TIP3    H281270   0.981   5.009  14.724 -0.8433  0.0946 -0.8502
19927TIP3   OH281271   1.793   2.842   2.072  0.5977  0.0136  0.6973
19927TIP3    H181272   1.842   2.905   2.019  1.4081 -1.1732  0.0002
19927TIP3    H281273   1.768   2.891   2.150 -0.5046  1.7829 -0.6810
19928TIP3   OH281274   2.632   5.604  11.441 -0.5384 -0.2000 -0.0057
19928TIP3    H181275   2.610   5.511  11.442 -1.6198  0.0396  1.0693
19928TIP3    H281276   2.686   5.617  11.519  1.0128 -0.2061 -1.0322
19929TIP3   OH281277   2.216   6.245  16.119 -0.5223  0.2149  0.4640
19929TIP3    H181278   2.309   6.267  16.126 -0.9710  2.1921  0.6769
19929TIP3    H281279   2.183   6.248  16.209 -1.0752  0.9488  0.2479
19930TIP3   OH281280   0.097   2.867   5.649  0.2349 -0.5357 -0.6189
19930TIP3    H181281   0.136   2.861   5.737 -1.0892  1.3982  0.1945
19930TIP3    H281282   0.006   2.839   5.661 -0.7145  2.1386 -0.6880
19931TIP3   OH281283   2.817   5.423   6.290  0.5399 -0.5097  0.6037
19931TIP3    H181284   2.836   5.504   6.336  0.7972 -1.3482  2.0554
19931TIP3    H281285   2.756   5.447   6.221 -0.3861  0.7127  1.8105
19932TIP3   OH281286   1.108   0.928   5.228  0.0406 -0.4266  0.4453
19932TIP3    H181287   1.132   0.876   5.151 -2.8213  0.3304 -1.0916
19932TIP3    H281288   1.169   1.001   5.227  2.1854 -2.0869  0.9157
19933TIP3   OH281289   1.364   4.310   3.406 -0.0376  0.2711 -0.4406
19933TIP3    H181290   1.403   4.366   3.339  0.2199 -0.1336 -0.6304
19933TIP3    H281291   1.271   4.308   3.385  0.0494  0.1094 -0.8153
19934TIP3   OH281292   5.020   3.403   2.066  0.2150 -0.3095 -0.1533
19934TIP3    H181293   5.113   3.401   2.088  0.4654 -0.4089 -1.2059
19934TIP3    H281294   4.978   3.352   2.135  0.5782  2.1096  2.0142
19935TIP3   OH281295   6.144   0.145  11.893 -0.5284 -0.2720  0.3231
19935TIP3    H181296   6.190   0.098  11.824 -1.1402  0.8340 -0.8654
19935TIP3    H281297   6.133   0.234  11.859 -0.9542  0.2728  1.7903
19936TIP3   OH281298   6.335   4.527  16.498 -0.6410  0.3399 -0.4815
19936TIP3    H181299   6.376   4.505  16.415 -1.5983 -0.8352 -0.6711
19936TIP3    H281300   6.398   4.497  16.564 -0.2444  0.5340 -0.7642
19937TIP3   OH281301   0.328   4.610  12.832 -0.6689  0.2122  0.3126
19937TIP3    H181302   0.316   4.641  12.922 -0.9481  1.3823 -0.1087
19937TIP3    H281303   0.309   4.686  12.778 -0.9160 -0.5929 -0.7638
19938TIP3   OH281304   4.546   5.195   1.770 -0.3624  0.8158  0.0393
19938TIP3    H181305   4.608   5.246   1.718  0.8586  0.9454  1.5734
19938TIP3    H281306   4.464   5.200   1.720  1.2489 -1.0349 -3.1078
19939TIP3   OH281307   0.029   4.278   0.398  0.5025  0.2630  0.0895
19939TIP3    H181308   0.072   4.277   0.483  1.0983  1.2409 -0.1722
19939TIP3    H281309   0.028   4.187   0.370  2.9409  0.2322 -0.1358
19940TIP3   OH281310   2.028   6.039   0.426 -0.4100  0.7649  0.4283
19940TIP3    H181311   2.001   5.962   0.375  1.3442  0.5511 -0.2412
19940TIP3    H281312   1.991   6.113   0.378 -1.3527  0.4123  0.5776
19941TIP3   OH281313   4.833   4.794  15.051  0.2050 -0.0190 -0.1453
19941TIP3    H181314   4.806   4.735  15.121 -1.2072 -1.1895 -1.6101
19941TIP3    H281315   4.782   4.767  14.975  0.1612  2.5295 -1.1265
19942TIP3   OH281316   1.372   1.132  13.278  0.2668  0.0168  0.1900
19942TIP3    H181317   1.304   1.165  13.337 -0.4791  0.0091 -0.6503
19942TIP3    H281318   1.355   1.037  13.275 -2.0695  0.3684 -2.8473
19943TIP3   OH281319   3.528   6.742   0.951 -0.1518 -0.1380  0.5560
19943TIP3    H181320   3.476   6.714   1.026  0.5403  0.1160  1.1511
19943TIP3    H281321   3.506   6.834   0.939  0.7920  0.2127  1.3727
19944TIP3   OH281322   5.264   5.160  16.976  0.2525 -0.1305  0.2888
19944TIP3    H181323   5.223   5.081  17.011 -0.5809  0.6911  1.2787
19944TIP3    H281324   5.284   5.212  17.054  1.3630  0.3581 -0.3085
19945TIP3   OH281325   5.474   6.807  15.893  0.2858  0.0517  0.7402
19945TIP3    H181326   5.458   6.715  15.914  0.0752 -0.2324 -0.6130
19945TIP3    H281327   5.390   6.851  15.910  0.1553 -0.1477  0.6066
19946TIP3   OH281328   3.966   5.739   5.754 -0.5071 -0.5964  0.4793
19946TIP3    H181329   4.014   5.790   5.818 -1.2235  1.5563 -0.6059
19946TIP3    H281330   3.940   5.802   5.686 -2.5037 -2.1484 -0.3308
19947TIP3   OH281331   2.205   2.242  15.159 -0.1795  1.0353 -0.1787
19947TIP3    H181332   2.144   2.173  15.134 -0.0138 -0.1328  2.2719
19947TIP3    H281333   2.162   2.323  15.136 -1.9521  0.1905  0.0189
19948TIP3   OH281334   5.373   5.049  10.900 -0.2267  0.5056  0.0938
19948TIP3    H181335   5.394   5.117  10.837  2.8320 -1.0361 -0.7700
19948TIP3    H281336   5.439   5.058  10.969 -1.5386  0.1498  1.4652
19949TIP3   OH281337   2.842   2.774  13.886 -0.6356 -0.4851  0.5937
19949TIP3    H181338   2.846   2.808  13.796  0.5208 -0.4327  0.6474
19949TIP3    H281339   2.753   2.742  13.896 -0.7546 -0.5712 -0.6068
19950TIP3   OH281340   2.434   5.311   4.151 -0.1115  0.1356  0.0537
19950TIP3    H181341   2.400   5.400   4.141 -0.8045 -0.2871 -1.7356
19950TIP3    H281342   2.365   5.255   4.115  1.2200 -0.9569 -0.9134
19951TIP3   OH281343   4.748   3.696   2.179 -0.3941  0.3155  0.6701
19951TIP3    H181344   4.656   3.722   2.174  0.0710  2.1723  1.1484
19951TIP3    H281345   4.783   3.744   2.254  1.2269  0.5313 -0.1842
19952TIP3   OH281346   6.702   2.587   4.798 -0.3608  0.1203 -1.0332
19952TIP3    H181347   6.793   2.619   4.805 -0.3345 -0.2158  0.2836
19952TIP3    H281348   6.708   2.514   4.737  0.8231 -1.8127  1.2276
19953TIP3   OH281349   2.639   0.356   3.476  0.6789 -0.0258  0.5775
19953TIP3    H181350   2.719   0.408   3.465  1.1293 -0.2020  2.6306
19953TIP3    H281351   2.668   0.277   3.522 -0.5677 -0.4089  0.7389
19954TIP3   OH281352   6.037   6.557  12.790  0.0809  0.5304 -0.3832
19954TIP3    H181353   5.989   6.507  12.857 -0.0407 -0.4314 -1.1643
19954TIP3    H281354   6.009   6.518  12.707  0.6304  1.3597 -0.9719
19955TIP3   OH281355   2.738   3.245   3.990  0.0082 -0.3171  0.1567
19955TIP3    H181356   2.746   3.150   3.985 -0.8734 -0.3527 -1.1200
19955TIP3    H281357   2.653   3.264   3.950  0.2077  1.0166  0.3160
19956TIP3   OH281358   0.033   5.275   5.755 -0.4085  0.9032 -0.5675
19956TIP3    H181359   0.036   5.181   5.735 -1.3377  1.0721 -1.5877
19956TIP3    H281360   0.089   5.315   5.687  4.0502  0.7769  2.5638
19957TIP3   OH281361   3.067   6.562  16.411 -0.4928  0.5983 -0.1351
19957TIP3    H181362   3.010   6.631  16.444 -0.1903  1.4374 -1.3045
19957TIP3    H281363   3.154   6.600  16.409 -0.3362  0.2232 -0.8810
19958TIP3   OH281364   3.868   0.610  14.894  0.1993  0.2860  0.6380
19958TIP3    H181365   3.878   0.582  14.985  3.3275  1.3779  0.7642
19958TIP3    H281366   3.824   0.695  14.900  0.1503  0.2282  1.1129
19959TIP3   OH281367   4.826   4.012   0.204 -0.3979  0.2452  0.5228
19959TIP3    H181368   4.812   4.082   0.268  0.9446  0.0786  1.0265
19959TIP3    H281369   4.906   3.968   0.234  0.6106  0.5265 -1.5960
19960TIP3   OH281370   0.997   2.650  15.898 -0.6216  0.0078  0.0776
19960TIP3    H181371   1.065   2.697  15.946 -0.3064 -1.0710  0.7279
19960TIP3    H281372   1.039   2.568  15.873 -1.2835 -0.1049 -0.6702
19961TIP3   OH281373   4.188   5.872  11.500  0.2585  0.3807 -0.1425
19961TIP3    H181374   4.190   5.843  11.591  1.6065 -2.2525 -0.8928
19961TIP3    H281375   4.278   5.861  11.469 -0.7225 -2.1368 -2.6320
19962TIP3   OH281376   5.876   5.845   4.415 -0.3749 -0.9458 -0.1377
19962TIP3    H181377   5.953   5.883   4.372 -0.1163 -0.5555  0.6395
19962TIP3    H281378   5.828   5.802   4.345  0.1407 -0.5047 -0.7766
19963TIP3   OH281379   4.288   4.119  12.695  0.1071  0.7953  0.7061
19963TIP3    H181380   4.369   4.167  12.678 -0.8403  2.0866 -0.3450
19963TIP3    H281381   4.310   4.059  12.766  2.7756 -0.9069 -1.3517
19964TIP3   OH281382   1.848   3.210   4.527  0.4629  0.5551  0.3224
19964TIP3    H181383   1.921   3.213   4.590 -0.0188  0.0593  0.9134
19964TIP3    H281384   1.891   3.211   4.441  1.1091  2.0961  0.6230
19965TIP3   OH281385   1.228   0.625  11.240 -0.2481  0.2832 -0.7560
19965TIP3    H181386   1.213   0.562  11.310 -2.8972  0.4649 -1.0612
19965TIP3    H281387   1.278   0.695  11.282 -0.3595 -0.3732  0.5213
19966TIP3   OH281388   5.425   0.676   3.233 -0.2065  0.0474  0.9453
19966TIP3    H181389   5.465   0.595   3.202 -1.3695 -0.4325  0.6537
19966TIP3    H281390   5.426   0.735   3.157  1.4385  0.6556  1.3905
19967TIP3   OH281391   1.183   2.503   0.757 -0.2024  0.0018 -0.8782
19967TIP3    H181392   1.167   2.465   0.670  0.8076 -2.5289 -0.0452
19967TIP3    H281393   1.270   2.543   0.750  1.3709 -3.0788 -0.2351
19968TIP3   OH281394   3.251   3.092   3.074  0.6224  0.0360 -0.3697
19968TIP3    H181395   3.192   3.059   3.142  0.6326 -1.3389 -0.9770
19968TIP3    H281396   3.328   3.036   3.081  1.0630  0.5833 -0.8157
19969TIP3   OH281397   1.997   1.588  14.431  0.2963 -0.4206  0.2648
19969TIP3    H181398   1.914   1.614  14.391  0.4782 -1.0041 -0.5186
19969TIP3    H281399   1.977   1.507  14.478  0.2576 -0.1632  0.6889
19970TIP3   OH281400   4.342   2.981  10.531  0.0630  0.5439 -0.2198
19970TIP3    H181401   4.281   2.993  10.458 -0.5485  1.1870  0.3828
19970TIP3    H281402   4.370   3.069  10.554  0.4161  0.3280  0.1883
19971TIP3   OH281403   0.045   5.672  15.097  0.2185 -0.1220 -0.2060
19971TIP3    H181404  -0.034   5.618  15.092  1.4063 -2.0083  0.3874
19971TIP3    H281405   0.047   5.703  15.188 -0.0248  0.2637 -0.3276
19972TIP3   OH281406   2.260   3.599   4.021  0.3123 -0.6317  0.1245
19972TIP3    H181407   2.256   3.542   4.097  0.5691 -0.0640  0.5740
19972TIP3    H281408   2.343   3.646   4.031 -1.0260  1.6566  1.1248
19973TIP3   OH281409   1.307   1.015  12.156  0.0068  0.4229  0.2776
19973TIP3    H181410   1.372   0.944  12.153  0.0090  0.4623 -1.0833
19973TIP3    H281411   1.358   1.094  12.140 -0.2921  0.5145 -0.2194
19974TIP3   OH281412   1.388   6.160   2.797  0.1512  0.2387  0.2248
19974TIP3    H181413   1.475   6.163   2.838  0.6135  0.3436 -0.7204
19974TIP3    H281414   1.391   6.082   2.742 -0.9273 -0.6469  1.3692
19975TIP3   OH281415   1.409   0.187  14.802 -0.3887 -0.4133 -0.6325
19975TIP3    H181416   1.373   0.109  14.759 -0.1133 -1.2172  0.5641
19975TIP3    H281417   1.366   0.190  14.887  1.3876 -0.6535  0.3074
19976TIP3   OH281418   5.350   0.598   4.963 -0.0086 -0.2439 -0.2183
19976TIP3    H181419   5.398   0.518   4.984  0.4570  0.1329  0.1893
19976TIP3    H281420   5.272   0.594   5.018 -1.0407 -1.3996 -1.6975
19977TIP3   OH281421   1.951   0.251  10.316 -0.2316 -0.0674 -0.0006
19977TIP3    H181422   1.919   0.341  10.315 -0.9225 -0.3060 -0.1959
19977TIP3    H281423   2.045   0.259  10.299  0.1588  0.7645  2.2500
19978TIP3   OH281424   4.663   5.809   5.101 -0.1631 -0.1403  0.0892
19978TIP3    H181425   4.658   5.714   5.100  1.6076 -0.2728 -0.4823
19978TIP3    H281426   4.622   5.836   5.019 -0.0352 -0.4596 -0.0823
19979TIP3   OH281427   0.741   0.341  14.909 -0.0362 -0.2207  0.3180
19979TIP3    H181428   0.822   0.390  14.921  0.1216  0.2404 -2.1592
19979TIP3    H281429   0.754   0.292  14.828 -2.5645  0.6782 -0.7291
19980TIP3   OH281430   2.558   2.861  15.115  0.3995  0.3357 -0.2303
19980TIP3    H181431   2.555   2.769  15.141  1.0117  0.4794  0.3825
19980TIP3    H281432   2.617   2.862  15.040 -0.5523  0.0685 -1.0026
19981TIP3   OH281433   6.493   4.171   4.587 -0.3663 -0.2832  0.3500
19981TIP3    H181434   6.584   4.190   4.563 -1.3969  2.2915 -2.1627
19981TIP3    H281435   6.484   4.077   4.574  1.6472 -0.4044 -0.5353
19982TIP3   OH281436   5.630   3.165   2.584 -0.1184  0.1835  0.0803
19982TIP3    H181437   5.720   3.179   2.555  0.3748 -0.2368  1.3458
19982TIP3    H281438   5.602   3.087   2.535  0.0011  0.6380 -0.7303
19983TIP3   OH281439   6.469   5.230  13.143 -0.6226 -0.2656 -0.0476
19983TIP3    H181440   6.485   5.172  13.218 -3.3739 -0.1865  0.6777
19983TIP3    H281441   6.496   5.177  13.067 -0.3477 -1.3786  0.7866
19984TIP3   OH281442   3.273   6.086   0.546  0.3791 -0.3899  0.2151
19984TIP3    H181443   3.201   6.031   0.578 -0.7794  0.0642 -1.4584
19984TIP3    H281444   3.351   6.032   0.558 -0.0553 -0.5726  2.8738
19985TIP3   OH281445   6.838   6.655  16.855  0.1394  0.0636  0.3692
19985TIP3    H181446   6.848   6.643  16.761  0.8100  0.0805  0.4340
19985TIP3    H281447   6.783   6.732  16.864 -0.1633 -0.1079 -0.0116
19986TIP3   OH281448   1.659   0.882   0.304 -0.1303 -0.3539  0.3341
19986TIP3    H181449   1.668   0.976   0.322 -1.2124 -0.0258 -0.6642
19986TIP3    H281450   1.721   0.840   0.363 -0.1862  0.9370  1.3689
19987TIP3   OH281451   6.659   4.778  16.092 -0.1017 -0.0856  0.1216
19987TIP3    H181452   6.653   4.853  16.033 -0.4987  0.5016  0.9040
19987TIP3    H281453   6.678   4.704  16.034  0.4286  0.6289 -0.6410
19988TIP3   OH281454   1.591   1.637   2.975  0.2154 -0.0093 -0.6818
19988TIP3    H181455   1.543   1.638   3.058 -0.8857  0.0126 -1.3029
19988TIP3    H281456   1.601   1.544   2.954 -0.6339 -0.0009 -1.1513
19989TIP3   OH281457   5.227   2.282   5.343  0.4986  0.1783 -0.3178
19989TIP3    H181458   5.277   2.341   5.286  0.3117 -0.1321 -0.8082
19989TIP3    H281459   5.144   2.268   5.297  0.6391 -0.6706 -0.3270
19990TIP3   OH281460   0.472   1.796   3.591 -0.0248 -0.7753 -0.2148
19990TIP3    H181461   0.536   1.765   3.655 -0.4618 -2.6237 -0.6137
19990TIP3    H281462   0.475   1.891   3.599  1.6642 -0.8647  0.8382
19991TIP3   OH281463   4.228   3.406   6.955 -0.7464  0.3895  0.2586
19991TIP3    H181464   4.179   3.399   6.873 -0.8915  0.3119  0.3525
19991TIP3    H281465   4.172   3.459   7.012 -0.5632  0.6014  0.2455
19992TIP3   OH281466   4.776   5.225   1.578 -0.2305  0.4517 -0.1544
19992TIP3    H181467   4.851   5.279   1.556 -0.9762  0.6889 -2.2914
19992TIP3    H281468   4.791   5.142   1.534 -1.9769  1.0886 -2.1157
19993TIP3   OH281469   0.393   5.720   3.570  0.1077  0.4623  0.5233
19993TIP3    H181470   0.485   5.710   3.594 -0.1801 -1.4742  0.9672
19993TIP3    H281471   0.385   5.676   3.485 -0.5165  0.1090  0.7564
19994TIP3   OH281472   1.697   6.700  17.108  0.2225  0.3456 -0.1436
19994TIP3    H181473   1.789   6.677  17.103  0.2938  0.5539  0.1915
19994TIP3    H281474   1.657   6.656  17.033  0.9383  1.8790 -1.4724
19995TIP3   OH281475   6.638   5.389   1.212 -0.0264  0.5017 -0.4903
19995TIP3    H181476   6.675   5.424   1.131 -1.8075  1.8354 -0.8160
19995TIP3    H281477   6.606   5.467   1.258  0.7836 -0.2531  1.4251
19996TIP3   OH281478   2.070   1.800   6.487  0.3502  0.1171  0.2457
19996TIP3    H181479   2.151   1.783   6.535 -0.1745 -1.8482  0.5431
19996TIP3    H281480   2.061   1.725   6.428  0.4528  1.9706 -2.2821
19997TIP3   OH281481   3.223   4.839   4.139  0.0347  0.4704 -0.2629
19997TIP3    H181482   3.299   4.810   4.090  0.8229  0.3185  1.0042
19997TIP3    H281483   3.161   4.765   4.133 -0.0550  0.6203 -1.3411
19998TIP3   OH281484   3.161   3.743   4.376 -0.0149  0.2392  0.4698
19998TIP3    H181485   3.118   3.797   4.443  1.2559  1.6882  0.1574
19998TIP3    H281486   3.230   3.799   4.340  0.6350 -1.2209 -0.6560
19999TIP3   OH281487   5.684   6.798   2.098 -0.4468  0.4294 -0.3913
19999TIP3    H181488   5.715   6.786   2.188 -3.2197  0.0001  0.6209
19999TIP3    H281489   5.728   6.877   2.068  1.5265 -0.1312  0.8529
20000TIP3   OH281490   2.937   1.962  10.768 -0.6039  0.2175 -0.1140
20000TIP3    H181491   2.995   1.897  10.729 -1.7142  0.0825 -1.6239
20000TIP3    H281492   2.912   2.019  10.695 -0.2606  1.9171  1.0186
20001TIP3   OH281493   2.143   0.383   4.316 -0.8710  0.0046 -0.3353
20001TIP3    H181494   2.070   0.330   4.349 -0.1805 -0.9510 -0.3049
20001TIP3    H281495   2.174   0.335   4.239  1.4112 -1.0924  1.1491
20002TIP3   OH281496   2.766   6.714  14.212 -0.4118 -0.3491 -0.3356
20002TIP3    H181497   2.858   6.708  14.186  0.1540 -0.9109  1.6219
20002TIP3    H281498   2.760   6.799  14.257 -0.8360 -0.3564 -0.3747
20003TIP3   OH281499   3.749   0.741   6.305 -0.1655  0.8389  0.5804
20003TIP3    H181500   3.681   0.711   6.246 -1.0024  1.1403  1.3605
20003TIP3    H281501   3.750   0.836   6.293  1.5597  0.6851 -0.9203
20004TIP3   OH281502   5.405   0.826   4.211 -0.2129 -0.6639 -0.5177
20004TIP3    H181503   5.455   0.807   4.291 -1.0317 -1.1285 -0.1034
20004TIP3    H281504   5.472   0.835   4.143  0.5530  0.4446  0.3420
20005TIP3   OH281505   2.634   3.179  15.995 -0.5354 -0.3382 -0.2051
20005TIP3    H181506   2.671   3.207  16.079  0.4655  1.2172 -1.1274
20005TIP3    H281507   2.661   3.087  15.987 -0.3194 -0.4040  0.9824
20006TIP3   OH281508   0.254   3.888  14.260 -0.2686 -0.0565  0.1570
20006TIP3    H181509   0.335   3.908  14.214  0.5837 -3.1492  0.0914
20006TIP3    H281510   0.186   3.896  14.193  0.2394  0.6812 -0.2802
20007TIP3   OH281511   2.670   5.337  12.011  1.1222  0.1232 -0.3139
20007TIP3    H181512   2.675   5.253  12.057  1.7220  1.0658  1.3973
20007TIP3    H281513   2.761   5.366  12.004  0.8221  1.2686  0.3357
20008TIP3   OH281514   0.616   4.073  15.574  0.8219  0.5027 -0.1456
20008TIP3    H181515   0.632   4.166  15.592  0.5386  0.5747 -0.2512
20008TIP3    H281516   0.529   4.072  15.534  0.9575  0.2236 -0.4370
20009TIP3   OH281517   4.106   1.830   3.584 -0.8545 -0.2651  0.1194
20009TIP3    H181518   4.075   1.844   3.494  1.0614  0.3551 -0.5049
20009TIP3    H281519   4.108   1.734   3.593 -0.0011 -0.3833 -0.9498
20010TIP3   OH281520   0.278   4.616   3.150 -0.3707  0.7683  0.0018
20010TIP3    H181521   0.262   4.651   3.237  0.6020  0.7082  0.2223
20010TIP3    H281522   0.360   4.658   3.122 -1.0681  1.3678 -1.2034
20011TIP3   OH281523   5.316   6.392   2.074 -0.1680  0.1893  0.4433
20011TIP3    H181524   5.284   6.304   2.093  1.3148 -0.0773  1.8755
20011TIP3    H281525   5.272   6.448   2.138  0.2994  0.2074  0.7499
20012TIP3   OH281526   1.064   1.052   2.195  0.0443 -0.0460 -0.1475
20012TIP3    H181527   1.008   0.985   2.155  1.9256 -1.5525 -0.3970
20012TIP3    H281528   1.097   1.102   2.120  0.7279 -0.5682 -0.2069
20013TIP3   OH281529   2.717   2.823   6.421 -0.4810 -0.6894  0.0691
20013TIP3    H181530   2.757   2.910   6.424  0.6764 -1.2170  0.7909
20013TIP3    H281531   2.768   2.776   6.355 -1.4430 -0.6775 -0.7054
20014TIP3   OH281532   6.791   3.528  11.382 -0.5293 -0.2260  0.1150
20014TIP3    H181533   6.696   3.534  11.373 -0.4734  0.6339  0.0145
20014TIP3    H281534   6.814   3.595  11.446 -0.0791 -1.0592  0.8599
20015TIP3   OH281535   6.332   4.229  13.784  0.6957 -0.0028  0.8400
20015TIP3    H181536   6.270   4.178  13.732  0.7526  0.0433  0.7280
20015TIP3    H281537   6.313   4.204  13.875  1.1064 -0.6609  0.7495
20016TIP3   OH281538   6.694   0.424  12.168  0.4487  0.3588 -0.4681
20016TIP3    H181539   6.619   0.484  12.171 -1.2735 -1.7007 -0.2980
20016TIP3    H281540   6.689   0.376  12.251  1.9898  0.1658 -0.4598
20017TIP3   OH281541   4.219   6.258   5.328  0.8666  0.1672  0.5438
20017TIP3    H181542   4.307   6.271   5.293  0.6150 -0.0833 -0.1995
20017TIP3    H281543   4.232   6.247   5.422  1.7562 -1.1622  0.2924
20018TIP3   OH281544   2.781   3.687  16.442  0.0289  0.3530 -0.8170
20018TIP3    H181545   2.865   3.734  16.440  0.3855 -0.2286 -0.0036
20018TIP3    H281546   2.773   3.648  16.355  0.9519 -0.1722 -0.6797
20019TIP3   OH281547   0.272   0.997  12.816  0.5413 -0.1956  0.0878
20019TIP3    H181548   0.276   0.957  12.729 -1.2113  1.4095 -0.8117
20019TIP3    H281549   0.179   0.998  12.838  0.8637  0.3581  1.5547
20020TIP3   OH281550   4.749   3.758   1.083  0.5193 -0.3878 -0.4025
20020TIP3    H181551   4.721   3.785   1.170  1.1207 -2.3657  0.4727
20020TIP3    H281552   4.781   3.838   1.042 -2.7442  1.2696 -0.0732
20021TIP3   OH281553   1.290   1.139  14.736 -0.1810  0.1810 -0.0023
20021TIP3    H181554   1.203   1.151  14.775  0.1667 -0.3769  0.9695
20021TIP3    H281555   1.273   1.133  14.642 -0.9694  2.2055 -0.0344
20022TIP3   OH281556   4.462   1.723  15.734  0.0631 -0.0223  0.0162
20022TIP3    H181557   4.370   1.730  15.760 -0.4880 -1.1541 -1.4937
20022TIP3    H281558   4.478   1.629  15.725  1.9831  0.0169  2.1682
20023TIP3   OH281559   3.976   4.556   0.974 -0.0238 -0.4832  0.3547
20023TIP3    H181560   3.979   4.505   1.056  0.0288 -0.7682  0.1754
20023TIP3    H281561   3.883   4.578   0.963 -0.0878 -0.7915  0.2782
20024TIP3   OH281562   3.356   2.942  17.042  0.1030  0.2356 -0.4535
20024TIP3    H181563   3.330   3.004  17.111  0.2428 -1.1819  0.9163
20024TIP3    H281564   3.279   2.935  16.986  0.1602  1.8087 -0.7985
20025TIP3   OH281565   5.984   4.907   5.765  0.2274  0.2750 -0.5870
20025TIP3    H181566   5.908   4.903   5.822 -0.8652  0.4138 -1.9730
20025TIP3    H281567   6.025   4.991   5.785  1.9960 -1.1642  2.5054
20026TIP3   OH281568   1.508   5.613   3.048  0.4638 -0.2392  0.2951
20026TIP3    H181569   1.518   5.525   3.012 -1.8290 -1.0124  1.2757
20026TIP3    H281570   1.440   5.653   2.995  0.6019  0.4644  0.6372
20027TIP3   OH281571   2.084   0.789   2.552 -0.5028  0.2401 -0.4067
20027TIP3    H181572   2.144   0.715   2.552 -0.4963  0.2373  0.2340
20027TIP3    H281573   2.014   0.764   2.492  0.4609  0.5197 -1.6716
20028TIP3   OH281574   3.004   5.807  12.331 -0.4531 -0.4598  0.6093
20028TIP3    H181575   3.026   5.792  12.423  1.2081  0.9634  0.4836
20028TIP3    H281576   3.086   5.834  12.290 -1.3894  0.0172 -1.0643
20029TIP3   OH281577   1.177   1.428  16.038  0.1997 -0.7323  0.6230
20029TIP3    H181578   1.092   1.401  16.002 -0.2475  1.1964  0.0840
20029TIP3    H281579   1.159   1.512  16.080  1.5029 -1.1545  2.0901
20030TIP3   OH281580   1.195   1.844  13.163  0.6271  0.3176  0.7281
20030TIP3    H181581   1.196   1.924  13.216  0.8532  0.8797 -0.0976
20030TIP3    H281582   1.197   1.876  13.072 -0.8505 -0.5876  0.3383
20031TIP3   OH281583   0.382   6.028   4.086  0.4763 -0.0740  0.5842
20031TIP3    H181584   0.312   5.966   4.106  0.3944  0.2334  1.2792
20031TIP3    H281585   0.403   6.068   4.170 -0.4947  1.9361 -0.0581
20032TIP3   OH281586   1.921   6.688   5.376 -0.1311  0.4183  0.3656
20032TIP3    H181587   1.986   6.677   5.307  0.6644  1.0874  0.9815
20032TIP3    H281588   1.969   6.672   5.457 -0.9212  0.1772  0.8058
20033TIP3   OH281589   6.743   4.857   5.364  0.0720  0.1440  0.1450
20033TIP3    H181590   6.799   4.798   5.312  1.6326  2.2197 -0.6933
20033TIP3    H281591   6.658   4.854   5.320  0.3287 -0.9137 -0.3100
20034TIP3   OH281592   4.737   1.816  15.425  0.1338 -0.6150  0.6057
20034TIP3    H181593   4.726   1.773  15.510 -2.6827  0.2686  0.7951
20034TIP3    H281594   4.810   1.876  15.437 -0.8786  0.2734  2.8123
20035TIP3   OH281595   3.378   1.293  15.047 -0.4466 -0.0024  0.2587
20035TIP3    H181596   3.317   1.353  15.091 -1.6606  0.8867 -2.4305
20035TIP3    H281597   3.322   1.240  14.990  1.0532 -1.0287 -0.3116
20036TIP3   OH281598   6.571   2.309  16.477 -0.1352 -0.7898 -1.0029
20036TIP3    H181599   6.562   2.224  16.519 -0.0035  0.5990  2.0449
20036TIP3    H281600   6.665   2.321  16.466  0.0138 -0.1207  0.7287
20037TIP3   OH281601   4.469   5.424   2.782  0.3484 -0.5143  0.1703
20037TIP3    H181602   4.469   5.344   2.835  0.2847  0.1030  1.1277
20037TIP3    H281603   4.468   5.495   2.846 -2.1809  0.2931 -0.6495
20038TIP3   OH281604   5.271   6.581  14.541  0.1470 -0.3526  0.2589
20038TIP3    H181605   5.340   6.571  14.475 -2.5957  0.2860 -2.9759
20038TIP3    H281606   5.209   6.510  14.521 -1.8664  1.2318  0.6251
20039TIP3   OH281607   1.406   1.728  15.536 -0.0218 -0.0252  0.2835
20039TIP3    H181608   1.392   1.643  15.579 -1.1686 -1.3771 -2.5176
20039TIP3    H281609   1.483   1.714  15.480 -1.2458  0.1235 -1.5327
20040TIP3   OH281610   5.435   4.505   5.982  0.4777 -0.4654  0.3513
20040TIP3    H181611   5.396   4.552   6.056 -0.0585  0.3884 -0.4483
20040TIP3    H281612   5.526   4.493   6.007  0.1835 -0.6647  1.3780
20041TIP3   OH281613   4.603   0.703   2.663  0.6543 -0.7448  0.3393
20041TIP3    H181614   4.662   0.641   2.620  0.9062  1.1665 -2.3513
20041TIP3    H281615   4.659   0.778   2.683  0.0673 -0.7620  2.2025
20042TIP3   OH281616   6.710   0.072  14.278 -0.2159  0.0146  0.0090
20042TIP3    H181617   6.783   0.133  14.267 -0.5439  0.1061 -2.1952
20042TIP3    H281618   6.751  -0.014  14.280 -0.0252  0.0620 -1.2504
20043TIP3   OH281619   4.374   3.843  11.613 -0.0477  0.1693 -0.2564
20043TIP3    H181620   4.288   3.883  11.621  0.3004  0.8167  0.4147
20043TIP3    H281621   4.372   3.770  11.675 -1.3886 -2.2300 -2.9250
20044TIP3   OH281622   6.365   2.329   0.860 -0.3948 -0.9588  0.3774
20044TIP3    H181623   6.345   2.273   0.785  0.5197  0.0360 -0.6393
20044TIP3    H281624   6.340   2.276   0.936 -0.0783 -2.5201 -0.5557
20045TIP3   OH281625   1.051   5.107  13.979  0.3459 -0.3617 -0.5980
20045TIP3    H181626   1.018   5.195  13.965 -0.9068 -0.9328 -1.4742
20045TIP3    H281627   1.007   5.076  14.058 -0.6884 -0.8436 -1.3333
20046TIP3   OH281628   1.667   4.539   5.992 -0.3746 -0.1165  0.2691
20046TIP3    H181629   1.696   4.627   5.971  1.1946 -0.3188  1.4060
20046TIP3    H281630   1.602   4.551   6.062  1.1105  0.0955  1.6706
20047TIP3   OH281631   0.300   3.529  14.489  0.2499 -0.2276  0.6642
20047TIP3    H181632   0.265   3.617  14.501  1.5952  0.4478 -0.2043
20047TIP3    H281633   0.345   3.510  14.572 -0.3355 -0.2575  0.9845
20048TIP3   OH281634   1.748   3.969   2.695 -0.3277 -0.1070 -0.3911
20048TIP3    H181635   1.777   3.880   2.673  0.7790  0.1513 -0.0243
20048TIP3    H281636   1.821   4.025   2.670 -0.0785  0.4695  1.4518
20049TIP3   OH281637   1.340   0.899   1.760 -0.5115 -0.1093  0.3173
20049TIP3    H181638   1.246   0.912   1.776 -0.7395 -0.6413 -0.5555
20049TIP3    H281639   1.352   0.804   1.765  0.3116  0.0530  2.1226
20050TIP3   OH281640   4.063   4.423  13.808  0.1134 -0.2619 -0.1131
20050TIP3    H181641   4.091   4.385  13.891  1.6040  1.5998  0.2935
20050TIP3    H281642   4.123   4.384  13.743 -0.6587 -1.2503 -0.2582
20051TIP3   OH281643   2.355   0.884  11.621  0.1139  0.6871  0.1973
20051TIP3    H181644   2.303   0.820  11.668 -0.5538  0.7867 -0.3864
20051TIP3    H281645   2.324   0.878  11.530  1.4256  0.4317 -0.2598
20052TIP3   OH281646   4.946   0.392  14.344 -0.2810  0.1256 -0.6162
20052TIP3    H181647   4.929   0.311  14.392  1.6153 -0.5996 -1.0523
20052TIP3    H281648   4.863   0.414  14.303 -1.0816 -1.0601  0.2931
20053TIP3   OH281649   5.320   0.716   3.851  0.4512 -0.2197 -0.0279
20053TIP3    H181650   5.294   0.752   3.766 -0.4091  0.7179  0.6106
20053TIP3    H281651   5.351   0.628   3.831 -0.4095 -0.2766 -1.2312
20054TIP3   OH281652   3.109   1.870  13.288 -0.3696  0.3163 -0.2579
20054TIP3    H181653   3.185   1.882  13.344 -0.2974  1.3565 -0.5733
20054TIP3    H281654   3.091   1.776  13.293 -0.6046  0.4336  1.8131
20055TIP3   OH281655   6.452   0.006   5.211  0.3792  0.0833  0.0275
20055TIP3    H181656   6.442   0.097   5.182  3.1883  0.3452 -0.4256
20055TIP3    H281657   6.422   0.007   5.302 -0.2324  1.3030 -0.1589
20056TIP3   OH281658   4.435   0.985   1.010 -0.1317 -0.0844 -0.4462
20056TIP3    H181659   4.362   1.044   1.032 -0.1704  0.0694 -0.9874
20056TIP3    H281660   4.481   0.973   1.093 -0.4429  0.2704 -0.2167
20057TIP3   OH281661   1.590   1.167   0.809  0.6644  0.0060  0.3598
20057TIP3    H181662   1.528   1.227   0.769  0.1781 -0.2982  0.6463
20057TIP3    H281663   1.641   1.132   0.736  1.3244  1.1759  0.2463
20058TIP3   OH281664   2.236   0.019   6.514 -0.4522  0.1290 -0.2617
20058TIP3    H181665   2.247  -0.064   6.467  0.2040 -0.5144  0.9843
20058TIP3    H281666   2.314   0.070   6.490  0.4719 -0.6473  0.9854
20059TIP3   OH281667   4.414   2.555  15.858 -0.3148  0.0268  0.3713
20059TIP3    H181668   4.496   2.546  15.810  0.6079  0.2137  1.8625
20059TIP3    H281669   4.382   2.465  15.867  1.2590 -0.4034  2.2985
20060TIP3   OH281670   2.571   5.141  11.085  0.1091 -0.7490 -0.4971
20060TIP3    H181671   2.603   5.208  11.146 -0.3267 -1.5781  0.6755
20060TIP3    H281672   2.496   5.102  11.130 -0.3083 -1.2813 -1.6405
20061TIP3   OH281673   0.256   2.301  16.367  0.1501 -0.0466  0.4291
20061TIP3    H181674   0.299   2.384  16.346  0.3511 -0.1970  0.2419
20061TIP3    H281675   0.228   2.266  16.282 -0.7316  0.2563  0.5827
20062TIP3   OH281676   3.021   6.171   3.415 -0.1968 -0.5386 -0.8688
20062TIP3    H181677   3.086   6.185   3.484  0.5206  0.6362 -1.7440
20062TIP3    H281678   3.001   6.077   3.419  2.3344 -1.1503 -1.2407
20063TIP3   OH281679   2.988   6.244  11.517  0.1483 -0.2752  0.1668
20063TIP3    H181680   2.901   6.209  11.499  0.8908 -1.9423 -0.3644
20063TIP3    H281681   2.985   6.334  11.482 -0.4806 -1.2668 -2.6135
20064TIP3   OH281682   5.834   0.691   1.028 -0.4864 -1.0458  0.2413
20064TIP3    H181683   5.885   0.712   0.949  0.3315 -0.4837  0.8930
20064TIP3    H281684   5.743   0.704   1.002 -0.2202 -0.7697 -0.5885
20065TIP3   OH281685   3.793   5.806   3.190 -0.6690 -0.0300 -0.1440
20065TIP3    H181686   3.735   5.730   3.186 -2.2371  1.1485 -0.8236
20065TIP3    H281687   3.774   5.855   3.110  0.5916  0.8832  0.0868
20066TIP3   OH281688   3.811   6.053   0.250  0.2504 -0.3651  0.0974
20066TIP3    H181689   3.836   5.985   0.188  1.8227  0.3334 -0.0907
20066TIP3    H281690   3.720   6.072   0.230  0.7690  0.0275 -2.2246
20067TIP3   OH281691   6.285   2.623  11.155 -0.3679  0.3163 -0.1723
20067TIP3    H181692   6.244   2.544  11.117  2.6142 -0.2512 -2.5788
20067TIP3    H281693   6.350   2.589  11.216 -1.5914  1.1347  1.6775
20068TIP3   OH281694   2.048   0.005  11.278  0.3261 -0.5306  0.8260
20068TIP3    H181695   2.037   0.052  11.361 -0.3009 -2.6310  2.0214
20068TIP3    H281696   1.961  -0.032  11.260  0.1808  0.7145 -1.3640
20069TIP3   OH281697   4.661   1.375  12.507  0.0220  0.2256 -0.0511
20069TIP3    H181698   4.754   1.353  12.510 -0.1592 -0.7769 -1.0976
20069TIP3    H281699   4.646   1.407  12.418 -0.9351 -1.1891 -0.4468
20070TIP3   OH281700   0.876   5.513  14.921  0.5111 -0.4000  0.3704
20070TIP3    H181701   0.894   5.509  14.827  0.2455 -0.3631  0.3195
20070TIP3    H281702   0.783   5.495  14.930  0.5499 -0.4897  0.6355
20071TIP3   OH281703   0.558   4.237  13.896  0.2668  0.7478 -0.2197
20071TIP3    H181704   0.531   4.303  13.832 -0.6485  0.2561 -0.3507
20071TIP3    H281705   0.503   4.161  13.878  0.1576  0.5133  0.9936
20072TIP3   OH281706   5.532   4.358   1.320  0.5761  0.1809  0.9080
20072TIP3    H181707   5.445   4.343   1.284  1.3235  1.0950 -1.4789
20072TIP3    H281708   5.519   4.426   1.386 -0.6986 -0.8075  1.7318
20073TIP3   OH281709   4.240   4.450  11.842 -0.4895  0.1859 -0.0401
20073TIP3    H181710   4.240   4.488  11.930  1.8588 -3.6658  1.8986
20073TIP3    H281711   4.312   4.494  11.797 -0.9994  1.4162  0.2971
20074TIP3   OH281712   0.437   1.536   4.910 -0.2366  0.0398  0.6425
20074TIP3    H181713   0.406   1.484   4.984 -0.6119 -0.6220  0.0305
20074TIP3    H281714   0.517   1.578   4.942  0.9103 -2.0808  0.6720
20075TIP3   OH281715   5.573   6.269   2.410  0.1123 -0.5085 -0.0454
20075TIP3    H181716   5.532   6.301   2.490  1.4455  3.6615 -0.8143
20075TIP3    H281717   5.585   6.175   2.426 -2.0230 -0.3764  3.5021
20076TIP3   OH281718   2.148   6.555  16.956 -0.3978  0.1871 -0.0818
20076TIP3    H181719   2.124   6.644  16.981  1.0817  0.5666  0.0576
20076TIP3    H281720   2.243   6.552  16.966 -0.1263 -0.6635 -2.3886
20077TIP3   OH281721   6.607   4.953  10.237 -0.2983 -0.5291  0.1876
20077TIP3    H181722   6.696   4.987  10.234 -0.0376 -1.1143  0.7947
20077TIP3    H281723   6.570   4.972  10.151  0.1651  0.3666  0.1721
20078TIP3   OH281724   3.859   5.806   0.818  0.4367  0.6699 -0.1932
20078TIP3    H181725   3.799   5.861   0.869  0.9108  0.8938  0.1208
20078TIP3    H281726   3.896   5.865   0.753  0.0252  0.4408 -0.6494
20079TIP3   OH281727   0.450   4.919   3.723  0.0241  0.3439  0.2104
20079TIP3    H181728   0.398   4.880   3.653  2.7550 -0.7373 -1.3382
20079TIP3    H281729   0.494   4.993   3.683 -0.5709  1.5127  1.6071
20080TIP3   OH281730   0.048   4.529  15.538 -0.3561 -0.3695  0.3333
20080TIP3    H181731  -0.035   4.535  15.587  0.1521 -0.0811  1.1797
20080TIP3    H281732   0.022   4.536  15.446 -1.1986  0.4770  0.6202
20081TIP3   OH281733   0.392   3.883   6.225  0.0788  0.0761  0.2298
20081TIP3    H181734   0.431   3.807   6.269  2.0825  0.8246 -0.1455
20081TIP3    H281735   0.304   3.888   6.261 -0.3007 -2.6854 -0.0763
20082TIP3   OH281736   3.961   1.274   0.818  0.0454  0.1712  0.5119
20082TIP3    H181737   3.959   1.181   0.841  3.5896 -0.1166  0.2047
20082TIP3    H281738   3.938   1.319   0.900 -3.5306 -0.8170  0.2379
20083TIP3   OH281739   3.380   4.912   2.201 -0.6410 -0.0434 -0.3246
20083TIP3    H181740   3.389   5.007   2.204  1.1118 -0.1951  0.1157
20083TIP3    H281741   3.457   4.879   2.246 -0.7588 -1.6979 -1.2502
20084TIP3   OH281742   2.707   2.841  11.227  0.3470  0.3726 -0.2949
20084TIP3    H181743   2.695   2.758  11.273  0.4928  0.1769 -0.6074
20084TIP3    H281744   2.744   2.816  11.142 -0.5027  0.6685 -0.7714
20085TIP3   OH281745   3.135   4.747  13.037 -0.1610  0.0481  0.3604
20085TIP3    H181746   3.182   4.826  13.064 -1.0898  0.4381  0.8827
20085TIP3    H281747   3.140   4.689  13.114  1.5391 -0.9288 -0.4121
20086TIP3   OH281748   0.658   1.413  11.706 -0.1409  0.2723 -0.2824
20086TIP3    H181749   0.751   1.410  11.686 -0.1189 -1.5638 -0.0944
20086TIP3    H281750   0.653   1.455  11.792  0.5454  0.1096 -0.1562
20087TIP3   OH281751   6.656   1.368  12.533 -0.3271  0.3594  0.2381
20087TIP3    H181752   6.708   1.296  12.568  0.3538  0.7458  0.0451
20087TIP3    H281753   6.638   1.342  12.442  1.9570  1.4684 -0.5997
20088TIP3   OH281754   5.194   1.869   6.477 -0.6452 -0.1088 -0.2422
20088TIP3    H181755   5.099   1.876   6.468 -0.5619  0.5157 -0.6775
20088TIP3    H281756   5.210   1.775   6.489 -1.3171 -0.2141 -0.1466
20089TIP3   OH281757   6.225   3.361   5.618 -0.1451 -0.1428  0.1423
20089TIP3    H181758   6.153   3.349   5.556  0.0473  1.3276 -0.4046
20089TIP3    H281759   6.182   3.367   5.703 -0.6029 -0.0243 -0.0922
20090TIP3   OH281760   4.121   0.446   1.035 -0.1821 -0.2369 -0.0515
20090TIP3    H181761   4.118   0.471   1.127 -0.4832 -0.0565 -0.1079
20090TIP3    H281762   4.070   0.366   1.030 -1.7575  0.7387 -0.3600
20091TIP3   OH281763   1.064   0.329  15.351  0.3687  0.0899 -0.4380
20091TIP3    H181764   1.083   0.235  15.354  0.3384 -0.0483 -3.0384
20091TIP3    H281765   0.977   0.335  15.313  0.5981  1.1924 -0.8200
20092TIP3   OH281766   3.093   3.020   3.887 -0.3548  0.1868 -0.2143
20092TIP3    H181767   3.054   3.012   3.974  0.7694  0.5433  0.3320
20092TIP3    H281768   3.169   3.077   3.899 -0.4024  0.5633 -1.5030
20093TIP3   OH281769   3.626   1.500   0.265  0.3342  0.5353  0.1261
20093TIP3    H181770   3.651   1.480   0.354  1.9180  0.6657 -0.2687
20093TIP3    H281771   3.698   1.552   0.230 -0.0990  0.2129 -1.3319
20094TIP3   OH281772   2.140   4.176   2.801 -0.3265 -0.3255  0.6969
20094TIP3    H181773   2.220   4.124   2.801  0.9039  1.5014  0.0778
20094TIP3    H281774   2.084   4.133   2.736  1.1933 -0.1077 -0.8254
20095TIP3   OH281775   5.541   6.299  15.515  0.0073  0.2114 -0.0952
20095TIP3    H181776   5.598   6.284  15.590  1.6172  3.2303 -0.5670
20095TIP3    H281777   5.591   6.265  15.440  0.6137  1.5517 -0.3297
20096TIP3   OH281778   3.821   0.882  10.815 -0.5683  0.4730  0.3136
20096TIP3    H181779   3.874   0.856  10.890 -0.2409  1.0025  0.2714
20096TIP3    H281780   3.764   0.952  10.849  0.2334  1.3707 -0.1480
20097TIP3   OH281781   4.501   5.717  15.900 -0.3597 -0.3841 -0.3623
20097TIP3    H181782   4.576   5.661  15.922 -0.2130 -0.2240 -0.4535
20097TIP3    H281783   4.433   5.656  15.873  0.4576 -0.4305 -2.4892
20098TIP3   OH281784   2.875   2.213  11.019 -0.2988  0.1119  0.5685
20098TIP3    H181785   2.964   2.179  11.026 -0.2361 -1.2039 -3.7354
20098TIP3    H281786   2.819   2.137  11.035 -0.3337 -0.6703 -2.6240
20099TIP3   OH281787   1.928   5.942   4.844 -0.7360  0.6413  0.0446
20099TIP3    H181788   1.993   5.946   4.914 -0.3006  2.0228 -0.4045
20099TIP3    H281789   1.908   5.849   4.836  0.6145  0.2542  0.7198
20100TIP3   OH281790   0.165   2.417  15.617 -0.4795 -0.2290 -0.2779
20100TIP3    H181791   0.143   2.339  15.566  0.7055 -0.4887 -0.4120
20100TIP3    H281792   0.226   2.386  15.684 -0.8388  0.3935  0.3587
20101TIP3   OH281793   5.555   5.941  15.927 -0.2501 -0.2500 -0.4671
20101TIP3    H181794   5.559   5.855  15.967 -0.5598 -0.7666 -1.5104
20101TIP3    H281795   5.601   5.930  15.843  1.1881  1.0188  0.0933
20102TIP3   OH281796   6.481   2.041  11.960  0.4854 -0.2422  0.1353
20102TIP3    H181797   6.543   2.095  11.911  0.7793 -1.2344 -0.6164
20102TIP3    H281798   6.533   2.006  12.032  0.5389 -0.2829  0.0771
20103TIP3   OH281799   1.313   4.740   0.907  0.0017 -0.5466  0.1768
20103TIP3    H181800   1.378   4.726   0.976 -1.4417  0.3125  1.7569
20103TIP3    H281801   1.231   4.756   0.953 -1.1253 -0.4437 -1.7546
20104TIP3   OH281802   0.305   4.272  14.043  0.1401  0.0092  0.1765
20104TIP3    H181803   0.270   4.183  14.034 -1.1605  0.6733 -2.3700
20104TIP3    H281804   0.393   4.266  14.006  0.7209 -0.5328  1.5849
20105TIP3   OH281805   0.561   0.630  14.950 -0.2747 -0.7812  0.0312
20105TIP3    H181806   0.516   0.548  14.964 -0.4437 -0.5868  0.6452
20105TIP3    H281807   0.636   0.627  15.010  1.3835 -1.7112 -1.9362
20106TIP3   OH281808   1.455   3.866  11.575 -0.5235  0.4215  0.0869
20106TIP3    H181809   1.496   3.793  11.528  3.0824  1.4339  1.2819
20106TIP3    H281810   1.426   3.827  11.657 -1.3917 -0.2006 -0.4951
20107TIP3   OH281811   4.216   2.062  15.249 -0.9536 -0.3167 -0.2203
20107TIP3    H181812   4.285   2.022  15.303  0.8552  0.6922 -1.6595
20107TIP3    H281813   4.206   2.001  15.176 -0.5748  0.2032 -0.7151
20108TIP3   OH281814   4.355   6.137  12.338  0.5274  0.3831 -0.1163
20108TIP3    H181815   4.298   6.077  12.289 -1.5034  0.2511  2.2070
20108TIP3    H281816   4.365   6.212  12.281  0.2977 -0.7571 -1.7209
20109TIP3   OH281817   1.882   3.923   1.254  0.2206  0.3286 -0.8093
20109TIP3    H181818   1.836   4.005   1.234 -2.2524 -0.7521  0.0360
20109TIP3    H281819   1.812   3.861   1.275  2.0360 -1.9160 -1.0418
20110TIP3   OH281820   5.696   1.176  13.815  0.3398  0.1348 -0.1408
20110TIP3    H181821   5.620   1.231  13.833 -0.4586 -1.8055  3.3274
20110TIP3    H281822   5.769   1.222  13.858  1.3349  2.0067 -3.4809
20111TIP3   OH281823   6.005   5.853  15.024  0.7016 -0.0727 -0.1772
20111TIP3    H181824   5.964   5.804  15.096  1.0024 -0.3288 -0.1796
20111TIP3    H281825   5.980   5.804  14.945  0.5689  0.0739 -0.2258
20112TIP3   OH281826   3.358   5.685   4.029  0.6810 -0.2667  0.9376
20112TIP3    H181827   3.447   5.677   3.994  1.6933  0.5035  3.1504
20112TIP3    H281828   3.354   5.622   4.100 -1.0931 -1.3338 -0.0273
20113TIP3   OH281829   1.622   6.632   0.704 -0.5290  0.5337  0.6077
20113TIP3    H181830   1.606   6.663   0.615  0.8588  0.1206  0.1932
20113TIP3    H281831   1.543   6.658   0.753 -0.6225  2.2048 -0.3494
20114TIP3   OH281832   3.693   4.906   3.724  0.0946  0.0601  0.2176
20114TIP3    H181833   3.711   4.981   3.780 -0.0492 -1.6700  2.7284
20114TIP3    H281834   3.764   4.907   3.659  0.9587  1.4600  1.1341
20115TIP3   OH281835   3.961   6.365  14.072  0.1208  0.2541 -0.4076
20115TIP3    H181836   4.027   6.339  14.136  1.4332  1.5947 -1.1648
20115TIP3    H281837   3.890   6.301  14.083  1.4754 -1.1473  0.5267
20116TIP3   OH281838   6.449   1.735   0.662 -0.5270 -0.4242  0.3650
20116TIP3    H181839   6.357   1.718   0.682 -0.8357  0.2936 -0.3832
20116TIP3    H281840   6.452   1.742   0.567  0.0376  0.9668  0.4579
20117TIP3   OH281841   6.560   0.845  15.961  0.0225 -0.0929  0.1207
20117TIP3    H181842   6.464   0.846  15.958  0.0539  0.0132 -1.5700
20117TIP3    H281843   6.586   0.921  15.910  1.0207 -0.4391  0.1035
20118TIP3   OH281844   5.521   3.878   4.748 -0.9900 -0.1023 -0.1430
20118TIP3    H181845   5.455   3.811   4.727  1.2624 -2.4683 -0.1276
20118TIP3    H281846   5.524   3.881   4.843 -0.0362 -1.1356 -0.1272
20119TIP3   OH281847   2.442   5.574  15.118  0.2453 -0.5473  0.2354
20119TIP3    H181848   2.511   5.616  15.066  0.2845  0.0406  0.7556
20119TIP3    H281849   2.366   5.631  15.108 -0.0439 -0.9618  0.0195
20120TIP3   OH281850   5.056   3.293  16.438 -0.2719 -0.3453 -0.5586
20120TIP3    H181851   5.136   3.266  16.392 -0.1316 -1.8577  0.4866
20120TIP3    H281852   5.008   3.211  16.451 -0.6004  0.1112  1.4164
20121TIP3   OH281853   6.673   0.323  13.919 -0.0347  0.3825  0.3777
20121TIP3    H181854   6.713   0.273  13.990 -0.2749  0.5016  0.5996
20121TIP3    H281855   6.606   0.265  13.883  1.0807 -0.2641 -0.7456
20122TIP3   OH281856   0.221   0.260  12.898 -0.0712 -0.1601  0.3558
20122TIP3    H181857   0.164   0.183  12.907 -0.1938  0.0063  1.1240
20122TIP3    H281858   0.161   0.334  12.900  0.0990 -0.0208  0.2904
20123TIP3   OH281859   0.667   6.565  13.107  0.1731 -0.4087  0.3528
20123TIP3    H181860   0.606   6.602  13.171 -0.6725 -0.7735 -0.2291
20123TIP3    H281861   0.735   6.632  13.098 -0.9590  0.7248 -0.1411
20124TIP3   OH281862   3.620   0.478  10.516 -0.3538 -0.7398  0.3305
20124TIP3    H181863   3.609   0.396  10.562 -0.2532 -1.3808 -0.7456
20124TIP3    H281864   3.660   0.454  10.432 -3.0287 -0.0010 -1.2902
20125TIP3   OH281865   2.269   1.787  11.236  0.0935 -0.0156  0.2295
20125TIP3    H181866   2.224   1.716  11.189  0.2393 -0.6653  1.0479
20125TIP3    H281867   2.211   1.862  11.227 -1.1786 -0.8314  1.2427
20126TIP3   OH281868   1.371   2.591  16.973 -0.2102 -0.3548  0.0214
20126TIP3    H181869   1.323   2.635  17.043 -0.3020 -1.1852  0.4970
20126TIP3    H281870   1.304   2.570  16.908  0.0458  1.4376 -0.8890
20127TIP3   OH281871   4.097   4.607  12.719  0.0965  0.0855  0.2696
20127TIP3    H181872   4.134   4.687  12.682 -0.7888  0.4939  0.2451
20127TIP3    H281873   4.092   4.547  12.645 -0.1594  0.3475  0.0718
20128TIP3   OH281874   0.278   5.548  13.805 -0.1099  0.1922 -0.1380
20128TIP3    H181875   0.367   5.566  13.776  0.1551  0.3438  0.7433
20128TIP3    H281876   0.284   5.467  13.855 -0.2308  0.8269  0.9504
20129TIP3   OH281877   6.781   4.645  11.359 -0.2541  0.3151  0.4368
20129TIP3    H181878   6.833   4.713  11.315 -1.0990  1.9776  1.8662
20129TIP3    H281879   6.717   4.617  11.294  0.9812 -0.1470 -0.6221
20130TIP3   OH281880   5.314   2.965   3.555 -0.0317  0.3745  0.2585
20130TIP3    H181881   5.379   2.989   3.489 -0.5718  1.1401 -0.0079
20130TIP3    H281882   5.365   2.953   3.636  0.3523  1.7892  0.2534
20131TIP3   OH281883   1.407   0.223   4.467  0.4695 -0.2101  0.1681
20131TIP3    H181884   1.352   0.297   4.443  0.2742 -0.0839  0.9893
20131TIP3    H281885   1.386   0.156   4.402 -2.2478 -0.9396  1.6551
20132TIP3   OH281886   2.524   6.230   0.045  0.8184 -0.1359 -0.0015
20132TIP3    H181887   2.586   6.230  -0.028  0.4654 -1.9935 -0.3659
20132TIP3    H281888   2.438   6.225   0.005  0.6108 -1.0120  0.5100
20133TIP3   OH281889   3.294   4.651  15.174 -0.2693  0.0746 -0.1977
20133TIP3    H181890   3.309   4.714  15.245  0.7780 -1.5174  1.0578
20133TIP3    H281891   3.207   4.615  15.192  0.0596 -0.4423  0.4053
20134TIP3   OH281892   0.044   5.942   3.147  0.0048  0.7232  0.8137
20134TIP3    H181893   0.066   6.005   3.215 -1.3532  0.1949  1.7811
20134TIP3    H281894  -0.026   5.985   3.097  0.5197  0.8225  0.1541
20135TIP3   OH281895   0.709   6.838  12.913  0.2058 -0.2110 -0.0086
20135TIP3    H181896   0.800   6.808  12.916  0.4889  0.6617  0.5249
20135TIP3    H281897   0.707   6.912  12.974 -1.2967 -1.3578  1.4163
20136TIP3   OH281898   5.534   2.256   0.207  0.1813  0.3489  0.3319
20136TIP3    H181899   5.573   2.253   0.120 -0.4459 -0.3252  0.0586
20136TIP3    H281900   5.443   2.231   0.193  0.1058  0.1037  1.1952
20137TIP3   OH281901   4.380   6.846   2.177  0.6085 -0.1034  0.1449
20137TIP3    H181902   4.315   6.797   2.227 -0.6142  1.7107  0.4260
20137TIP3    H281903   4.463   6.829   2.222  0.3311 -2.2430 -0.0680
20138TIP3   OH281904   1.818   1.615  14.852 -0.2174 -0.7034  0.0450
20138TIP3    H181905   1.898   1.564  14.858  1.3748  1.6935  0.5746
20138TIP3    H281906   1.818   1.650  14.763  0.4998  1.0124  0.6789
20139TIP3   OH281907   1.191   2.422   3.864 -0.1472 -0.1901  0.5784
20139TIP3    H181908   1.230   2.343   3.826 -0.6265  0.0476 -0.4373
20139TIP3    H281909   1.172   2.478   3.789 -1.7333  0.0147  1.0856
20140TIP3   OH281910   3.888   6.068  15.378  0.2079  0.5183  0.1323
20140TIP3    H181911   3.899   6.144  15.435  2.2887 -0.5447  1.2489
20140TIP3    H281912   3.808   6.025  15.411 -0.7982  1.9942 -0.3039
20141TIP3   OH281913   3.407   0.050  12.523  0.3156 -0.2088 -0.0143
20141TIP3    H181914   3.427  -0.041  12.500  0.1961  0.2880 -2.3453
20141TIP3    H281915   3.314   0.061  12.501  0.1944  0.3386  0.7363
20142TIP3   OH281916   6.003   3.446  11.242 -0.0379  0.0709  0.2684
20142TIP3    H181917   5.956   3.427  11.324 -0.6121 -1.0907 -0.3134
20142TIP3    H281918   5.955   3.520  11.204 -0.6873 -0.3550  0.2467
20143TIP3   OH281919   5.909   4.806  16.061  0.7560 -0.3628 -0.3864
20143TIP3    H181920   5.880   4.719  16.033 -1.4966  0.6744 -1.5277
20143TIP3    H281921   5.850   4.830  16.132  1.4885  0.1594  0.0641
20144TIP3   OH281922   4.176   5.536   5.164 -0.2379  0.1331  0.1053
20144TIP3    H181923   4.187   5.546   5.069 -1.8977 -1.7502 -0.3513
20144TIP3    H281924   4.248   5.478   5.190 -0.8229 -0.8233 -0.3521
20145TIP3   OH281925   5.852   6.389  16.832  0.3169 -0.0597 -0.3468
20145TIP3    H181926   5.910   6.456  16.868 -0.6993  1.3399 -1.2250
20145TIP3    H281927   5.896   6.360  16.752 -0.2943  1.2257 -1.1819
20146TIP3   OH281928   5.410   0.340   4.158 -0.4926 -0.6448  0.3377
20146TIP3    H181929   5.385   0.338   4.251  0.0991  0.9825  0.5569
20146TIP3    H281930   5.400   0.431   4.133 -1.8098 -1.2577 -1.5631
20147TIP3   OH281931   3.886   2.161  15.092 -0.6390  0.5376  0.2977
20147TIP3    H181932   3.844   2.166  15.006 -0.9718  0.3776  0.4533
20147TIP3    H281933   3.817   2.134  15.152 -0.2464 -0.0528  0.4964
20148TIP3   OH281934   0.578   0.452  12.976  0.5606 -0.1541 -0.1118
20148TIP3    H181935   0.667   0.485  12.973  0.1699  0.9177 -0.5887
20148TIP3    H281936   0.587   0.357  12.981  1.7194 -0.1379 -1.3829
20149TIP3   OH281937   6.380   5.687   0.469 -0.1532  0.4631  0.2172
20149TIP3    H181938   6.292   5.715   0.493 -0.9669 -0.9771 -0.8935
20149TIP3    H281939   6.424   5.670   0.552 -1.5766 -0.6219  0.7866
20150TIP3   OH281940   5.582   4.322  12.507  0.3081  0.1560  0.5170
20150TIP3    H181941   5.612   4.405  12.545 -0.0389 -0.0172  1.1884
20150TIP3    H281942   5.517   4.348  12.441 -1.2948  0.3747  2.1010
20151TIP3   OH281943   4.493   2.622  13.454  0.0849 -0.2708 -0.2440
20151TIP3    H181944   4.555   2.692  13.433 -0.8944  0.5237 -0.5666
20151TIP3    H281945   4.410   2.651  13.415 -0.5738 -1.1511  0.4661
20152TIP3   OH281946   5.455   5.521   5.457 -0.1478 -0.1212 -0.2817
20152TIP3    H181947   5.391   5.490   5.393  0.2564  2.3521 -2.0223
20152TIP3    H281948   5.512   5.446   5.471 -1.7114 -1.4906 -0.8993
20153TIP3   OH281949   1.243   2.201  12.524 -0.8574  0.0853 -0.6226
20153TIP3    H181950   1.201   2.117  12.541 -3.2279  1.2092 -0.5973
20153TIP3    H281951   1.262   2.200  12.430  0.9375 -1.2025 -0.2966
20154TIP3   OH281952   2.140   0.930  15.083  0.3426  0.1819 -0.8353
20154TIP3    H181953   2.228   0.949  15.050  0.3023  1.2787 -0.3665
20154TIP3    H281954   2.100   0.873  15.017  0.8572  0.9316 -1.8135
20155TIP3   OH281955   2.459   1.945   5.231 -0.0168  0.2959  0.3049
20155TIP3    H181956   2.449   1.909   5.143 -0.5997 -0.4075  0.6489
20155TIP3    H281957   2.547   1.918   5.258  0.7524  1.7670 -0.6055
20156TIP3   OH281958   6.362   1.359   1.947 -0.4868 -0.4950  0.6107
20156TIP3    H181959   6.308   1.431   1.914  1.7197  0.5040 -1.1147
20156TIP3    H281960   6.423   1.400   2.008 -1.0775 -1.4527  1.8911
20157TIP3   OH281961   1.560   2.405   6.471  0.4363  0.6316 -0.1522
20157TIP3    H181962   1.506   2.401   6.551  0.7672  3.5291  0.3587
20157TIP3    H281963   1.498   2.392   6.400  0.0941 -1.7854  0.5180
20158TIP3   OH281964   2.076   0.565  16.526  0.1329  0.0028 -0.1966
20158TIP3    H181965   2.127   0.495  16.485  1.0798  1.5590 -1.8666
20158TIP3    H281966   2.115   0.576  16.612  0.4775 -0.9816 -0.2119
20159TIP3   OH281967   0.447   0.406  14.050  0.0659 -0.3337  0.4856
20159TIP3    H181968   0.514   0.471  14.071  1.2513 -1.5993  0.7698
20159TIP3    H281969   0.408   0.437  13.968  0.8016  0.5637  0.4603
20160TIP3   OH281970   5.775   0.752   5.567 -0.6169 -0.2114  0.4140
20160TIP3    H181971   5.843   0.721   5.506 -0.3121 -1.9960  1.5961
20160TIP3    H281972   5.816   0.824   5.613 -0.7491  0.9808 -1.2396
20161TIP3   OH281973   3.387   5.309  17.010 -0.0415  0.1351  0.3709
20161TIP3    H181974   3.411   5.292  16.919 -0.1436 -1.8214  0.6522
20161TIP3    H281975   3.418   5.398  17.028  0.9744  0.1411 -1.2402
20162TIP3   OH281976   4.593   6.579   0.964 -0.1323 -0.0304 -0.4990
20162TIP3    H181977   4.577   6.504   0.906 -1.7557  0.8066 -1.1970
20162TIP3    H281978   4.643   6.542   1.037 -0.2160 -1.6329 -1.1959
20163TIP3   OH281979   4.969   6.741  14.704 -0.1076  0.4459 -0.3226
20163TIP3    H181980   4.975   6.652  14.738 -0.5193  0.3794 -0.4187
20163TIP3    H281981   5.033   6.744  14.632 -0.5642  0.0302 -0.7471
20164TIP3   OH281982   6.174   1.433  14.143 -0.5765 -0.2235  0.0757
20164TIP3    H181983   6.257   1.406  14.105  0.1592  3.9818 -1.9497
20164TIP3    H281984   6.199   1.480  14.224 -0.9470  0.7084 -0.3323
20165TIP3   OH281985   2.987   1.463  12.828  0.2620 -0.1443 -0.0144
20165TIP3    H181986   2.894   1.443  12.815  0.8293 -1.9991 -1.7900
20165TIP3    H281987   3.020   1.478  12.739  1.8644 -0.5220  0.4993
20166TIP3   OH281988   5.913   0.752   0.749 -0.2334 -0.4239  0.0248
20166TIP3    H181989   5.946   0.666   0.721 -0.5044 -0.2688 -0.8028
20166TIP3    H281990   5.919   0.806   0.671  0.4472  0.4741  0.6857
20167TIP3   OH281991   4.832   5.164   3.026 -0.0346  0.2596 -0.1374
20167TIP3    H181992   4.817   5.259   3.022 -0.1262  0.2182 -1.1004
20167TIP3    H281993   4.779   5.129   2.955  0.0354 -0.5130  0.1867
20168TIP3   OH281994   5.190   5.558  16.938 -0.8219 -0.2724 -0.1449
20168TIP3    H181995   5.178   5.644  16.898  0.6777  0.1332  0.1949
20168TIP3    H281996   5.108   5.541  16.985 -0.9274  1.2447  0.2614
20169TIP3   OH281997   2.876   3.122   3.109  0.3766 -0.2289  0.2810
20169TIP3    H181998   2.916   3.178   3.043 -0.8772  0.6864  0.2423
20169TIP3    H281999   2.783   3.121   3.086 -0.1563  0.3548  2.1556
20170TIP3   OH282000   1.551   6.517   3.282 -0.1236 -0.6823 -0.6192
20170TIP3    H182001   1.643   6.510   3.255 -0.5754  0.3210 -2.6137
20170TIP3    H282002   1.529   6.429   3.313  0.9581 -1.5346 -2.1092
20171TIP3   OH282003   3.410   1.385   1.997  0.6434 -0.4083 -0.2110
20171TIP3    H182004   3.455   1.469   2.000  0.3066 -0.1893 -0.9716
20171TIP3    H282005   3.408   1.355   2.088  1.5162 -0.0000 -0.0490
20172TIP3   OH282006   5.408   6.260   4.633 -0.2849 -0.8483 -0.4952
20172TIP3    H182007   5.480   6.282   4.575  0.6253 -1.0993  0.4977
20172TIP3    H282008   5.420   6.167   4.652 -0.8959 -0.9043 -0.3482
20173TIP3   OH282009   5.385   3.848  10.687 -0.2739 -0.6298 -0.5569
20173TIP3    H182010   5.463   3.875  10.638  0.9538 -0.6621  1.2930
20173TIP3    H282011   5.312   3.886  10.638  0.8861 -0.4688 -2.2570
20174TIP3   OH282012   1.210   1.673  16.747  0.3794 -0.2627  0.3972
20174TIP3    H182013   1.290   1.650  16.700  1.0198  0.6808  0.9914
20174TIP3    H282014   1.215   1.624  16.829  0.4844  0.0094  0.5545
20175TIP3   OH282015   2.966   1.482  15.114  0.4580  0.1599  0.7955
20175TIP3    H182016   2.879   1.519  15.102  0.6568  0.7923  1.2583
20175TIP3    H282017   3.015   1.509  15.037  0.5981  0.8584  1.1250
20176TIP3   OH282018   0.629   1.534  13.876  0.6251  0.5464  0.2916
20176TIP3    H182019   0.713   1.534  13.831  0.6209 -0.4952  0.2712
20176TIP3    H282020   0.592   1.448  13.859 -1.0840  1.4518 -0.8616
20177TIP3   OH282021   2.492   4.123   4.538  0.1819  0.4129 -0.3633
20177TIP3    H182022   2.468   4.208   4.574 -1.3079  1.0210 -2.6024
20177TIP3    H282023   2.456   4.060   4.601 -2.0566  1.4258 -0.5057
20178TIP3   OH282024   4.804   3.787   2.436  0.2096 -0.6565 -0.2507
20178TIP3    H182025   4.726   3.842   2.432 -1.6431 -3.0195  0.9221
20178TIP3    H282026   4.847   3.812   2.518  1.4895  1.5131 -1.4805
20179TIP3   OH282027   2.522   3.479   4.615 -0.1612  0.0827 -0.6278
20179TIP3    H182028   2.607   3.506   4.651 -1.3771  2.8724  0.3973
20179TIP3    H282029   2.498   3.401   4.665  0.5923  0.8455  0.9974
20180TIP3   OH282030   0.167   2.725  14.664  0.3731  0.7516  0.4892
20180TIP3    H182031   0.073   2.744  14.661  0.2962  0.3899  0.5660
20180TIP3    H282032   0.177   2.666  14.739  0.2396 -1.5414 -1.1790
20181TIP3   OH282033   6.088   3.649   2.770  0.1656  0.9835 -0.0118
20181TIP3    H182034   6.124   3.668   2.857 -1.4169 -0.9127  1.1453
20181TIP3    H282035   6.010   3.705   2.764 -1.3182 -0.8595  1.0450
20182TIP3   OH282036   1.745   6.105  14.600 -0.1903  0.4156 -0.0527
20182TIP3    H182037   1.679   6.070  14.660 -1.6815  0.5503 -1.5330
20182TIP3    H282038   1.825   6.110  14.652 -0.9291 -1.3228  1.3476
20183TIP3   OH282039   5.371   4.993  13.010 -0.3877 -0.5599  0.5304
20183TIP3    H182040   5.375   4.969  13.103  2.0343  0.1140  0.6643
20183TIP3    H282041   5.348   5.086  13.011 -1.3110 -0.7776  0.3883
20184TIP3   OH282042   2.620   3.864   3.204 -0.1485  0.2583  0.4607
20184TIP3    H182043   2.574   3.899   3.279 -0.4606 -1.3523  1.0600
20184TIP3    H282044   2.604   3.770   3.207  3.1230 -0.4196  0.6889
20185TIP3   OH282045   6.390   1.811  16.061  0.3145  0.0752  0.1086
20185TIP3    H182046   6.435   1.727  16.057 -1.5524 -0.9791 -0.3953
20185TIP3    H282047   6.359   1.818  16.152  0.5996  0.2995  0.1891
20186TIP3   OH282048   6.321   4.350   4.114  0.3996 -0.5185 -0.4391
20186TIP3    H182049   6.289   4.311   4.195 -1.6042 -0.0558 -0.9562
20186TIP3    H282050   6.368   4.429   4.143  1.0553 -1.1779  0.3457
20187TIP3   OH282051   3.435   3.136  11.970  0.1336  0.1711 -0.4929
20187TIP3    H182052   3.525   3.154  11.998 -0.0203 -0.5940  0.5617
20187TIP3    H282053   3.429   3.174  11.882  1.6799 -0.3281 -0.8486
20188TIP3   OH282054   0.568   4.209   2.523 -0.0801  0.0345 -0.3038
20188TIP3    H182055   0.578   4.139   2.588 -0.3715  0.0158 -0.2738
20188TIP3    H282056   0.655   4.248   2.515 -0.4476  1.3732  1.6187
20189TIP3   OH282057   6.775   3.179  16.855 -0.7985 -0.2308 -0.3330
20189TIP3    H182058   6.744   3.088  16.852  0.7848 -0.9317  1.8002
20189TIP3    H282059   6.843   3.183  16.788 -0.2145 -0.9111  0.2103
20190TIP3   OH282060   1.463   2.120   0.258 -0.3107  0.0526  0.0419
20190TIP3    H182061   1.534   2.101   0.319 -0.3198 -0.4255 -0.0932
20190TIP3    H282062   1.483   2.208   0.225 -0.9949  0.8588  1.6684
20191TIP3   OH282063   2.607   2.246   4.330  0.5998  0.1122 -0.1830
20191TIP3    H182064   2.581   2.215   4.417 -0.6832  0.2704 -0.4909
20191TIP3    H282065   2.577   2.337   4.327 -2.2122 -0.7460 -1.8649
20192TIP3   OH282066   3.049   4.200  12.812  0.2510  0.0699  0.3414
20192TIP3    H182067   2.997   4.123  12.789 -0.5991  0.6589  0.2574
20192TIP3    H282068   3.068   4.243  12.729  0.5506  0.0730  0.4084
20193TIP3   OH282069   4.989   1.044  15.404 -0.4763 -0.2950  0.2155
20193TIP3    H182070   4.918   1.000  15.451 -0.5347  0.3916  0.7835
20193TIP3    H282071   4.980   1.136  15.428  1.1545 -0.3214  1.0063
20194TIP3   OH282072   3.596   4.161  12.192 -0.1271  0.7971  0.5648
20194TIP3    H182073   3.638   4.151  12.106 -0.6104 -0.7771  0.4904
20194TIP3    H282074   3.653   4.221  12.239 -0.0689  2.0377 -0.9913
20195TIP3   OH282075   3.262   2.133  12.265 -0.0707  0.0112 -0.0439
20195TIP3    H182076   3.273   2.050  12.310 -1.1697 -0.3762 -0.4496
20195TIP3    H282077   3.185   2.173  12.307 -0.1125  0.3890 -0.4680
20196TIP3   OH282078   4.963   4.255   1.338 -0.2473  0.3651  0.0182
20196TIP3    H182079   5.016   4.175   1.333 -3.3133 -1.8420  0.0316
20196TIP3    H282080   4.950   4.281   1.247 -0.8075 -0.3254 -0.1123
20197TIP3   OH282081   3.959   3.483  11.253  0.2073 -0.2485 -0.3496
20197TIP3    H182082   3.878   3.465  11.205  0.7195 -0.5847 -1.1032
20197TIP3    H282083   3.959   3.577  11.266 -0.2376 -0.2318 -0.4654
20198TIP3   OH282084   5.988   5.782  11.341  0.3737  0.1306 -0.4337
20198TIP3    H182085   6.028   5.710  11.293 -0.7015  0.4517 -1.8754
20198TIP3    H282086   5.897   5.753  11.355  0.0534  1.0147 -0.6393
20199TIP3   OH282087   1.383   3.955  13.199  0.0619 -0.3192 -0.2312
20199TIP3    H182088   1.378   4.042  13.238  2.2591  0.7428 -2.0958
20199TIP3    H282089   1.300   3.913  13.222  0.0419  1.2113  3.0426
20200TIP3   OH282090   6.039   0.621   4.265 -0.3082 -0.1564  0.3384
20200TIP3    H182091   6.129   0.616   4.233 -0.1580  0.8634  0.5767
20200TIP3    H282092   5.986   0.595   4.190  0.0831  1.3125 -0.4854
20201TIP3   OH282093   4.685   0.101   3.715  0.9255  0.2885  0.2919
20201TIP3    H182094   4.710   0.039   3.784  1.2824  2.2106  1.9687
20201TIP3    H282095   4.765   0.150   3.696  0.3553  1.0847 -0.1157
20202TIP3   OH282096   2.959   0.255   2.699 -0.4473 -0.2321 -0.0313
20202TIP3    H182097   3.029   0.303   2.743 -0.6267  1.5314 -1.5831
20202TIP3    H282098   2.892   0.244   2.767 -0.2455  1.4070  0.4819
20203TIP3   OH282099   4.169   3.693   0.273 -0.0554 -0.7759  0.1955
20203TIP3    H182100   4.206   3.770   0.316 -2.9831  1.0415 -0.3147
20203TIP3    H282101   4.243   3.656   0.225  1.5971  1.3718  0.9036
20204TIP3   OH282102   4.482   2.440  13.141 -0.2796 -0.5361 -0.8709
20204TIP3    H182103   4.438   2.413  13.222  0.4932  0.5242 -0.0794
20204TIP3    H282104   4.436   2.519  13.113 -0.2603 -0.6514 -1.2474
20205TIP3   OH282105   4.603   0.907  16.772 -0.1831 -0.0028  0.6359
20205TIP3    H182106   4.678   0.919  16.714  0.2015  0.6519  1.2527
20205TIP3    H282107   4.589   0.993  16.811 -0.0600 -0.5583  1.9523
20206TIP3   OH282108   5.789   6.695  17.122 -0.0002  0.0898 -0.1356
20206TIP3    H182109   5.696   6.687  17.099 -0.0553  2.0109 -0.7198
20206TIP3    H282110   5.806   6.789  17.122  1.7900 -0.1966  0.6706
20207TIP3   OH282111   0.189   5.560  10.571  0.0375  0.2602  0.5732
20207TIP3    H182112   0.173   5.535  10.662 -0.1963 -2.2326 -0.0657
20207TIP3    H282113   0.235   5.485  10.533 -2.2984 -0.0096 -2.0434
20208TIP3   OH282114   0.981   0.782  16.837  0.1536 -0.2591  0.1398
20208TIP3    H182115   0.978   0.687  16.851  0.6486 -0.2628  0.2348
20208TIP3    H282116   0.904   0.800  16.783 -1.3456 -0.3570  2.1346
20209TIP3   OH282117   0.287   1.867  16.475  0.5858 -0.0601  0.0343
20209TIP3    H182118   0.369   1.914  16.462  0.2495  0.0145 -2.1771
20209TIP3    H282119   0.267   1.830  16.389 -1.8500  0.1574  0.4538
20210TIP3   OH282120   4.690   5.978  13.148 -0.1959  0.1808  0.2588
20210TIP3    H182121   4.599   5.979  13.117 -0.6464 -1.3123  1.4011
20210TIP3    H282122   4.721   5.889  13.129  0.8346  0.4885  0.4347
20211TIP3   OH282123   5.815   0.451   1.859  0.3112  0.5502 -0.1005
20211TIP3    H182124   5.873   0.513   1.902  0.1625  0.4074  0.3137
20211TIP3    H282125   5.772   0.502   1.790 -0.2266  1.0617  0.5979
20212TIP3   OH282126   5.618   4.066   1.698 -0.2677  0.4690 -0.5276
20212TIP3    H182127   5.529   4.066   1.663  0.3422  1.7940 -2.2258
20212TIP3    H282128   5.665   4.000   1.646  0.2633  1.3590 -1.2136
20213TIP3   OH282129   4.633   2.128   0.437  0.1957  0.0141 -0.3606
20213TIP3    H182130   4.690   2.068   0.486 -0.0968  0.5210  0.6430
20213TIP3    H282131   4.601   2.077   0.363  1.2311 -0.5594 -0.4351
20214TIP3   OH282132   0.622   4.785  11.853  0.4389  0.7589 -0.3193
20214TIP3    H182133   0.709   4.749  11.842  0.0095  0.1921 -2.0913
20214TIP3    H282134   0.603   4.829  11.770 -1.6728 -0.7480 -0.7033
20215TIP3   OH282135   5.335   1.707  15.872  0.3074  0.6546 -0.2658
20215TIP3    H182136   5.347   1.797  15.902  0.5913  0.8084 -0.8200
20215TIP3    H282137   5.312   1.716  15.779 -0.7231  0.2086 -0.0753
20216TIP3   OH282138   2.843   0.315   3.114 -0.0140 -0.5631  0.0615
20216TIP3    H182139   2.865   0.230   3.152  1.0813 -0.4733 -0.3558
20216TIP3    H282140   2.923   0.367   3.121 -0.0832 -0.1976 -1.4107
20217TIP3   OH282141   1.818   0.452  12.176  0.1414 -0.2274 -0.5918
20217TIP3    H182142   1.893   0.420  12.126  0.3057 -0.8616  0.0408
20217TIP3    H282143   1.844   0.539  12.205  0.0583  0.1375 -1.5577
20218TIP3   OH282144   1.101   6.687   0.396  0.4026 -0.2526 -0.1740
20218TIP3    H182145   1.143   6.617   0.445  0.8660  1.2964  1.7444
20218TIP3    H282146   1.046   6.733   0.460  0.2053  1.2107 -1.3212
20219TIP3   OH282147   1.451   2.762  13.955  0.2251  0.4773 -0.2412
20219TIP3    H182148   1.503   2.799  14.026  0.6594 -0.2301 -0.1792
20219TIP3    H282149   1.450   2.668  13.973 -0.4408  0.4002 -0.6615
20220TIP3   OH282150   0.988   0.981  17.021 -0.1464  0.0125  0.3209
20220TIP3    H182151   0.940   0.967  17.103 -1.0516  1.0415 -0.0043
20220TIP3    H282152   0.969   0.904  16.969 -2.5247  0.8845 -0.2687
20221TIP3   OH282153   1.092   0.642   6.002 -0.0337 -0.3229  0.4038
20221TIP3    H182154   1.061   0.717   6.053 -1.5062 -0.7156  0.1531
20221TIP3    H282155   1.045   0.567   6.039  1.4032 -1.1380  0.6389
20222TIP3   OH282156   3.133   1.010  10.654 -0.4096  0.3862  0.1971
20222TIP3    H182157   3.175   1.030  10.570  3.6469 -0.4640  1.7703
20222TIP3    H282158   3.161   1.081  10.712 -0.9477 -0.3905  1.4531
20223TIP3   OH282159   2.415   4.033   1.779  0.2268  0.4487  0.1092
20223TIP3    H182160   2.335   4.056   1.826  0.9385  1.6285  0.8069
20223TIP3    H282161   2.400   4.062   1.690 -1.4752 -2.5749 -0.7356
20224TIP3   OH282162   5.279   2.852  13.776  0.2102 -0.6014 -0.4295
20224TIP3    H182163   5.188   2.838  13.803 -0.8754 -0.0276 -3.4711
20224TIP3    H282164   5.308   2.768  13.741  0.1548 -0.2829 -1.2664
20225TIP3   OH282165   1.832   4.716   0.563 -0.3152 -0.2226  0.0030
20225TIP3    H182166   1.873   4.630   0.561  0.6787  0.0227  3.3698
20225TIP3    H282167   1.887   4.770   0.505  2.5429 -0.6311  2.0885
20226TIP3   OH282168   1.916   5.143  13.532 -0.0027  0.7866  0.4844
20226TIP3    H182169   1.916   5.163  13.439  0.7551 -1.0489  0.0398
20226TIP3    H282170   1.986   5.196  13.569 -1.3686  2.7662  0.3536
20227TIP3   OH282171   0.445   5.871   0.316 -0.3994  0.2339  0.3831
20227TIP3    H182172   0.405   5.957   0.307 -0.1605  0.1824 -1.6045
20227TIP3    H282173   0.522   5.885   0.371 -0.2713  1.3112 -0.0633
20228TIP3   OH282174   3.428   5.500   5.877 -0.1539  1.3355  0.5301
20228TIP3    H182175   3.406   5.552   5.953  2.4480  1.8633  1.0231
20228TIP3    H282176   3.426   5.562   5.804 -2.8929  0.7789  0.0269
20229TIP3   OH282177   2.509   6.200   2.987 -0.2372  0.3131 -0.6925
20229TIP3    H182178   2.454   6.235   3.058  0.6825 -0.1550  0.2878
20229TIP3    H282179   2.447   6.178   2.918 -1.4117 -0.9233  0.6660
20230TIP3   OH282180   5.834   6.769  10.904  0.0725  0.4572  0.0799
20230TIP3    H182181   5.825   6.688  10.953  0.8774  0.8552  0.9313
20230TIP3    H282182   5.928   6.778  10.890 -0.0400  1.0504 -0.3407
20231TIP3   OH282183   5.848   1.104  14.593 -0.3201 -0.2759  0.2114
20231TIP3    H182184   5.797   1.066  14.522 -3.0250  2.0889  0.7284
20231TIP3    H282185   5.805   1.074  14.673  0.4390  0.0565  0.7592
20232TIP3   OH282186   5.701   6.338  14.098 -0.4058  0.6120 -0.0171
20232TIP3    H182187   5.680   6.311  14.008 -0.1902 -0.3058  0.2031
20232TIP3    H282188   5.744   6.262  14.137  0.2349  1.2780  0.6190
20233TIP3   OH282189   4.095   3.853   1.520 -0.2158 -0.4112  0.6947
20233TIP3    H182190   4.057   3.941   1.520 -0.4492 -0.5047  1.6075
20233TIP3    H282191   4.128   3.841   1.431 -0.2620  0.5627  0.5401
20234TIP3   OH282192   5.478   6.673  17.112 -0.2550  0.3434  0.2794
20234TIP3    H182193   5.460   6.759  17.073 -0.0764  0.6862  0.9338
20234TIP3    H282194   5.401   6.656  17.167 -0.4264 -0.0568 -0.0777
20235TIP3   OH282195   5.513   1.170   1.374  0.1388 -0.4565 -0.4503
20235TIP3    H182196   5.580   1.125   1.322 -1.1149  0.9816 -3.5200
20235TIP3    H282197   5.430   1.140   1.337 -0.7577  3.0633 -1.6169
20236TIP3   OH282198   4.398   6.507  14.316  0.2228  0.2644  0.2484
20236TIP3    H182199   4.444   6.497  14.400  1.1657  0.7475 -0.1915
20236TIP3    H282200   4.446   6.576  14.271 -0.3471  0.0899 -0.6519
20237TIP3   OH282201   4.303   4.700   1.888  0.5470 -0.5030 -0.0881
20237TIP3    H182202   4.213   4.702   1.918  0.3822 -1.8006 -0.4197
20237TIP3    H282203   4.355   4.721   1.966 -0.0041 -0.7159  0.3426
20238TIP3   OH282204   6.570   3.680   1.905  0.2868 -0.4910  0.2930
20238TIP3    H182205   6.628   3.608   1.879  0.1386 -1.6473  2.8177
20238TIP3    H282206   6.628   3.755   1.916  0.8905 -0.9359  0.2002
20239TIP3   OH282207   0.304   5.026  14.869  1.2317 -0.1367 -0.3918
20239TIP3    H182208   0.229   5.075  14.903  1.8043  0.2663  0.3150
20239TIP3    H282209   0.381   5.068  14.909  1.8949 -0.0235 -1.7202
20240TIP3   OH282210   1.772   2.196   6.712  0.5224  0.6458  0.3959
20240TIP3    H182211   1.832   2.131   6.674 -0.8982 -1.8402  2.1068
20240TIP3    H282212   1.727   2.149   6.781 -1.3678  3.2462  1.0776
20241TIP3   OH282213   4.121   1.221   5.661  0.1852 -0.4530 -0.2666
20241TIP3    H182214   4.125   1.162   5.736  0.1575 -1.6069 -1.1441
20241TIP3    H282215   4.172   1.177   5.593  0.0784  0.4921 -0.9803
20242TIP3   OH282216   5.076   1.682  12.901  0.1633  0.3032 -0.1262
20242TIP3    H182217   5.044   1.662  12.989 -2.5635  0.4806 -0.9585
20242TIP3    H282218   5.102   1.597  12.865  2.5108  0.3917  1.2081
20243TIP3   OH282219   1.359   4.277   5.246  0.3983  0.1615  0.1461
20243TIP3    H182220   1.315   4.193   5.236  0.8897 -0.1093  0.2300
20243TIP3    H282221   1.442   4.256   5.290  0.4975  0.6948  0.2236
20244TIP3   OH282222   2.908   2.524  16.751 -0.4822  0.1089 -0.3186
20244TIP3    H182223   2.853   2.448  16.736 -2.1398  1.5501 -2.0602
20244TIP3    H282224   2.862   2.576  16.816 -0.0956  0.3031 -0.1910
20245TIP3   OH282225   0.338   3.315  13.689  0.0737  0.4362 -0.5515
20245TIP3    H182226   0.354   3.359  13.605  0.9004  0.0454 -0.6146
20245TIP3    H282227   0.245   3.295  13.689  0.1871 -0.1555 -1.6779
20246TIP3   OH282228   0.559   5.929   5.170  0.3514  0.3168  0.6141
20246TIP3    H182229   0.473   5.970   5.174 -1.0967 -2.1103 -2.1317
20246TIP3    H282230   0.604   5.976   5.100 -0.4632 -1.1140 -0.9528
20247TIP3   OH282231   6.554   0.293   1.810  0.1825  0.2631 -0.2619
20247TIP3    H182232   6.605   0.298   1.729 -0.1933  0.2191 -0.5050
20247TIP3    H282233   6.494   0.220   1.795 -0.7327  1.0340 -0.4294
20248TIP3   OH282234   2.080   2.433   3.350  0.2322 -0.0613 -0.1151
20248TIP3    H182235   2.080   2.451   3.256 -0.8025 -0.3171 -0.1792
20248TIP3    H282236   1.990   2.453   3.378  0.2233 -1.0408  0.6125
20249TIP3   OH282237   1.203   3.770  15.122  0.4813 -0.2721  0.0039
20249TIP3    H182238   1.294   3.763  15.151  0.2504 -0.7139  0.6407
20249TIP3    H282239   1.191   3.864  15.105  1.0496 -0.2074 -0.0817
20250TIP3   OH282240   1.535   0.297   1.239 -0.0359  0.2980  0.0698
20250TIP3    H182241   1.594   0.285   1.314 -0.0056  0.9561  0.1537
20250TIP3    H282242   1.569   0.374   1.194 -0.5275  0.3764 -0.1720
20251TIP3   OH282243   4.775   0.969  14.208  0.3410  0.7680  0.5310
20251TIP3    H182244   4.820   1.048  14.241 -1.7400  1.8843  0.8625
20251TIP3    H282245   4.684   0.995  14.200  0.0778 -0.6262 -2.5448
20252TIP3   OH282246   4.096   1.339   4.394  0.4603 -0.4320  0.2755
20252TIP3    H182247   4.057   1.254   4.410 -1.7569  0.4904  0.1310
20252TIP3    H282248   4.165   1.323   4.329 -0.4382 -1.9925 -0.3383
20253TIP3   OH282249   4.732   3.310  13.724 -0.1212 -0.1589 -0.5738
20253TIP3    H182250   4.665   3.377  13.737 -1.3392 -1.5776  0.9606
20253TIP3    H282251   4.809   3.343  13.771 -0.6040  0.3072 -0.0997
20254TIP3   OH282252   6.657   6.469   1.664  0.1903 -0.2400  0.1052
20254TIP3    H182253   6.616   6.555   1.651 -0.4403 -0.3479  1.2819
20254TIP3    H282254   6.728   6.467   1.600  1.0970  1.7275  0.9753
20255LIG      O82255   5.092   5.003   4.117  0.4045 -0.2853  0.3105
20255LIG      N82256   5.232   4.758   4.087 -0.2062  0.1175 -0.0257
20255LIG     C182257   4.853   5.006   4.175 -0.0485  0.5511 -0.1271
20255LIG     C282258   4.990   4.937   4.189  0.1651 -0.0295  0.3263
20255LIG     C382259   4.838   5.135   4.254  0.2975 -0.3514 -0.0413
20255LIG     C482260   4.808   5.035   4.029 -0.0480 -0.5062 -0.2900
20255LIG     C582261   4.988   4.788   4.130  0.3988  0.5115 -0.4962
20255LIG     C682262   4.695   5.201   4.251 -0.0953 -0.2560 -0.8805
20255LIG     C782263   4.657   5.086   4.033 -0.0960 -0.0067  0.7269
20255LIG     C882264   4.644   5.212   4.110  0.4869  0.1457 -0.6050
20255LIG     C982265   5.110   4.699   4.153 -0.5206  0.4640  0.3781
20255LIG    C1082266   5.025   4.921   4.338 -0.2144  0.0797 -1.0980
20255LIG    C1182267   5.360   4.690   4.121 -1.1469  0.5094 -0.0465
20255LIG    C1282268   5.230   4.776   3.941 -0.5033  0.0885  0.2043
20255LIG    C1382269   5.369   4.541   4.066 -0.2951 -0.0362 -0.2327
20255LIG    C1482270   5.232   4.635   3.883  0.5859 -0.4118 -0.1401
20255LIG    C1582271   5.356   4.550   3.915 -0.4532 -0.2925  0.0890
20255LIG    C1682272   4.960   4.826   4.424 -0.2204 -0.5750 -0.5994
20255LIG    C1782273   5.127   5.003   4.389 -1.1435 -0.0136  0.2289
20255LIG    C1882274   5.001   4.815   4.563  0.2950 -0.5640 -0.4210
20255LIG    C1982275   5.162   5.002   4.524 -0.8318 -0.3558  0.5031
20255LIG    C2082276   5.094   4.911   4.613 -0.4278  0.0968 -0.5082
20255LIG     H182277   4.776   4.936   4.213  0.9895  1.0780  3.3220
20255LIG     H282278   4.920   5.202   4.218 -1.2318  0.9367 -1.3047
20255LIG     H382279   4.855   5.105   4.359 -1.6219 -1.4230  0.0103
20255LIG     H482280   4.813   4.950   3.957  1.4372 -0.1792 -0.6212
20255LIG     H582281   4.865   5.124   3.995  2.0016 -1.0290  1.5326
20255LIG     H682282   4.957   4.793   4.023 -1.4126  1.6905  0.0326
20255LIG     H782283   4.900   4.743   4.182  0.9672 -0.9796 -0.7815
20255LIG     H882284   4.711   5.296   4.306 -0.7041 -1.0680  0.7661
20255LIG     H982285   4.615   5.151   4.310 -1.2094  2.6016  0.2384
20255LIG    H1082286   4.582   5.013   4.070 -3.0092  0.9587 -2.6981
20255LIG    H1182287   4.636   5.111   3.927  0.7476 -0.2316  0.5001
20255LIG    H1282288   4.681   5.297   4.048 -0.6981  1.6697  0.7100
20255LIG    H1382289   4.534   5.226   4.115  0.5801  1.6061 -1.7212
20255LIG    H1482290   5.134   4.661   4.254  0.9091 -0.6623 -0.3465
20255LIG    H1582291   5.100   4.601   4.102 -1.5346 -0.0012  1.4327
20255LIG    H1682292   5.367   4.690   4.232 -1.0030 -1.7327 -0.0223
20255LIG    H1782293   5.454   4.742   4.093  0.7047 -1.8691  1.3770
20255LIG    H1882294   5.320   4.833   3.910 -0.8796  0.5840 -0.0131
20255LIG    H1982295   5.135   4.828   3.912  0.6744  1.4174 -1.4862
20255LIG    H2082296   5.152   4.930   4.102  0.6270  0.1590 -1.1045
20255LIG    H2182297   5.297   4.474   4.117  0.3263 -0.3515  0.2489
20255LIG    H2282298   5.472   4.504   4.088 -1.2536 -1.7846  1.5847
20255LIG    H2382299   5.220   4.660   3.775 -0.7575  3.2207  0.7096
20255LIG    H2482300   5.141   4.577   3.911 -0.0930  0.0546 -1.3159
20255LIG    H2582301   5.342   4.456   3.856  1.0070 -0.4976  0.0458
20255LIG    H2682302   5.440   4.613   3.880 -0.1467  1.6717  3.7877
20255LIG    H2782303   4.885   4.756   4.390 -0.8330 -0.3497  0.2334
20255LIG    H2882304   5.165   5.078   4.322 -1.1614 -0.6114 -0.4660
20255LIG    H2982305   4.969   4.736   4.629  2.7943  0.2872  2.0194
20255LIG    H3082306   5.243   5.069   4.549 -0.5705  0.1862 -1.6254
20255LIG    H3182307   5.124   4.897   4.716 -1.1463 -1.0375 -0.4372
   6.85862   6.85862  17.12568
